Control file title. For DL_FIELD 4.10
49956
    1MOL     C1    1   0.897   7.337   7.204  0.2841 -0.7204 -0.1250
    1MOL     O2    2   0.892   7.250   7.294  0.0300  0.3497  0.2883
    1MOL     C3    3   0.773   7.377   7.121 -0.2712 -0.8628  0.5211
    1MOL     C4    4   0.640   7.299   7.158  0.2220 -0.1831 -0.2136
    1MOL     C5    5   0.517   7.360   7.098  0.0759 -0.7449  0.0341
    1MOL     C6    6   0.531   7.412   6.953  0.0405  0.4029  0.6807
    1MOL     C7    7   0.394   7.457   6.904 -0.1153  0.4387  0.9760
    1MOL     O8    8   0.355   7.579   6.963 -0.1358 -0.1058  0.0653
    1MOL     H9    9   0.802   7.377   7.016  2.9248  0.4986  1.3533
    1MOL    H10   10   0.761   7.478   7.159 -1.1399 -0.8207  0.1411
    1MOL    H11   11   0.629   7.303   7.266  1.9497 -0.9729  0.0044
    1MOL    H12   12   0.643   7.195   7.127  1.0458 -0.3389  0.3723
    1MOL    H13   13   0.482   7.443   7.159  0.0633 -0.2001 -0.7152
    1MOL    H14   14   0.440   7.283   7.091 -2.9265  2.2350 -1.1442
    1MOL    H15   15   0.580   7.333   6.896 -0.2064  0.8904 -0.2147
    1MOL    H16   16   0.594   7.502   6.950 -0.4942  0.7310 -2.3555
    1MOL    H17   17   0.392   7.482   6.798 -0.7391  2.3245  1.4226
    1MOL    H18   18   0.329   7.372   6.924 -0.2491  0.0272 -1.0621
    1MOL    H19   19   0.986   7.396   7.181  0.5087 -1.2366 -0.5840
    1MOL    C20   20   0.409   7.698   6.923  0.0028 -0.3809 -0.2335
    1MOL    O21   21   0.494   7.709   6.835  0.2362  0.0637  0.2089
    1MOL    C22   22   0.382   7.816   7.013 -0.1947  0.0206  0.2099
    1MOL    C23   23   0.249   0.037   6.980 -0.2006  0.5325  0.2334
    1MOL    C24   24   0.231   0.119   6.853  0.1409  0.3466  0.4125
    1MOL    C25   25   0.086   0.159   6.827 -0.4797  0.3013 -0.1509
    1MOL    C26   26   0.044   0.220   6.694 -0.3383  0.6156  0.6625
    1MOL    O27   27   0.109   0.341   6.680 -0.2807  0.2427  0.1666
    1MOL    H28   28   0.461   0.043   6.991 -0.1619 -0.4301 -1.1711
    1MOL    H29   29   0.375   7.793   7.119  1.4945 -1.0282  0.1107
    1MOL    H30   30   0.233   0.105   7.064 -0.9978 -0.1492  0.6378
    1MOL    H31   31   0.165   7.813   6.986 -1.4364  1.9793 -0.2967
    1MOL    H32   32   0.270   0.066   6.766 -0.8079 -0.3790  0.4245
    1MOL    H33   33   0.301   0.202   6.863  0.2115  0.4059 -0.5140
    1MOL    H34   34   0.055   0.224   6.909  2.7101  0.0497  1.3039
    1MOL    H35   35   0.027   0.068   6.843  0.6734 -0.6097 -1.0207
    1MOL    H36   36   0.064   0.154   6.610 -0.8732 -2.1722  2.6868
    1MOL    H37   37   7.783   0.247   6.682 -0.4013 -0.0338 -0.2894
    1MOL    C38   38   0.074   0.416   6.575  0.0073  0.0177 -0.3524
    1MOL    O39   39   7.828   0.389   6.491 -0.0930 -0.3543  0.2087
    1MOL    C40   40   0.164   0.534   6.554  0.0155  0.4045  0.3056
    1MOL    C41   41   0.114   0.637   6.459  0.8073 -0.1117 -0.5202
    1MOL    C42   42   0.230   0.732   6.426  0.3717 -0.0481  0.1597
    1MOL    C43   43   0.188   0.862   6.342 -0.0509  0.5702  0.1732
    1MOL    C44   44   0.303   0.937   6.282 -1.2192  0.6066  0.2558
    1MOL    O45   45   0.366   0.855   6.195 -0.1111 -0.3233 -0.3482
    1MOL    H46   46   0.264   0.496   6.532 -0.7903 -1.4482 -0.2380
    1MOL    H47   47   0.163   0.576   6.655  0.5079 -1.5439  1.1393
    1MOL    H48   48   0.032   0.691   6.505  0.7958  0.7244 -1.5002
    1MOL    H49   49   0.085   0.593   6.363 -0.1777 -0.4184 -0.0836
    1MOL    H50   50   0.299   0.669   6.371 -0.3559 -1.0447  0.3769
    1MOL    H51   51   0.286   0.776   6.508 -1.7506 -2.2989  2.9289
    1MOL    H52   52   0.108   0.921   6.385 -2.0009 -1.5866 -0.4119
    1MOL    H53   53   0.127   0.824   6.260  0.5606  2.3105 -1.1014
    1MOL    H54   54   0.257   1.014   6.219 -1.2419  0.4969  0.1396
    1MOL    H55   55   0.382   0.971   6.349 -0.3976  1.8585 -1.3187
    1MOL    C56   56   0.484   0.890   6.132 -0.2472  0.8664  0.4354
    1MOL    O57   57   0.545   0.992   6.162  0.0785 -0.4861 -0.0622
    1MOL    C58   58   0.528   0.794   6.022 -0.0239  0.2617  0.1208
    1MOL    C59   59   0.669   0.730   6.041 -0.5711  0.0220  0.8894
    1MOL    C60   60   0.789   0.825   6.025 -0.8810 -0.4659  0.0617
    1MOL    C61   61   0.779   0.913   5.896 -0.9767  0.3897 -0.0724
    1MOL    C62   62   0.899   1.009   5.901  0.1738  0.4495 -0.0285
    1MOL    O63   63   1.016   0.935   5.862 -0.3542 -0.5564 -0.6251
    1MOL    H64   64   0.514   0.835   5.922  0.4950  0.6162  0.1921
    1MOL    H65   65   0.464   0.708   6.039  2.2237 -1.4068  0.3449
    1MOL    H66   66   0.675   0.656   5.962 -0.0188  2.6999 -1.6357
    1MOL    H67   67   0.680   0.673   6.134  0.1121 -2.9391 -0.9395
    1MOL    H68   68   0.874   0.756   6.020  1.0114  1.7730  0.0977
    1MOL    H69   69   0.800   0.886   6.115 -1.4162 -0.3304  0.0379
    1MOL    H70   70   0.688   0.972   5.907  0.6624  3.1279 -0.7914
    1MOL    H71   71   0.766   0.851   5.807 -1.0002 -0.7957  0.7586
    1MOL    H72   72   0.881   1.094   5.835 -1.9600  1.1677  1.4144
    1MOL    H73   73   0.906   1.044   6.003  1.0333 -0.4700  0.2317
    1MOL    C74   74   1.113   0.921   5.959 -0.3452  0.3387  0.2682
    1MOL    O75   75   1.113   0.960   6.071 -0.3073  0.1869  0.3954
    1MOL    C76   76   1.228   0.848   5.901  0.4532 -0.3805  0.6078
    1MOL    C77   77   1.335   0.793   6.006 -0.3621 -0.2428  0.4664
    1MOL    C78   78   1.410   0.906   6.079  0.0608  0.6293 -0.4651
    1MOL    C79   79   1.517   0.846   6.164  0.1054  0.1706 -0.1118
    1MOL    C80   80   1.563   0.941   6.273 -0.2411 -0.2098 -0.4563
    1MOL    O81   81   1.664   0.872   6.353  0.1732  0.5362  0.1524
    1MOL    H82   82   1.270   0.929   5.841  0.2173 -0.6017  0.1426
    1MOL    H83   83   1.197   0.766   5.837 -0.8803  0.4892  0.1210
    1MOL    H84   84   1.413   0.740   5.952  1.4707  1.3919  1.4260
    1MOL    H85   85   1.289   0.732   6.083  0.1570  0.0631  1.0279
    1MOL    H86   86   1.341   0.962   6.143 -1.6949 -0.0420 -1.7441
    1MOL    H87   87   1.452   0.970   6.001 -1.1422  1.0926 -0.7530
    1MOL    H88   88   1.607   0.825   6.106 -0.0914 -3.5597  0.8161
    1MOL    H89   89   1.479   0.752   6.202 -1.0631  0.6637 -0.0479
    1MOL    H90   90   1.599   1.034   6.229  0.9695  0.7679  2.4877
    1MOL    H91   91   1.476   0.952   6.338  0.9331  2.5085  0.7409
    1MOL    C92   92   1.766   0.939   6.396 -1.4011  0.1099  0.1039
    1MOL    O93   93   1.795   1.051   6.356 -0.2733 -0.2575  0.0707
    1MOL    C94   94   1.851   0.865   6.500 -0.5388 -0.4007  0.1184
    1MOL    C95   95   1.978   0.945   6.538  0.4987  0.2584 -0.1821
    1MOL    C96   96   2.056   0.884   6.658  0.1616 -0.0991 -0.6048
    1MOL    C97   97   2.134   0.757   6.619  0.2601  0.1009 -0.2480
    1MOL    C98   98   2.202   0.689   6.731  0.0681  0.3295 -0.9458
    1MOL    O99   99   2.289   0.574   6.696 -0.3597  0.0591  0.8445
    1MOL   H100  100   1.877   0.768   6.457  0.7161  0.6242 -1.4947
    1MOL   H101  101   1.785   0.841   6.583  0.6623 -4.0588  0.1214
    1MOL   H102  102   1.966   1.053   6.548 -2.2404  0.0069 -0.4016
    1MOL   H103  103   2.043   0.938   6.451  0.9611 -0.8094  0.2336
    1MOL   H104  104   1.972   0.851   6.719 -0.7165  3.3248  0.1322
    1MOL   H105  105   2.115   0.962   6.705 -1.5470 -0.2036  1.7525
    1MOL   H106  106   2.206   0.804   6.551  0.4456  0.9419  0.5077
    1MOL   H107  107   2.076   0.698   6.548  1.2817  0.5702 -1.5079
    1MOL   H108  108   2.267   0.761   6.781 -0.8668  0.6095 -0.1188
    1MOL   H109  109   2.128   0.651   6.801 -0.1808 -0.2409 -1.5056
    1MOL   C110  110   2.338   0.497   6.796 -0.0997 -0.7485  0.0042
    1MOL   O111  111   2.310   0.499   6.913 -0.3617  0.2659 -0.2251
    1MOL   C112  112   2.434   0.401   6.732  0.9738 -0.4796  0.4619
    1MOL   C113  113   2.371   0.303   6.638  0.5242  0.7333 -0.2038
    1MOL   C114  114   2.297   0.189   6.712 -0.1243  0.0579 -0.2014
    1MOL   C115  115   2.302   0.051   6.635  0.1703 -0.2023 -0.5602
    1MOL   C116  116   2.418   7.800   6.649  0.0167 -0.0165  0.0706
    1MOL   O117  117   2.543   0.015   6.619  0.1733  0.1070  0.2996
    1MOL   H118  118   2.490   0.351   6.811 -0.7947  0.2241  2.2043
    1MOL   H119  119   2.496   0.471   6.675 -0.5731  0.0604 -0.5606
    1MOL   H120  120   2.452   0.253   6.584  0.7821  1.7524 -0.7743
    1MOL   H121  121   2.319   0.352   6.556  2.0221 -1.1376 -2.3232
    1MOL   H122  122   2.201   0.229   6.745 -0.4366 -3.4834  3.4993
    1MOL   H123  123   2.340   0.158   6.807 -0.9757  0.1743  0.2327
    1MOL   H124  124   2.283   0.081   6.532  0.5032 -0.3698 -0.6684
    1MOL   H125  125   2.221   7.832   6.671  0.6367 -2.2954 -3.0642
    1MOL   H126  126   2.426   7.753   6.747 -1.8939 -0.4060  0.0720
    1MOL   H127  127   2.394   7.722   6.576 -0.4100 -1.1706  1.4119
    1MOL   C128  128   2.656   7.782   6.631 -0.0085 -0.1180  0.6729
    1MOL   O129  129   2.662   7.665   6.671 -0.5527  0.0943  0.3441
    1MOL   C130  130   2.776   0.025   6.611 -0.0534 -0.2647  0.2317
    1MOL   C131  131   2.909   7.793   6.602 -0.4108 -0.4264 -0.5247
    1MOL   C132  132   2.920   7.708   6.474 -0.1845  0.4866 -0.3368
    1MOL   C133  133   3.058   7.644   6.462  0.9629 -0.8906 -0.3448
    1MOL   C134  134   3.064   7.525   6.365  0.2800  0.1235 -0.5316
    1MOL   O135  135   2.991   7.557   6.251  0.7463 -0.1720 -0.0836
    1MOL   H136  136   2.775   0.078   6.706  0.0326  0.0507  0.0581
    1MOL   H137  137   2.757   0.099   6.534  0.1487  0.0663  0.4978
    1MOL   H138  138   2.913   7.730   6.690 -1.2801  1.0700  0.6124
    1MOL   H139  139   2.996   0.011   6.618  1.0083 -1.8766 -2.2857
    1MOL   H140  140   2.897   7.767   6.385 -1.8420 -0.3358 -0.4607
    1MOL   H141  141   2.850   7.625   6.474  0.9498 -0.4809  0.6139
    1MOL   H142  142   3.102   7.614   6.557  2.2004  2.1502  0.1185
    1MOL   H143  143   3.125   7.715   6.414  2.8521 -1.7274  1.0222
    1MOL   H144  144   3.166   7.496   6.342  0.1216  0.4727 -1.6993
    1MOL   H145  145   3.018   7.431   6.397  0.8628 -0.2051 -0.6538
    1MOL   C146  146   3.016   7.487   6.143  1.1077  0.9075 -0.1793
    1MOL   O147  147   3.090   7.385   6.139  0.3217 -0.5789  0.0946
    1MOL   C148  148   2.932   7.528   6.022 -0.9167  0.1104 -0.2974
    1MOL   C149  149   2.954   7.669   5.975 -0.5492 -0.8785 -0.6746
    1MOL   C150  150   2.888   7.698   5.840  0.3420 -0.2709 -0.4650
    1MOL   C151  151   2.978   7.651   5.717  0.4284  0.4481 -0.4794
    1MOL   C152  152   2.917   7.675   5.578 -0.0241 -0.1645  0.1199
    1MOL   O153  153   2.798   7.591   5.570 -0.3225  0.3323  0.0570
    1MOL   H154  154   2.823   7.519   6.029 -0.9131  0.2441 -0.0625
    1MOL   H155  155   2.960   7.452   5.950  0.5442 -0.7565  1.1745
    1MOL   H156  156   3.059   7.697   5.983 -0.6429 -1.0232  1.3533
    1MOL   H157  157   2.895   7.730   6.043  0.6634  0.6837 -0.9932
    1MOL   H158  158   2.878   7.805   5.826 -0.9450 -0.3840 -0.4498
    1MOL   H159  159   2.786   7.660   5.839  0.9089 -1.9054  0.4610
    1MOL   H160  160   3.004   7.546   5.719  0.7104  0.5229 -0.0714
    1MOL   H161  161   3.074   7.703   5.725  1.3106 -1.3828  1.0793
    1MOL   H162  162   2.878   7.776   5.574 -0.3806 -0.2731  0.7698
    1MOL   H163  163   2.985   7.649   5.497  0.1782 -2.9412  1.1230
    1MOL   C164  164   2.701   7.632   5.486 -0.2902  0.3223  0.5012
    1MOL   O165  165   2.709   7.727   5.403  0.4948 -0.2349  0.0034
    1MOL   C166  166   2.577   7.544   5.484  0.8133  1.0550  0.1769
    1MOL   C167  167   2.613   7.393   5.478  0.0974  0.2201 -0.4583
    1MOL   C168  168   2.501   7.297   5.419  0.2897 -0.9967  0.1457
    1MOL   C169  169   2.544   7.153   5.399 -0.5275 -0.2334  0.3609
    1MOL   C170  170   2.457   7.075   5.298 -0.9046  0.2226 -0.1938
    1MOL   O171  171   2.535   6.958   5.270 -0.4983  0.6817  0.5445
    1MOL   H172  172   2.516   7.570   5.397 -0.5281  0.2875  0.8764
    1MOL   H173  173   2.519   7.570   5.572 -0.0827  1.6716 -0.5835
    1MOL   H174  174   2.617   7.352   5.579  1.3946 -1.6642 -1.2404
    1MOL   H175  175   2.712   7.376   5.435  0.5077  0.0196  0.5443
    1MOL   H176  176   2.484   7.330   5.316 -1.3195  1.1245  1.0556
    1MOL   H177  177   2.405   7.330   5.459  2.0719  2.1725  2.0204
    1MOL   H178  178   2.541   7.089   5.487 -0.8176 -0.8421 -0.0903
    1MOL   H179  179   2.651   7.156   5.378 -0.7537  0.6922 -0.7061
    1MOL   H180  180   2.366   7.031   5.339  0.5781 -0.7671  2.0851
    1MOL   H181  181   2.444   7.135   5.207  1.1492  0.3282 -0.4489
    1MOL   C182  182   2.491   6.877   5.177  0.1634  0.1312  0.5608
    1MOL   O183  183   2.383   6.882   5.124  0.0249  0.5537 -0.6351
    1MOL   C184  184   2.596   6.771   5.136 -0.6229  0.0959 -0.3169
    1MOL   C185  185   2.729   6.836   5.094 -0.0941  0.7247  0.2515
    1MOL   C186  186   2.713   6.943   4.987 -0.7747 -0.5476  0.4397
    1MOL   C187  187   2.667   6.888   4.852  0.4694  0.2623 -0.5989
    1MOL   C188  188   2.653   7.003   4.740  0.7421 -0.3334 -0.5314
    1MOL   O189  189   2.523   7.067   4.745  0.5446  0.1562 -0.1401
    1MOL   H190  190   2.556   6.715   5.052 -1.9839  0.6175 -0.0202
    1MOL   H191  191   2.612   6.705   5.222 -0.4458 -0.7920 -1.0269
    1MOL   H192  192   2.783   6.756   5.045  0.1168 -0.3961  2.2712
    1MOL   H193  193   2.790   6.878   5.175  0.1819  1.1024 -0.1478
    1MOL   H194  194   2.814   6.983   4.976  0.1419 -3.0725 -0.4846
    1MOL   H195  195   2.651   7.029   5.016  1.4864  1.3652 -0.2500
    1MOL   H196  196   2.576   6.828   4.864 -1.3183  2.7167 -1.3647
    1MOL   H197  197   2.736   6.811   4.819  2.0927  1.1603  0.6395
    1MOL   H198  198   2.744   7.063   4.734 -2.1593  4.2884 -0.7205
    1MOL   H199  199   2.658   6.954   4.642 -0.7458  3.0830 -2.3794
    1MOL   C200  200   2.513   7.181   4.820  0.1204  0.5789 -0.0790
    1MOL   O201  201   2.602   7.244   4.871 -0.7807 -0.5935 -0.4344
    1MOL   C202  202   2.369   7.234   4.830 -0.3549  0.1068  0.0428
    1MOL   C203  203   2.292   7.143   4.932  0.4597 -0.2707  0.8908
    1MOL   C204  204   2.150   7.190   4.943  0.6911 -0.2505  0.6858
    1MOL   C205  205   2.088   7.145   5.076 -0.4694  0.8235  0.7239
    1MOL   C206  206   1.941   7.185   5.089  0.1040 -0.2555 -1.0722
    1MOL   O207  207   1.921   7.214   5.227 -0.7512  0.0957 -0.2730
    1MOL   H208  208   2.325   7.236   4.730 -2.5439  0.9524  0.9979
    1MOL   H209  209   2.381   7.331   4.876  2.2822 -0.2254  0.1695
    1MOL   H210  210   2.348   7.126   5.024 -1.2818  0.3776  2.0883
    1MOL   H211  211   2.283   7.039   4.900 -0.5117  0.2782 -0.7041
    1MOL   H212  212   2.097   7.168   4.850  0.0339  0.0317  0.9878
    1MOL   H213  213   2.157   7.298   4.950 -1.4317 -0.0878  0.5927
    1MOL   H214  214   2.143   7.183   5.162  1.9169  1.0172 -0.8592
    1MOL   H215  215   2.095   7.037   5.092  0.5131  1.0764  2.1002
    1MOL   H216  216   1.920   7.286   5.053  1.1547 -0.0191 -1.0415
    1MOL   H217  217   1.867   7.119   5.044 -0.1560  0.1896 -1.3004
    1MOL   C218  218   1.849   7.130   5.314  0.2955 -0.1185  0.0515
    1MOL   O219  219   1.801   7.016   5.285  0.3239  0.1904  0.0113
    1MOL   C220  220   1.842   7.191   5.458 -0.2474  0.5650  0.2768
    1MOL   C221  221   1.983   7.231   5.509  0.1813 -0.2954  0.0387
    1MOL   C222  222   1.978   7.332   5.625 -0.7427 -0.6463  0.3488
    1MOL   C223  223   2.111   7.371   5.691  0.4187  0.2504  0.2019
    1MOL   C224  224   2.099   7.486   5.786  0.4124  0.7499 -0.1566
    1MOL   O225  225   2.213   7.487   5.875  0.5700 -0.1307 -0.1283
    1MOL   H226  226   1.787   7.131   5.530 -1.4614  1.9185  0.5156
    1MOL   H227  227   1.779   7.280   5.449  1.6159  1.8720 -0.2607
    1MOL   H228  228   2.042   7.271   5.426 -1.6150 -1.2509 -1.7577
    1MOL   H229  229   2.037   7.142   5.544  0.5412  0.2038  0.7622
    1MOL   H230  230   1.900   7.294   5.690 -0.6663 -1.2637  0.0830
    1MOL   H231  231   1.929   7.421   5.586  1.2286  0.1713 -0.3540
    1MOL   H232  232   2.184   7.395   5.614 -0.2176  0.6440 -0.2878
    1MOL   H233  233   2.147   7.282   5.743 -1.7800 -0.5201  0.4691
    1MOL   H234  234   2.087   7.582   5.735  0.5653  1.2466  0.7416
    1MOL   H235  235   2.016   7.478   5.856  0.0112  0.2837 -0.6839
    1MOL   C236  236   2.321   7.553   5.841 -0.1833 -1.0891 -0.1955
    1MOL   O237  237   2.334   7.632   5.746  0.3541  0.6929  0.0014
    1MOL   C238  238   2.420   7.541   5.953  0.0858 -0.0328  0.7923
    1MOL   C239  239   2.560   7.494   5.902  0.1552 -0.2289  0.8510
    1MOL   C240  240   2.571   7.342   5.883  0.3250  0.2124 -0.3257
    1MOL   C241  241   2.716   7.299   5.867  0.3251  0.1678  0.0689
    1MOL   C242  242   2.736   7.147   5.869  0.5524  0.4597  0.2967
    1MOL   O243  243   2.870   7.097   5.860 -0.0534 -0.1120  0.1088
    1MOL   H244  244   2.374   7.462   6.012  0.0661 -0.8299 -0.2577
    1MOL   H245  245   2.425   7.639   6.001 -1.4486  1.1094 -1.3243
    1MOL   H246  246   2.633   7.535   5.972  0.2695 -2.1756  1.8920
    1MOL   H247  247   2.581   7.534   5.803  1.3651 -0.0605  1.1634
    1MOL   H248  248   2.510   7.301   5.803  1.1020 -0.9987 -0.3046
    1MOL   H249  249   2.536   7.296   5.976 -0.3820 -0.8458 -1.1135
    1MOL   H250  250   2.773   7.330   5.955 -0.7787 -0.1193  0.8919
    1MOL   H251  251   2.753   7.345   5.776 -0.0880 -0.9139 -0.6522
    1MOL   H252  252   2.685   7.113   5.959 -1.9325 -2.1678 -1.9901
    1MOL   H253  253   2.671   7.094   5.799  0.0553  2.6405 -0.9641
    1MOL   C254  254   2.925   7.092   5.742  0.4373 -0.0171 -0.2785
    1MOL   O255  255   2.866   7.113   5.633  0.7027  0.6733  0.4174
    1MOL   C256  256   3.077   7.064   5.750  0.2554 -0.5281  0.1420
    1MOL   C257  257   3.106   6.916   5.781 -0.4436  0.2240  0.2488
    1MOL   C258  258   3.111   6.891   5.930 -0.2816 -0.8533  0.4766
    1MOL   C259  259   3.119   6.742   5.971  0.1894  0.0495 -0.5583
    1MOL   C260  260   2.981   6.679   5.966  0.3475 -0.1541  0.4243
    1MOL   O261  261   2.910   6.724   6.079  0.4809  0.2041  0.0054
    1MOL   H262  262   3.122   7.129   5.826  0.5684 -1.2133  0.5535
    1MOL   H263  263   3.126   7.077   5.654 -0.0620 -1.9518 -0.2195
    1MOL   H264  264   3.202   6.889   5.735 -0.1244  0.7035  0.6313
    1MOL   H265  265   3.034   6.855   5.726  0.5431 -1.1553  0.4483
    1MOL   H266  266   3.030   6.935   5.989 -1.6524 -1.7221 -0.7251
    1MOL   H267  267   3.200   6.945   5.962 -0.0304 -1.6132  1.0801
    1MOL   H268  268   3.162   6.737   6.071 -0.8018 -2.6771 -0.2225
    1MOL   H269  269   3.184   6.688   5.902  0.7260 -2.2316  1.6734
    1MOL   H270  270   2.935   6.703   5.870  1.6517  2.9725  0.5126
    1MOL   H271  271   2.980   6.570   5.978  0.3746 -0.0980  0.9678
    1MOL   C272  272   2.774   6.722   6.075 -0.5833 -0.8839  0.2978
    1MOL   O273  273   2.703   6.678   5.977 -0.1657 -0.4012  0.0042
    1MOL   C274  274   2.716   6.795   6.198 -0.9319  0.5443  0.5908
    1MOL   C275  275   2.570   6.825   6.182  0.1794 -1.1198  1.2367
    1MOL   C276  276   2.524   6.948   6.100 -0.5157 -0.5539  0.9384
    1MOL   C277  277   2.375   6.973   6.112 -0.3977  0.4014 -0.5511
    1MOL   C278  278   2.320   7.080   6.025 -0.6685  0.1962 -0.3251
    1MOL   O279  279   2.346   7.060   5.887  0.1952 -0.3893  0.2445
    1MOL   H280  280   2.770   6.889   6.196  1.6918 -0.9406 -1.7184
    1MOL   H281  281   2.745   6.739   6.287  1.3507 -0.1164 -0.5416
    1MOL   H282  282   2.544   6.856   6.283  2.1098  2.5465  0.7048
    1MOL   H283  283   2.514   6.733   6.166 -0.6736 -0.5691  0.9633
    1MOL   H284  284   2.547   6.929   5.995 -2.4618 -2.2074  0.7835
    1MOL   H285  285   2.580   7.038   6.126 -0.0987 -0.2703 -0.8893
    1MOL   H286  286   2.354   6.993   6.217 -2.7897  1.0129 -1.1032
    1MOL   H287  287   2.327   6.879   6.083  1.6765 -0.4246 -1.4109
    1MOL   H288  288   2.213   7.102   6.030 -0.9953 -1.3969 -0.0554
    1MOL   H289  289   2.380   7.165   6.056 -0.4763 -0.2902  0.6435
    1MOL   C290  290   2.248   7.005   5.810  0.3883 -0.8136  0.0493
    1MOL   O291  291   2.139   6.963   5.849 -0.0579 -0.3738  0.8379
    1MOL   C292  292   2.289   7.005   5.657  0.3295  0.5509  0.0080
    1MOL   C293  293   2.366   6.881   5.613 -0.1098  0.4649 -0.1374
    1MOL   C294  294   2.510   6.870   5.660  0.7327 -0.0412  0.0433
    1MOL   C295  295   2.580   6.750   5.583  0.2863 -0.5407  0.5082
    1MOL   C296  296   2.733   6.775   5.578  0.2692 -0.5712  0.1063
    1MOL   O297  297   2.783   6.677   5.484 -0.4497  0.0599 -0.7408
    1MOL   H298  298   2.345   7.096   5.639  1.0956  0.1835  0.5231
    1MOL   H299  299   2.194   7.002   5.603  0.0263 -2.5735  0.6024
    1MOL   H300  300   2.370   6.900   5.506  1.1748  0.9752 -0.0071
    1MOL   H301  301   2.313   6.787   5.626  0.8874 -0.1384 -0.3578
    1MOL   H302  302   2.523   6.855   5.767  0.3433  1.6031  0.3423
    1MOL   H303  303   2.563   6.965   5.649  0.8377 -0.3712 -2.6724
    1MOL   H304  304   2.536   6.737   5.484  1.3392  0.2370 -0.0824
    1MOL   H305  305   2.552   6.657   5.632  0.1478  0.1174  1.6885
    1MOL   H306  306   2.748   6.871   5.527  1.7856 -0.3294  0.9842
    1MOL   H307  307   2.777   6.770   5.677 -1.2378  2.1917  0.9971
    1MOL   C308  308   2.915   6.622   5.501  0.8286  0.0928  0.3323
    1MOL   O309  309   3.000   6.654   5.580 -0.1109 -0.0109 -0.2494
    1MOL   C310  310   2.932   6.501   5.411  0.3364  0.3981 -1.0592
    1MOL   C311  311   2.948   6.527   5.254 -0.1384 -0.4626 -0.1376
    1MOL   C312  312   3.048   6.426   5.188  0.1070 -0.2624  0.0902
    1MOL   C313  313   3.008   6.275   5.173  0.5030  0.0223  0.1120
    1MOL   C314  314   3.039   6.204   5.303  0.0542  0.2490  0.0260
    1MOL   O315  315   3.173   6.210   5.332  0.0248  0.2841  0.1846
    1MOL   H316  316   2.854   6.429   5.436  1.7297 -0.6191  0.4103
    1MOL   H317  317   3.015   6.441   5.448  0.2571  0.3279 -0.9948
    1MOL   H318  318   2.985   6.629   5.239  0.5821 -0.3891  1.9789
    1MOL   H319  319   2.853   6.535   5.200  1.0729  4.8328 -1.8630
    1MOL   H320  320   3.143   6.428   5.242  0.9372 -0.8774 -1.3218
    1MOL   H321  321   3.077   6.452   5.086 -0.5618 -2.4131 -0.6836
    1MOL   H322  322   3.056   6.227   5.088 -0.0737 -0.5259  0.0918
    1MOL   H323  323   2.901   6.273   5.152  0.6003 -2.9442 -0.2941
    1MOL   H324  324   2.975   6.249   5.379  2.3286  0.3363  1.9411
    1MOL   H325  325   3.002   6.102   5.287  0.0745  0.4811 -1.5122
    1MOL   C326  326   3.211   6.185   5.456 -0.6276 -0.3112  0.7975
    1MOL   O327  327   3.143   6.155   5.553  0.5429  0.2373  0.1743
    1MOL   C328  328   3.358   6.212   5.484 -0.4871 -0.3019 -0.1042
    1MOL   C329  329   3.406   6.352   5.445 -0.6040 -0.9469 -0.5725
    1MOL   C330  330   3.353   6.472   5.529 -0.2469  0.1988  0.4749
    1MOL   C331  331   3.405   6.603   5.466  0.0432  0.5972  0.0954
    1MOL   C332  332   3.329   6.731   5.499 -0.4119  0.3716  0.7944
    1MOL   O333  333   3.218   6.755   5.410  0.3558 -0.3476  0.6696
    1MOL   H334  334   3.414   6.128   5.444 -0.6456 -0.5008  0.0951
    1MOL   H335  335   3.367   6.206   5.592  1.4673  1.9430 -0.1067
    1MOL   H336  336   3.382   6.351   5.339  2.1866 -1.0273 -1.2253
    1MOL   H337  337   3.514   6.363   5.451 -0.5358 -1.6806 -0.3419
    1MOL   H338  338   3.389   6.472   5.632  2.0716  0.7185 -0.3050
    1MOL   H339  339   3.244   6.474   5.529 -0.2568  0.3433 -0.7464
    1MOL   H340  340   3.414   6.598   5.358 -0.1877  1.6668  0.0231
    1MOL   H341  341   3.503   6.606   5.514  0.3106 -0.2217 -0.3956
    1MOL   H342  342   3.278   6.698   5.589 -4.8785  2.2703 -0.8613
    1MOL   H343  343   3.384   6.825   5.503 -2.1184  1.4237  0.5533
    1MOL   C344  344   3.180   6.883   5.403 -0.2277 -0.1281  0.1434
    1MOL   O345  345   3.234   6.976   5.463  0.1417 -0.0051 -0.0786
    1MOL   C346  346   3.074   6.915   5.294  0.4478  0.0943 -0.1809
    1MOL   C347  347   3.133   6.892   5.153 -0.1152 -0.2186 -0.1767
    1MOL   C348  348   3.230   7.003   5.107  0.6681 -0.0193 -0.0438
    1MOL   C349  349   3.256   7.000   4.956  0.4338 -1.0582 -0.2404
    1MOL   C350  350   3.200   7.113   4.860  0.0853 -0.0542 -0.2522
    1MOL   O351  351   3.059   7.116   4.878  0.4581 -0.0646  0.1236
    1MOL   H352  352   3.034   7.016   5.298  1.8651  0.6198  0.9047
    1MOL   H353  353   2.990   6.847   5.313  0.3359  0.1255 -0.5534
    1MOL   H354  354   3.041   6.893   5.096 -1.4087 -1.0194  1.8420
    1MOL   H355  355   3.175   6.792   5.136  0.9779 -0.1308  1.8011
    1MOL   H356  356   3.320   6.999   5.170  0.5853 -2.2955 -0.0170
    1MOL   H357  357   3.190   7.099   5.139 -0.3110  0.4433 -2.5734
    1MOL   H358  358   3.218   6.910   4.907  3.9049 -1.4557 -2.3987
    1MOL   H359  359   3.362   6.988   4.931  0.1387 -1.8562 -1.1351
    1MOL   H360  360   3.243   7.210   4.884  0.9259 -0.4253 -0.2330
    1MOL   H361  361   3.236   7.098   4.758 -0.5241 -0.5395 -0.3964
    1MOL   H362  362   3.041   7.152   4.963 -0.0304  1.4674 -0.6022
    2MOL     C1  363   6.564   3.468   3.180 -0.6355 -0.0888  0.1522
    2MOL     O2  364   6.561   3.566   3.104  0.1172  0.2023  0.2617
    2MOL     C3  365   6.703   3.410   3.224 -0.1520 -0.0048  0.4781
    2MOL     C4  366   6.804   3.518   3.232  0.2573 -0.3681 -0.4885
    2MOL     C5  367   6.936   3.477   3.278 -0.5055 -0.0530  0.0679
    2MOL     C6  368   7.038   3.597   3.283 -0.4712 -0.2355  0.2987
    2MOL     C7  369   7.094   3.649   3.148 -0.2458 -0.4798 -0.9429
    2MOL     O8  370   7.197   3.740   3.178 -0.2981  0.2015 -0.3287
    2MOL     H9  371   6.738   3.346   3.143  0.8222  1.6129 -0.4163
    2MOL    H10  372   6.681   3.359   3.318 -2.6030 -2.5395 -1.3682
    2MOL    H11  373   6.774   3.584   3.314 -0.4288  0.4087 -1.3595
    2MOL    H12  374   6.807   3.581   3.143  1.4361 -0.8659 -0.8199
    2MOL    H13  375   6.982   3.417   3.200 -0.4768 -0.3930  0.3452
    2MOL    H14  376   6.924   3.424   3.372  3.0895  1.3440  1.4160
    2MOL    H15  377   7.120   3.557   3.342 -0.9482  0.3149  1.3508
    2MOL    H16  378   7.020   3.688   3.339 -2.4637 -0.6073  0.3042
    2MOL    H17  379   7.130   3.566   3.087  2.5212 -0.0723  0.0430
    2MOL    H18  380   7.011   3.700   3.100  0.2432  1.3506  0.1070
    2MOL    H19  381   6.481   3.416   3.226 -0.4059 -0.8429 -0.2735
    2MOL    C20  382   7.258   3.812   3.083  0.2998  0.1036  0.3716
    2MOL    O21  383   7.272   3.773   2.963  0.5347  0.3758 -0.1381
    2MOL    C22  384   7.330   3.932   3.139  0.0323 -0.2034  0.9941
    2MOL    C23  385   7.368   4.039   3.029 -0.1888 -0.0554  0.4081
    2MOL    C24  386   7.479   3.995   2.929 -0.4615  0.3679 -0.0124
    2MOL    C25  387   7.600   3.907   2.994 -0.1532  0.3344  0.1155
    2MOL    C26  388   7.707   3.872   2.882 -0.0068  0.3854  0.3224
    2MOL    O27  389   7.631   3.786   2.794 -0.3096 -0.1043  0.0898
    2MOL    H28  390   7.418   3.895   3.192  2.1227 -1.6359 -3.2306
    2MOL    H29  391   7.275   3.976   3.223 -1.4839  0.8528 -0.5142
    2MOL    H30  392   7.373   4.140   3.070 -1.5703  0.4290 -0.5562
    2MOL    H31  393   7.270   4.050   2.981 -0.2589  1.8900  0.9528
    2MOL    H32  394   7.517   4.089   2.887 -1.1469 -0.4530 -2.5408
    2MOL    H33  395   7.425   3.935   2.856 -3.1015 -0.6193  2.6662
    2MOL    H34  396   7.563   3.820   3.048  1.4669 -0.2062  0.3963
    2MOL    H35  397   7.640   3.965   3.078  2.3583  0.0401 -0.8197
    2MOL    H36  398   7.734   3.963   2.829 -0.9926 -0.0251 -0.9001
    2MOL    H37  399   7.792   3.821   2.926  0.0240  1.4163  1.5201
    2MOL    C38  400   7.606   3.654   2.808 -0.3742  0.2678 -0.2181
    2MOL    O39  401   7.659   3.592   2.902 -0.3053 -0.2094 -0.0195
    2MOL    C40  402   7.519   3.593   2.700  0.4543 -0.0955  0.0181
    2MOL    C41  403   7.589   3.472   2.632 -0.4296 -0.2149 -0.1317
    2MOL    C42  404   7.513   3.427   2.504  0.9273 -0.3652 -0.0064
    2MOL    C43  405   7.591   3.305   2.445 -0.7739 -0.3778  0.0022
    2MOL    C44  406   7.516   3.242   2.322 -0.7422 -0.4817 -0.0845
    2MOL    O45  407   7.428   3.150   2.379  0.5319 -0.2224 -0.1175
    2MOL    H46  408   7.497   3.668   2.624  0.0546 -2.0334 -1.8288
    2MOL    H47  409   7.421   3.574   2.745 -0.4233  2.4990 -0.6919
    2MOL    H48  410   7.589   3.386   2.700  1.8497 -2.1394 -2.4539
    2MOL    H49  411   7.692   3.491   2.604  0.5043  1.4797  4.0734
    2MOL    H50  412   7.510   3.500   2.423 -0.1810 -0.4998 -0.0941
    2MOL    H51  413   7.414   3.397   2.536  1.2703 -1.6907 -0.1681
    2MOL    H52  414   7.611   3.232   2.523 -2.6525 -0.1666  0.7053
    2MOL    H53  415   7.683   3.349   2.408 -0.6131  0.4288  1.3327
    2MOL    H54  416   7.478   3.315   2.251 -1.0964 -0.3563  0.2282
    2MOL    H55  417   7.588   3.185   2.264 -1.1084 -1.9977  0.9151
    2MOL    C56  418   7.362   3.064   2.302  0.3319 -0.1858  0.4132
    2MOL    O57  419   7.348   3.057   2.185  0.4969  0.5150 -0.0740
    2MOL    C58  420   7.275   2.971   2.392  0.0431  0.4974  0.1549
    2MOL    C59  421   7.130   2.959   2.343 -0.5181 -0.3727  0.1131
    2MOL    C60  422   7.112   2.880   2.212 -0.2867 -0.1879  0.0986
    2MOL    C61  423   6.967   2.851   2.185  0.3844  0.2397  1.1578
    2MOL    C62  424   6.945   2.799   2.045 -0.0429  0.6473 -0.1526
    2MOL    O63  425   6.813   2.762   2.006  0.0749  0.2867  0.9994
    2MOL    H64  426   7.266   3.009   2.494  0.2508 -2.5452  1.3499
    2MOL    H65  427   7.317   2.871   2.401 -2.6447 -0.5666  1.4920
    2MOL    H66  428   7.098   3.061   2.327  0.3429 -0.1305 -0.0881
    2MOL    H67  429   7.067   2.910   2.418  2.0052  0.6271  3.0022
    2MOL    H68  430   7.175   2.793   2.232  0.4496  0.6422  1.4728
    2MOL    H69  431   7.144   2.932   2.122 -1.5209  0.6852  0.1438
    2MOL    H70  432   6.904   2.939   2.198 -0.0764  0.2848 -1.2011
    2MOL    H71  433   6.933   2.776   2.257 -4.6786 -0.4922 -1.7813
    2MOL    H72  434   6.977   2.878   1.977  2.0875  0.6901  0.8629
    2MOL    H73  435   7.015   2.719   2.020 -1.0015 -0.4759  0.7180
    2MOL    C74  436   6.727   2.864   1.988 -0.6198 -0.2147  0.4903
    2MOL    O75  437   6.756   2.984   1.990 -0.5378  0.6344 -0.9421
    2MOL    C76  438   6.582   2.820   1.961  0.1803 -0.3471 -0.3339
    2MOL    C77  439   6.475   2.922   1.923  0.2185 -0.1684  0.1998
    2MOL    C78  440   6.338   2.863   1.887  0.6847  0.3860 -0.4663
    2MOL    C79  441   6.255   2.824   2.011  0.1791 -0.6207 -0.0737
    2MOL    C80  442   6.139   2.736   1.967  0.2833  0.1098  0.2371
    2MOL    O81  443   6.073   2.721   2.089  0.0486 -0.2621 -0.5119
    2MOL    H82  444   6.542   2.772   2.050  3.0366 -0.0101  1.1929
    2MOL    H83  445   6.595   2.757   1.873 -0.0492 -1.1885  0.2328
    2MOL    H84  446   6.522   2.966   1.835 -0.7635  1.2542  0.3705
    2MOL    H85  447   6.477   2.998   2.001  0.9970 -1.1357  1.1344
    2MOL    H86  448   6.345   2.784   1.812  0.8224 -0.6287  0.5997
    2MOL    H87  449   6.293   2.946   1.833  0.1181 -0.3670 -1.1744
    2MOL    H88  450   6.225   2.909   2.072 -1.4163 -1.6728  0.6746
    2MOL    H89  451   6.309   2.765   2.085 -1.4602  1.0587  2.5760
    2MOL    H90  452   6.074   2.791   1.898  0.5516 -0.0848 -0.1704
    2MOL    H91  453   6.174   2.643   1.923 -0.9869 -1.3406  2.2000
    2MOL    C92  454   5.947   2.690   2.099 -0.1563 -0.7736  0.7152
    2MOL    O93  455   5.882   2.651   2.000  0.0539  0.1382  0.1515
    2MOL    C94  456   5.893   2.690   2.240 -0.1920  0.0080  0.6765
    2MOL    C95  457   5.802   2.814   2.271 -0.3692  0.4226  0.5461
    2MOL    C96  458   5.785   2.856   2.423  0.3354 -0.4783  0.0374
    2MOL    C97  459   5.749   2.740   2.526 -0.0110  0.1104  0.3183
    2MOL    C98  460   5.730   2.767   2.678  0.0634  0.5825 -0.5283
    2MOL    O99  461   5.635   2.866   2.680  0.2318 -0.0208  0.0716
    2MOL   H100  462   5.978   2.708   2.305 -0.8366  0.1156  1.5046
    2MOL   H101  463   5.852   2.591   2.259 -1.6741  0.2689 -0.9564
    2MOL   H102  464   5.703   2.812   2.227 -0.4381 -0.3647  0.7396
    2MOL   H103  465   5.846   2.897   2.216  2.2176 -0.0750  1.7595
    2MOL   H104  466   5.714   2.938   2.420  1.7726  0.7723 -0.2864
    2MOL   H105  467   5.882   2.895   2.453  0.6466 -1.5299  0.4543
    2MOL   H106  468   5.832   2.670   2.518  0.6306  1.0708 -1.5123
    2MOL   H107  469   5.660   2.684   2.494  2.2687 -2.2799 -2.1155
    2MOL   H108  470   5.685   2.678   2.721  1.4859  1.1725  2.3061
    2MOL   H109  471   5.822   2.784   2.735  0.1174 -0.5772 -0.2558
    2MOL   C110  472   5.542   2.869   2.779  0.0262 -0.2785 -0.2111
    2MOL   O111  473   5.532   2.785   2.861 -0.3253  0.2725 -0.2525
    2MOL   C112  474   5.447   2.993   2.778 -0.2474  0.1139 -0.3390
    2MOL   C113  475   5.508   3.128   2.811 -0.4489  0.3874  0.7317
    2MOL   C114  476   5.563   3.142   2.949  1.0740 -0.2095 -0.0958
    2MOL   C115  477   5.644   3.273   2.966  0.4291 -0.6597 -0.1486
    2MOL   C116  478   5.687   3.304   3.110 -0.0426 -0.9104 -0.1006
    2MOL   O117  479   5.761   3.203   3.172  0.1200  0.6459  0.4586
    2MOL   H118  480   5.377   2.959   2.854 -1.9406 -0.8056 -2.2894
    2MOL   H119  481   5.393   2.999   2.684 -0.2519  0.5675 -0.3124
    2MOL   H120  482   5.438   3.210   2.798 -1.6819 -0.6416  0.8235
    2MOL   H121  483   5.585   3.138   2.735 -1.2078 -0.9216 -0.2354
    2MOL   H122  484   5.619   3.049   2.956 -2.9462 -2.6941  0.3971
    2MOL   H123  485   5.487   3.128   3.025 -0.6598 -2.1821 -2.1480
    2MOL   H124  486   5.587   3.358   2.929  1.7404 -0.1992 -1.1582
    2MOL   H125  487   5.728   3.266   2.896  0.3656 -1.8417 -0.1223
    2MOL   H126  488   5.759   3.386   3.106  0.9716 -1.5371  3.6709
    2MOL   H127  489   5.595   3.340   3.157  0.7395  1.0532 -0.0086
    2MOL   C128  490   5.830   3.243   3.289  0.1911  0.2443  0.3012
    2MOL   O129  491   5.821   3.360   3.333  0.2828  0.0904 -0.4664
    2MOL   C130  492   5.940   3.150   3.344  0.3572  0.2795  0.3894
    2MOL   C131  493   6.083   3.195   3.312 -0.4803 -0.0121 -0.7167
    2MOL   C132  494   6.109   3.232   3.166 -0.8988  0.4226 -0.4592
    2MOL   C133  495   6.257   3.251   3.122  0.7127  0.1475  0.3050
    2MOL   C134  496   6.278   3.323   2.990 -0.4496 -0.1687  0.0444
    2MOL   O135  497   6.212   3.249   2.886  0.0475  0.6655 -0.4079
    2MOL   H136  498   5.928   3.052   3.297  3.0641  0.3202 -0.4860
    2MOL   H137  499   5.926   3.135   3.451  2.6386 -0.3399  0.6328
    2MOL   H138  500   6.156   3.121   3.344 -0.5217 -0.6186 -2.0149
    2MOL   H139  501   6.105   3.288   3.364 -1.0381  0.6790 -1.6973
    2MOL   H140  502   6.049   3.324   3.162 -2.2939 -0.4496 -0.0688
    2MOL   H141  503   6.065   3.156   3.101  2.1461 -0.9093 -1.0203
    2MOL   H142  504   6.308   3.154   3.117  2.5060  1.0970 -0.2908
    2MOL   H143  505   6.306   3.318   3.192 -0.1914  1.8874 -0.6994
    2MOL   H144  506   6.236   3.422   3.009  0.5524  0.0191  1.3400
    2MOL   H145  507   6.384   3.333   2.971 -0.4626 -0.6595 -0.3015
    2MOL   C146  508   6.139   3.313   2.791  0.1977  0.0193 -0.2195
    2MOL   O147  509   6.116   3.432   2.790  0.2089  0.9727 -0.0607
    2MOL   C148  510   6.093   3.223   2.683  0.0843  0.2702 -0.2077
    2MOL   C149  511   5.952   3.174   2.711  0.9292  0.3174 -0.6019
    2MOL   C150  512   5.942   3.082   2.833  0.5214  0.0044 -0.2469
    2MOL   C151  513   6.033   2.957   2.836 -0.3585  0.0611 -0.1325
    2MOL   C152  514   6.016   2.866   2.966  0.1994 -0.4476 -0.0457
    2MOL   O153  515   5.875   2.826   2.982  0.2149  0.7640 -0.5354
    2MOL   H154  516   6.170   3.147   2.667  1.0922  1.5448 -1.6304
    2MOL   H155  517   6.105   3.286   2.595 -1.7012  0.6867 -0.1629
    2MOL   H156  518   5.909   3.124   2.624 -2.3170  0.7985  0.6558
    2MOL   H157  519   5.887   3.260   2.727 -1.0312 -1.0770 -1.0162
    2MOL   H158  520   5.835   3.065   2.841  0.3378  1.1326 -0.3605
    2MOL   H159  521   5.958   3.146   2.919 -0.9233  0.1110 -0.0452
    2MOL   H160  522   6.137   2.990   2.833 -0.4860  0.4333 -0.5782
    2MOL   H161  523   6.010   2.892   2.751  1.9550 -1.6594  0.5013
    2MOL   H162  524   6.085   2.782   2.969  0.7665 -0.0562 -1.7801
    2MOL   H163  525   6.042   2.929   3.051  2.8628  0.2902 -1.3577
    2MOL   C164  526   5.831   2.800   3.103  0.2210 -0.2376 -0.0549
    2MOL   O165  527   5.898   2.795   3.203  0.2902  0.0895 -0.0534
    2MOL   C166  528   5.677   2.782   3.116  0.5196  0.1866 -0.0890
    2MOL   C167  529   5.636   2.742   3.257 -0.0951  0.2906 -0.3415
    2MOL   C168  530   5.643   2.862   3.354 -0.0710 -0.3111 -0.4638
    2MOL   C169  531   5.636   2.839   3.507  0.4743 -0.0953  0.0756
    2MOL   C170  532   5.645   2.965   3.595 -0.3154  0.0007 -0.1596
    2MOL   O171  533   5.539   3.049   3.552  0.6137  0.2844  0.0922
    2MOL   H172  534   5.646   2.705   3.045  0.3288 -1.0435  1.2961
    2MOL   H173  535   5.627   2.875   3.089  0.9522  1.0152  1.8999
    2MOL   H174  536   5.701   2.661   3.291 -0.1336  0.3189 -0.2008
    2MOL   H175  537   5.534   2.703   3.254  0.3883 -1.3066  1.8947
    2MOL   H176  538   5.556   2.922   3.330  0.6817 -0.2244 -3.1216
    2MOL   H177  539   5.735   2.915   3.331  0.4728 -1.5040 -1.1089
    2MOL   H178  540   5.720   2.775   3.536  0.2742 -0.1064  0.6405
    2MOL   H179  541   5.546   2.787   3.538  0.9811 -0.5640  0.7810
    2MOL   H180  542   5.641   2.947   3.702 -1.8822  0.6169 -0.1003
    2MOL   H181  543   5.738   3.019   3.574 -0.4289  0.4799  0.5814
    2MOL   C182  544   5.478   3.131   3.640  0.0080  0.2336  0.4153
    2MOL   O183  545   5.488   3.137   3.764 -0.0686  0.4141 -0.1417
    2MOL   C184  546   5.369   3.220   3.573 -0.6940 -0.7546 -0.3841
    2MOL   C185  547   5.393   3.257   3.431  0.5608  0.3781  0.3640
    2MOL   C186  548   5.280   3.347   3.371 -0.0606  0.4012 -0.0985
    2MOL   C187  549   5.304   3.384   3.222  0.4050 -0.1481 -0.1695
    2MOL   C188  550   5.193   3.461   3.142 -0.4182  0.4160  0.7016
    2MOL   O189  551   5.244   3.510   3.013 -0.0220 -0.0816 -0.4497
    2MOL   H190  552   5.353   3.309   3.634  0.9632  1.2659 -2.8115
    2MOL   H191  553   5.283   3.154   3.586 -0.2361 -1.3913 -0.5596
    2MOL   H192  554   5.386   3.167   3.371  0.6334 -0.0289  0.9653
    2MOL   H193  555   5.490   3.303   3.412 -0.3110  2.2962  0.4153
    2MOL   H194  556   5.269   3.439   3.428 -0.7890 -1.3422  2.7522
    2MOL   H195  557   5.185   3.293   3.373  0.2034 -0.1794 -2.0173
    2MOL   H196  558   5.338   3.304   3.157  1.1301  1.4038 -1.7487
    2MOL   H197  559   5.386   3.455   3.217  1.0382 -0.8739 -0.1389
    2MOL   H198  560   5.108   3.394   3.131  0.0474 -0.0860  0.0417
    2MOL   H199  561   5.156   3.542   3.204  0.3635  1.4217 -0.1255
    2MOL   C200  562   5.234   3.443   2.901  0.0672  0.6401 -0.2823
    2MOL   O201  563   5.198   3.330   2.878 -0.0341 -0.0498 -0.6665
    2MOL   C202  564   5.268   3.523   2.774 -0.6810 -0.7791 -0.4932
    2MOL   C203  565   5.415   3.573   2.765  0.6015 -0.9244 -0.1212
    2MOL   C204  566   5.429   3.717   2.834  0.0119 -0.1186 -0.2115
    2MOL   C205  567   5.572   3.768   2.826 -0.9033  0.0667  0.3522
    2MOL   C206  568   5.607   3.827   2.693  0.4191 -0.4136  0.5241
    2MOL   O207  569   5.541   3.952   2.679  0.1932 -0.1944 -0.2797
    2MOL   H208  570   5.204   3.611   2.772 -1.1697 -1.0585  1.5321
    2MOL   H209  571   5.242   3.468   2.683 -1.1950 -0.9521 -0.2438
    2MOL   H210  572   5.430   3.595   2.659  0.1632 -1.3002 -0.2609
    2MOL   H211  573   5.482   3.496   2.803  0.5796 -1.5276 -1.2800
    2MOL   H212  574   5.402   3.713   2.940  1.3924  1.5836  0.2355
    2MOL   H213  575   5.359   3.788   2.790 -1.0133 -0.7565  0.3708
    2MOL   H214  576   5.648   3.691   2.842 -1.8220 -0.8639  0.3102
    2MOL   H215  577   5.593   3.842   2.903  0.8821 -0.8942  0.8147
    2MOL   H216  578   5.714   3.849   2.697  0.5067 -0.8408  0.6328
    2MOL   H217  579   5.596   3.763   2.605  1.4838  0.4480 -0.2506
    2MOL   C218  580   5.602   4.067   2.723  0.1034  0.4157  1.0003
    2MOL   O219  581   5.698   4.072   2.800 -0.4638 -0.0835 -0.2628
    2MOL   C220  582   5.542   4.194   2.664  0.0119  0.3970 -0.5224
    2MOL   C221  583   5.642   4.314   2.637  0.2001 -0.0072 -0.0434
    2MOL   C222  584   5.570   4.449   2.625  0.2647  0.8312  0.3808
    2MOL   C223  585   5.667   4.570   2.597  0.1933  0.2580  0.1579
    2MOL   C224  586   5.584   4.691   2.556  0.7202 -0.1201 -0.4213
    2MOL   O225  587   5.662   4.806   2.513  0.3002  0.1058 -0.4179
    2MOL   H226  588   5.479   4.237   2.743  2.9380  1.2768  1.4042
    2MOL   H227  589   5.471   4.177   2.582 -1.8289 -0.9642  1.2909
    2MOL   H228  590   5.699   4.288   2.547  0.0404 -1.6118  0.2897
    2MOL   H229  591   5.720   4.301   2.712  0.1350  1.7345  0.3367
    2MOL   H230  592   5.524   4.464   2.723 -0.2299  3.1400 -0.1653
    2MOL   H231  593   5.487   4.449   2.555 -0.6239 -0.1149  1.4135
    2MOL   H232  594   5.738   4.542   2.520  0.6009 -0.1887  0.6915
    2MOL   H233  595   5.734   4.584   2.682 -2.1516 -1.2771  2.3287
    2MOL   H234  596   5.513   4.674   2.475  0.5098 -0.6905 -0.1160
    2MOL   H235  597   5.530   4.721   2.646 -1.3150 -2.3234 -0.8808
    2MOL   C236  598   5.722   4.807   2.398  0.2063 -0.9406 -0.6551
    2MOL   O237  599   5.725   4.706   2.319  0.0180 -0.3436 -0.1934
    2MOL   C238  600   5.798   4.937   2.372 -1.3276 -1.1303 -0.5837
    2MOL   C239  601   5.930   4.941   2.458  0.2698 -0.0931 -0.4904
    2MOL   C240  602   6.025   4.820   2.428 -0.5191  0.7400  0.0265
    2MOL   C241  603   6.138   4.810   2.533 -0.7848 -0.1648 -0.4602
    2MOL   C242  604   6.260   4.896   2.505  0.4828 -0.2349 -0.0997
    2MOL   O243  605   6.351   4.873   2.613  0.0907  0.0387 -0.2850
    2MOL   H244  606   5.747   5.030   2.398  0.7145 -0.2584  0.4438
    2MOL   H245  607   5.832   4.938   2.269  1.9933  0.0697  0.4531
    2MOL   H246  608   5.914   4.933   2.566  0.7829 -1.8116 -0.5147
    2MOL   H247  609   5.984   5.035   2.457  1.1472 -0.5497  1.6131
    2MOL   H248  610   6.069   4.834   2.330 -1.0883 -2.5755 -0.7696
    2MOL   H249  611   5.970   4.727   2.415 -0.1068  0.5607 -0.4226
    2MOL   H250  612   6.174   4.708   2.518 -0.6768 -0.6117  2.5164
    2MOL   H251  613   6.091   4.813   2.631  2.0224 -1.6352  0.9966
    2MOL   H252  614   6.306   4.870   2.409  2.0878  0.0852  0.5603
    2MOL   H253  615   6.219   4.996   2.495 -0.0485 -0.4566 -0.1828
    2MOL   C254  616   6.376   4.961   2.704 -0.0644  0.3126  0.2832
    2MOL   O255  617   6.324   5.072   2.725  0.1847  0.9070 -0.3115
    2MOL   C256  618   6.477   4.901   2.806  0.2580 -0.9700  0.7919
    2MOL   C257  619   6.412   4.794   2.898  0.6495  0.6836  0.0439
    2MOL   C258  620   6.398   4.662   2.819 -0.0039 -0.0425 -0.0408
    2MOL   C259  621   6.407   4.535   2.912  0.5310 -0.8666  0.4743
    2MOL   C260  622   6.327   4.527   3.038 -0.0029 -0.3694 -0.2163
    2MOL   O261  623   6.313   4.405   3.104  0.2430 -0.2884 -0.0999
    2MOL   H262  624   6.519   4.984   2.863 -1.5824  0.5829 -0.0188
    2MOL   H263  625   6.568   4.862   2.761  0.3435  0.6462 -0.5082
    2MOL   H264  626   6.314   4.830   2.928  0.0083 -2.1638  1.5498
    2MOL   H265  627   6.459   4.778   2.995  1.7399  0.1946 -0.5626
    2MOL   H266  628   6.468   4.658   2.735 -2.3177 -0.6602 -2.0165
    2MOL   H267  629   6.307   4.671   2.760  0.2244  1.9947 -0.1144
    2MOL   H268  630   6.509   4.525   2.947  1.4866  1.4756 -1.5352
    2MOL   H269  631   6.391   4.441   2.859  2.1262 -1.3910  0.9192
    2MOL   H270  632   6.379   4.595   3.105 -1.6326 -0.6837  1.3981
    2MOL   H271  633   6.226   4.568   3.032 -0.2324 -1.0774 -1.4949
    2MOL   C272  634   6.204   4.388   3.185  0.4326 -0.7828  0.8921
    2MOL   O273  635   6.112   4.461   3.203 -0.0897 -0.5139  0.3350
    2MOL   C274  636   6.204   4.261   3.271  0.4411  0.6059 -0.0499
    2MOL   C275  637   6.176   4.291   3.424  0.5534  0.2930  0.8753
    2MOL   C276  638   6.181   4.168   3.514 -0.0077  0.6271  0.7711
    2MOL   C277  639   6.055   4.080   3.498 -0.0828 -0.6069 -0.0926
    2MOL   C278  640   6.040   3.966   3.596  0.1929  0.1678  0.3223
    2MOL   O279  641   6.120   3.860   3.559  0.8898 -0.8748 -0.3134
    2MOL   H280  642   6.307   4.231   3.252  0.2046  0.1487 -0.6355
    2MOL   H281  643   6.130   4.195   3.226  1.2871 -1.8540  2.0759
    2MOL   H282  644   6.083   4.346   3.436  1.0343  1.3267 -0.0216
    2MOL   H283  645   6.251   4.365   3.454 -2.6728  3.3864  1.6385
    2MOL   H284  646   6.196   4.198   3.618  2.7246  0.5975  0.4172
    2MOL   H285  647   6.275   4.117   3.497 -0.3649 -0.2181  1.3060
    2MOL   H286  648   6.047   4.036   3.398  0.3124  0.7695 -0.7409
    2MOL   H287  649   5.960   4.134   3.498 -0.2631 -0.8435 -3.0406
    2MOL   H288  650   6.055   3.990   3.701  0.0351 -0.5966  0.5192
    2MOL   H289  651   5.940   3.922   3.604 -0.7883  2.6167  2.5542
    2MOL   C290  652   6.083   3.763   3.467  0.0143  0.6793 -0.9005
    2MOL   O291  653   5.973   3.752   3.416  0.2065 -0.4213 -0.1945
    2MOL   C292  654   6.190   3.662   3.434 -0.1880  0.4509 -0.2708
    2MOL   C293  655   6.321   3.723   3.397  0.0799  0.6612  0.5573
    2MOL   C294  656   6.314   3.828   3.293  0.4283  0.2822  0.2005
    2MOL   C295  657   6.455   3.874   3.262 -0.1766 -0.6242  0.6508
    2MOL   C296  658   6.477   3.953   3.132  0.0987 -0.4750 -0.2874
    2MOL   O297  659   6.483   3.862   3.023 -0.0898  0.1595 -0.0001
    2MOL   H298  660   6.157   3.618   3.340  1.1109  0.1320 -0.5881
    2MOL   H299  661   6.200   3.579   3.504 -2.3294  0.0282 -0.4431
    2MOL   H300  662   6.391   3.643   3.375 -0.1316  0.8983 -1.0544
    2MOL   H301  663   6.351   3.776   3.487 -2.6348  4.5340 -0.6782
    2MOL   H302  664   6.242   3.907   3.316  0.0974  0.4340 -1.2817
    2MOL   H303  665   6.278   3.774   3.205  0.1621 -0.3155  0.6773
    2MOL   H304  666   6.514   3.784   3.247 -1.8024 -1.9517  1.9332
    2MOL   H305  667   6.499   3.922   3.350  1.1945 -1.3910  0.3869
    2MOL   H306  668   6.384   4.009   3.123 -1.0751 -2.3350  0.0730
    2MOL   H307  669   6.562   4.021   3.123  0.1046 -0.4251  0.1458
    2MOL   C308  670   6.432   3.901   2.905 -0.1793  0.6463 -0.2105
    2MOL   O309  671   6.377   4.007   2.877  0.0641 -0.3325 -0.4998
    2MOL   C310  672   6.451   3.787   2.799 -0.3954 -0.0307  0.3168
    2MOL   C311  673   6.344   3.800   2.687 -0.0037 -0.3509 -0.5536
    2MOL   C312  674   6.365   3.915   2.579 -0.0424  0.1705 -0.7517
    2MOL   C313  675   6.243   3.935   2.498 -0.7740 -0.1760 -0.0811
    2MOL   C314  676   6.248   4.053   2.397  0.3075 -0.6969 -0.0547
    2MOL   O315  677   6.367   4.049   2.324  0.1517  0.3328 -0.2832
    2MOL   H316  678   6.430   3.693   2.850 -0.0914 -1.0601 -1.4027
    2MOL   H317  679   6.553   3.792   2.761 -0.3209 -1.3001  0.3430
    2MOL   H318  680   6.241   3.816   2.718  0.0924 -1.7080  0.5613
    2MOL   H319  681   6.325   3.701   2.644  0.2954 -0.4146 -0.5400
    2MOL   H320  682   6.446   3.892   2.510 -0.7682 -1.1228 -1.2081
    2MOL   H321  683   6.386   4.009   2.629  1.6854 -0.1387 -0.8834
    2MOL   H322  684   6.157   3.957   2.562  0.8372  0.1233  2.0350
    2MOL   H323  685   6.211   3.840   2.455 -0.1120 -1.4726  2.2333
    2MOL   H324  686   6.155   4.052   2.339 -1.3577  2.2577  2.3530
    2MOL   H325  687   6.240   4.148   2.450  0.2321 -0.0963 -1.1391
    2MOL   C326  688   6.369   4.003   2.201 -0.6121 -0.2096 -0.3466
    2MOL   O327  689   6.274   3.967   2.133  0.0607  0.1424  0.7189
    2MOL   C328  690   6.512   4.009   2.146 -0.1777 -0.4245 -1.2078
    2MOL   C329  691   6.624   3.931   2.229 -0.1493 -0.4488  0.2619
    2MOL   C330  692   6.609   3.774   2.241  0.3244  0.0693  0.3269
    2MOL   C331  693   6.718   3.692   2.310  0.2042  0.4580 -0.6606
    2MOL   C332  694   6.731   3.736   2.460 -0.1247 -0.0420 -0.1288
    2MOL   O333  695   6.809   3.647   2.538  0.7498 -0.3794  0.2764
    2MOL   H334  696   6.533   4.115   2.134 -0.8001  0.1820  2.6594
    2MOL   H335  697   6.512   3.966   2.045 -1.0976 -0.1136 -1.3458
    2MOL   H336  698   6.628   3.968   2.332 -1.1492 -0.4199  0.2986
    2MOL   H337  699   6.719   3.948   2.178  0.1148 -2.2229  0.1307
    2MOL   H338  700   6.592   3.731   2.142 -0.3373 -1.6772  1.1660
    2MOL   H339  701   6.512   3.762   2.290  0.3151 -2.2999 -0.2033
    2MOL   H340  702   6.819   3.715   2.276  0.2894  0.2688 -0.5406
    2MOL   H341  703   6.691   3.588   2.289  0.1119  0.3828 -0.1763
    2MOL   H342  704   6.770   3.838   2.469  1.4248 -0.6677  0.3693
    2MOL   H343  705   6.635   3.740   2.510 -0.0952  0.5746 -0.1106
    2MOL   C344  706   6.837   3.667   2.670 -0.7391 -0.4021 -0.6516
    2MOL   O345  707   6.817   3.774   2.736 -0.2936  0.3732  0.0467
    2MOL   C346  708   6.908   3.550   2.739 -0.7728 -0.4888 -0.6802
    2MOL   C347  709   6.811   3.498   2.849 -0.2713  0.1415 -0.1533
    2MOL   C348  710   6.678   3.440   2.806 -0.7248 -0.0010  0.2368
    2MOL   C349  711   6.669   3.340   2.694 -0.6565  0.2665 -0.2234
    2MOL   C350  712   6.517   3.320   2.654  0.0041 -0.0913 -0.3667
    2MOL   O351  713   6.458   3.431   2.601 -0.3336 -0.2075 -0.4327
    2MOL   H352  714   7.011   3.575   2.764 -1.2365 -0.3265  1.1173
    2MOL   H353  715   6.925   3.465   2.673  0.1169 -0.5468 -0.3851
    2MOL   H354  716   6.789   3.576   2.922 -0.1230  0.0319  0.0091
    2MOL   H355  717   6.862   3.423   2.910 -0.6740 -1.1832 -1.4118
    2MOL   H356  718   6.616   3.524   2.775 -3.8388 -2.0417  0.7194
    2MOL   H357  719   6.633   3.396   2.895  1.2168 -0.9761  0.7621
    2MOL   H358  720   6.712   3.247   2.731 -1.1301  0.1935  0.1536
    2MOL   H359  721   6.729   3.369   2.607 -2.2390  0.3097 -1.3185
    2MOL   H360  722   6.514   3.240   2.579 -0.9321  0.5892 -1.0579
    2MOL   H361  723   6.469   3.278   2.742  1.6038 -1.6308 -0.1902
    2MOL   H362  724   6.405   3.468   2.670 -0.7887  1.4708 -1.6283
    3MOL     C1  725   7.309   5.704   2.281  0.0949 -0.3606 -0.2811
    3MOL     O2  726   7.288   5.694   2.402 -0.4330 -0.3075 -0.4316
    3MOL     C3  727   7.234   5.611   2.177  0.1999 -0.1622 -0.4865
    3MOL     C4  728   7.190   5.466   2.224  0.3676 -0.6931  0.3432
    3MOL     C5  729   7.084   5.443   2.325 -0.5020  0.5553  0.8240
    3MOL     C6  730   7.024   5.301   2.335  0.0326  0.1369 -0.2044
    3MOL     C7  731   7.119   5.203   2.401  0.4008 -0.0003  0.5569
    3MOL     O8  732   7.135   5.237   2.536  0.3573 -0.3002  0.1682
    3MOL     H9  733   7.313   5.609   2.102  0.1080  2.0065 -0.6905
    3MOL    H10  734   7.151   5.658   2.124  0.5068 -0.5364 -1.3014
    3MOL    H11  735   7.277   5.402   2.239  0.0355 -1.3554 -0.4802
    3MOL    H12  736   7.149   5.426   2.131  1.3249 -2.5342  0.6867
    3MOL    H13  737   7.011   5.516   2.288  0.5395  0.9221 -0.5700
    3MOL    H14  738   7.111   5.482   2.423 -0.6339 -0.8526  1.4200
    3MOL    H15  739   6.997   5.262   2.237 -0.6448  0.6606 -0.2325
    3MOL    H16  740   6.940   5.302   2.404  1.9800  0.8315  2.2682
    3MOL    H17  741   7.083   5.100   2.409 -0.9556  0.4458  0.4318
    3MOL    H18  742   7.208   5.191   2.340  1.7023  2.6520  1.8334
    3MOL    H19  743   7.394   5.763   2.246 -0.1703  0.9538  1.2466
    3MOL    C20  744   7.224   5.176   2.612  0.4026  0.1748  0.2480
    3MOL    O21  745   7.300   5.088   2.575  0.4340 -0.0170  0.9700
    3MOL    C22  746   7.230   5.234   2.755 -0.4535 -0.7010  0.6261
    3MOL    C23  747   7.364   5.208   2.830  0.3009  0.7185 -0.1781
    3MOL    C24  748   7.377   5.284   2.964  0.0634  0.1083 -1.1512
    3MOL    C25  749   7.501   5.248   3.058  0.2229  0.6370 -0.2621
    3MOL    C26  750   7.488   5.290   3.205  0.0840  0.9230 -0.1056
    3MOL    O27  751   7.605   5.258   3.277 -0.2173  0.5592 -0.5701
    3MOL    H28  752   7.139   5.207   2.810 -1.3461 -1.3045 -1.1238
    3MOL    H29  753   7.222   5.340   2.735  0.0935 -0.9437 -0.9350
    3MOL    H30  754   7.449   5.229   2.765  1.4203  0.3226  1.1284
    3MOL    H31  755   7.367   5.100   2.847 -1.0044  0.8932  1.3341
    3MOL    H32  756   7.294   5.258   3.030  1.1475 -0.4111  0.0174
    3MOL    H33  757   7.371   5.392   2.949 -1.3232  0.2983  0.5304
    3MOL    H34  758   7.592   5.284   3.008 -0.3654 -1.1064 -2.6818
    3MOL    H35  759   7.517   5.140   3.058 -0.9636  0.4550 -1.1930
    3MOL    H36  760   7.473   5.398   3.212  0.1429  0.8828  0.6314
    3MOL    H37  761   7.396   5.249   3.247  1.1273 -1.1059  0.2357
    3MOL    C38  762   7.598   5.276   3.414  0.4214 -0.1364  0.2197
    3MOL    O39  763   7.499   5.318   3.476  0.0176  0.3188  0.2708
    3MOL    C40  764   7.720   5.242   3.491 -0.3098  0.0166 -0.5538
    3MOL    C41  765   7.728   5.088   3.506 -0.8438 -0.5908 -0.7634
    3MOL    C42  766   7.831   5.038   3.618 -0.4382  0.1498  0.2040
    3MOL    C43  767   7.834   4.887   3.633 -0.3873 -0.1782  0.5207
    3MOL    C44  768   0.097   4.831   3.724  0.3133  0.0502  0.0762
    3MOL    O45  769   0.053   4.833   3.857  0.4509  0.4395 -0.2966
    3MOL    H46  770   7.714   5.288   3.590 -1.3314  0.1687 -0.6817
    3MOL    H47  771   7.800   5.277   3.426  0.6008 -1.3805 -0.1912
    3MOL    H48  772   7.772   5.053   3.412  0.1262 -0.4084 -0.3880
    3MOL    H49  773   7.632   5.040   3.522 -0.4027 -1.1330  0.2670
    3MOL    H50  774   7.797   5.077   3.713  0.5014 -1.0762  1.0580
    3MOL    H51  775   0.087   5.076   3.600  0.7249 -2.8587 -0.0303
    3MOL    H52  776   0.012   4.844   3.535  0.3280  0.3201  0.4629
    3MOL    H53  777   7.733   4.853   3.655  0.7131 -2.1438  2.7070
    3MOL    H54  778   0.126   4.729   3.702 -0.1826  0.0070 -0.4134
    3MOL    H55  779   0.192   4.883   3.713  0.3969 -0.0525  0.3181
    3MOL    C56  780   0.131   4.780   3.952  0.7239 -0.3702 -0.6495
    3MOL    O57  781   0.238   4.723   3.938  0.3261 -0.0978 -0.0386
    3MOL    C58  782   0.063   4.793   4.096  0.0644 -0.3864 -0.1145
    3MOL    C59  783   7.772   4.715   4.106 -0.2821  0.7280 -0.1375
    3MOL    C60  784   7.781   4.566   4.060  0.1893  0.1282 -0.5088
    3MOL    C61  785   7.671   4.482   4.119 -0.1816 -0.9802 -0.1897
    3MOL    C62  786   7.657   4.345   4.052 -0.4051 -0.5963  0.3392
    3MOL    O63  787   7.774   4.263   4.083 -0.6078 -0.6823 -0.9396
    3MOL    H64  788   0.025   4.896   4.097  2.2986  0.4879 -1.2501
    3MOL    H65  789   0.125   4.779   4.185  0.1171 -1.1594 -0.2777
    3MOL    H66  790   7.694   4.756   4.042 -0.8761 -1.2141 -0.6855
    3MOL    H67  791   7.743   4.733   4.209  1.3601 -0.2611  0.5336
    3MOL    H68  792   0.033   4.535   4.100 -1.2148 -3.4192  0.2641
    3MOL    H69  793   7.779   4.557   3.951 -2.1684  1.4970 -0.6072
    3MOL    H70  794   7.573   4.529   4.120  1.8123  3.3992  0.4944
    3MOL    H71  795   7.705   4.465   4.221  1.4696  1.7991 -0.2189
    3MOL    H72  796   7.572   4.304   4.106 -2.6183  4.3279  0.8951
    3MOL    H73  797   7.642   4.354   3.944 -0.4171 -0.2634  0.3684
    3MOL    C74  798   7.786   4.189   4.193 -0.8603  0.0596  0.5557
    3MOL    O75  799   7.704   4.178   4.281  0.0437 -0.0149 -0.0595
    3MOL    C76  800   0.085   4.140   4.203 -0.2846 -0.2768 -0.1960
    3MOL    C77  801   0.100   4.032   4.092  0.6417  0.0767  0.8570
    3MOL    C78  802   0.243   3.979   4.056  0.3139 -0.1021 -0.7915
    3MOL    C79  803   0.319   3.914   4.181  0.1098  0.0983 -0.0161
    3MOL    C80  804   0.461   3.866   4.140  0.1454  0.1877 -0.5855
    3MOL    O81  805   0.540   3.825   4.245  0.0451 -0.0505 -0.0062
    3MOL    H82  806   0.112   4.118   4.307  0.0505  0.7559 -0.0551
    3MOL    H83  807   0.154   4.216   4.166 -0.1714  0.2059  0.9610
    3MOL    H84  808   0.058   4.073   4.000 -1.5954 -0.2320  1.7213
    3MOL    H85  809   0.034   3.948   4.113 -0.0396  0.7795  1.5024
    3MOL    H86  810   0.303   4.051   4.000 -0.6306 -1.2013 -3.2869
    3MOL    H87  811   0.218   3.906   3.979 -0.1679  0.9616 -1.6562
    3MOL    H88  812   0.264   3.836   4.234  1.0761  0.0622  0.9482
    3MOL    H89  813   0.326   3.994   4.255 -0.8753 -0.6111  0.8656
    3MOL    H90  814   0.449   3.793   4.060  1.0574  0.7751 -1.2806
    3MOL    H91  815   0.507   3.955   4.095 -0.8709  0.7310 -0.5689
    3MOL    C92  816   0.613   3.703   4.230  1.0630  0.1236  0.7735
    3MOL    O93  817   0.619   3.630   4.129  0.0407 -0.0959  0.6375
    3MOL    C94  818   0.686   3.665   4.356  0.5888  0.1962  0.2097
    3MOL    C95  819   0.616   3.567   4.450 -0.0807 -0.5103 -0.1339
    3MOL    C96  820   0.628   3.421   4.397 -0.4709 -0.3340 -0.5864
    3MOL    C97  821   0.770   3.356   4.409 -0.3110 -0.2058 -0.0969
    3MOL    C98  822   0.796   3.228   4.327  0.4012 -0.5453 -0.5750
    3MOL    O99  823   0.906   3.160   4.382 -0.1747 -0.4652 -0.9920
    3MOL   H100  824   0.688   3.759   4.411 -0.8233 -0.4106  1.3305
    3MOL   H101  825   0.789   3.634   4.338  0.8548  0.9659  0.4148
    3MOL   H102  826   0.513   3.593   4.472  1.0429  4.1864 -0.0023
    3MOL   H103  827   0.661   3.572   4.549  2.3801  0.2916 -1.2603
    3MOL   H104  828   0.581   3.401   4.301 -1.1067  2.3524 -0.8825
    3MOL   H105  829   0.555   3.377   4.465 -0.4554  1.3611  0.5759
    3MOL   H106  830   0.777   3.328   4.514  0.3572 -0.7314 -0.2829
    3MOL   H107  831   0.843   3.432   4.380  1.1779  0.1830  4.2291
    3MOL   H108  832   0.713   3.159   4.334 -0.5351  0.5088 -1.1607
    3MOL   H109  833   0.807   3.262   4.224 -1.7074  1.7237 -0.1025
    3MOL   C110  834   0.950   3.053   4.313 -0.1832  0.5471  0.4765
    3MOL   O111  835   0.896   3.001   4.215  0.3128  0.2116  0.2728
    3MOL   C112  836   1.080   2.995   4.363  0.0909  0.5025 -0.1908
    3MOL   C113  837   1.150   2.894   4.263  0.7044  0.4402 -0.0051
    3MOL   C114  838   1.283   2.819   4.310  0.6946 -0.5246  0.0379
    3MOL   C115  839   1.338   2.726   4.200 -0.3406  0.0499 -0.4002
    3MOL   C116  840   1.461   2.654   4.235 -0.5730  0.7562  0.2173
    3MOL   O117  841   1.512   2.590   4.114 -0.1344  0.0845 -0.1522
    3MOL   H118  842   1.067   2.968   4.468  1.6369  1.0989  0.1672
    3MOL   H119  843   1.140   3.086   4.363 -1.0338  1.2678 -1.0970
    3MOL   H120  844   1.171   2.956   4.176 -0.2539  0.7064 -0.0562
    3MOL   H121  845   1.078   2.813   4.246  1.6819 -0.9712  2.2671
    3MOL   H122  846   1.252   2.759   4.396 -0.5486  2.5420  1.8062
    3MOL   H123  847   1.361   2.887   4.343 -0.6369  0.6170  0.8477
    3MOL   H124  848   1.374   2.795   4.124 -0.4246  1.1799  0.5587
    3MOL   H125  849   1.264   2.654   4.166 -0.6784  0.1056  0.2096
    3MOL   H126  850   1.540   2.723   4.266  1.3131 -1.4590  0.4825
    3MOL   H127  851   1.444   2.587   4.319 -0.3442  2.0936  1.3651
    3MOL   C128  852   1.646   2.592   4.077 -0.9312 -0.2474 -0.4522
    3MOL   O129  853   1.740   2.627   4.142 -0.0127  0.5588  0.3448
    3MOL   C130  854   1.669   2.525   3.939 -0.2773 -0.5518  0.2455
    3MOL   C131  855   1.653   2.606   3.814 -0.1946 -0.3804 -0.3541
    3MOL   C132  856   1.509   2.602   3.758  0.3673 -0.4161 -0.9915
    3MOL   C133  857   1.492   2.642   3.610  0.4533 -0.0225  0.1925
    3MOL   C134  858   1.344   2.643   3.571  0.4687  0.2189  0.3415
    3MOL   O135  859   1.287   2.513   3.551 -0.6744  0.0337 -0.1025
    3MOL   H136  860   1.607   2.436   3.931 -0.5298 -0.3313 -0.2660
    3MOL   H137  861   1.774   2.495   3.935 -0.1779 -0.0744 -0.8094
    3MOL   H138  862   1.717   2.558   3.741 -0.7048  0.5166 -1.4024
    3MOL   H139  863   1.679   2.712   3.824 -0.2374 -0.6353  3.5228
    3MOL   H140  864   1.450   2.676   3.813  2.5377 -0.8248  1.9738
    3MOL   H141  865   1.461   2.507   3.779 -0.0305 -0.1405 -0.6409
    3MOL   H142  866   1.542   2.566   3.550 -1.9439 -1.0460 -0.5669
    3MOL   H143  867   1.536   2.738   3.582  2.7667 -0.6981  1.3682
    3MOL   H144  868   1.290   2.688   3.655 -0.8781  1.4032 -1.1407
    3MOL   H145  869   1.315   2.690   3.477  2.4809  0.2069 -0.3024
    3MOL   C146  870   1.317   2.430   3.449 -0.2802  0.8602  0.4489
    3MOL   O147  871   1.400   2.459   3.360 -0.3240 -0.0920 -0.3803
    3MOL   C148  872   1.239   2.296   3.456  0.6244  0.5076 -0.1945
    3MOL   C149  873   1.092   2.314   3.409 -0.2942 -0.1212 -0.7507
    3MOL   C150  874   1.006   2.190   3.410 -1.1861  0.0573  0.0366
    3MOL   C151  875   0.859   2.212   3.386  0.3438  0.4472  0.6151
    3MOL   C152  876   0.819   2.245   3.244  0.1547 -0.4602  0.2242
    3MOL   O153  877   0.880   2.367   3.192 -0.4571  0.0338  0.6498
    3MOL   H154  878   1.242   2.247   3.553  1.9324  2.2623  0.6861
    3MOL   H155  879   1.285   2.226   3.386  0.1542  2.3248 -2.3934
    3MOL   H156  880   1.088   2.360   3.310 -0.8056  0.2082 -0.5821
    3MOL   H157  881   1.050   2.394   3.470  0.2184 -1.0164  0.8102
    3MOL   H158  882   1.012   2.158   3.514  0.7220  3.1510  0.9656
    3MOL   H159  883   1.051   2.114   3.346  0.3136  2.2805 -1.6601
    3MOL   H160  884   0.827   2.295   3.449 -0.4422  0.1358  0.6378
    3MOL   H161  885   0.803   2.122   3.412  2.1478 -1.1390 -0.8409
    3MOL   H162  886   0.844   2.162   3.177 -1.5930 -1.0556  0.2757
    3MOL   H163  887   0.712   2.264   3.237 -0.2522 -0.9365  4.0667
    3MOL   C164  888   0.838   2.491   3.235  0.4246  1.0076 -0.4042
    3MOL   O165  889   0.748   2.508   3.319  0.1634 -0.0496 -0.1546
    3MOL   C166  890   0.914   2.602   3.171 -0.2757  0.3953  0.2969
    3MOL   C167  891   1.012   2.676   3.263  0.3586 -0.0060 -0.2110
    3MOL   C168  892   0.958   2.766   3.374 -0.2047  0.3352 -0.1838
    3MOL   C169  893   1.067   2.863   3.435  0.6483  0.0197  0.0695
    3MOL   C170  894   1.014   2.935   3.562  0.5360  0.6340  0.4622
    3MOL   O171  895   1.094   3.041   3.606  0.0108 -0.7008 -0.0819
    3MOL   H172  896   0.837   2.667   3.128 -2.9081 -1.5042  1.9713
    3MOL   H173  897   0.968   2.553   3.090  0.9440 -1.5655  2.2766
    3MOL   H174  898   1.081   2.742   3.208  0.4516  0.4275  0.4217
    3MOL   H175  899   1.075   2.599   3.307  2.9363  3.1852  1.9115
    3MOL   H176  900   0.916   2.702   3.451 -0.5544 -1.7589 -2.0619
    3MOL   H177  901   0.869   2.815   3.334 -0.8536 -1.3409 -0.8264
    3MOL   H178  902   1.119   2.932   3.368  0.2650 -2.3057 -2.7274
    3MOL   H179  903   1.150   2.797   3.461  1.3486  0.8928  0.0551
    3MOL   H180  904   0.923   2.984   3.528 -1.2162 -0.5451  3.3006
    3MOL   H181  905   1.005   2.867   3.646 -0.1610  2.6170  2.0315
    3MOL   C182  906   1.086   3.086   3.733  0.0145  0.2684 -0.0850
    3MOL   O183  907   1.027   3.027   3.822 -0.1399 -0.4459  0.2210
    3MOL   C184  908   1.153   3.219   3.765  0.0144 -0.5637 -0.1285
    3MOL   C185  909   1.208   3.236   3.905 -1.0835  0.2801 -0.4956
    3MOL   C186  910   1.126   3.318   4.002  0.1764 -0.7242 -0.4394
    3MOL   C187  911   1.191   3.335   4.137  0.1091  0.9218 -0.2676
    3MOL   C188  912   1.117   3.420   4.241 -0.8404  0.1249  0.5063
    3MOL   O189  913   1.215   3.486   4.318  0.2975 -0.6475  0.0255
    3MOL   H190  914   1.097   3.304   3.725  2.9048  0.9829 -0.9861
    3MOL   H191  915   1.237   3.223   3.696 -1.5553 -1.0966 -2.1212
    3MOL   H192  916   1.308   3.279   3.899 -0.9538  0.3927  1.9303
    3MOL   H193  917   1.227   3.137   3.948 -0.4623  0.1366 -1.0836
    3MOL   H194  918   1.033   3.262   4.009  0.2903 -0.9447 -0.6875
    3MOL   H195  919   1.092   3.415   3.964 -2.3194 -0.6181  1.9103
    3MOL   H196  920   1.287   3.383   4.115  1.0171 -0.9113 -0.4531
    3MOL   H197  921   1.214   3.240   4.185 -0.3714  2.1526  2.4497
    3MOL   H198  922   1.057   3.496   4.191  1.1011  1.3769  0.0291
    3MOL   H199  923   1.051   3.351   4.293 -0.3951  1.4001  2.8653
    3MOL   C200  924   1.181   3.590   4.393  0.4341 -0.6582 -0.0089
    3MOL   O201  925   1.064   3.628   4.411  0.3258 -0.2458  0.0943
    3MOL   C202  926   1.299   3.647   4.475  0.2616 -0.2825  0.0489
    3MOL   C203  927   1.382   3.743   4.389 -0.0725 -0.6128  0.4417
    3MOL   C204  928   1.503   3.791   4.471 -0.5329 -0.0128  0.3642
    3MOL   C205  929   1.616   3.680   4.474 -0.7152  0.0933  0.4408
    3MOL   C206  930   1.706   3.702   4.599 -0.5134 -0.1374 -0.2046
    3MOL   O207  931   1.753   3.834   4.606  0.4021 -0.1814  0.7205
    3MOL   H208  932   1.358   3.560   4.507 -1.5447 -1.5483  0.0210
    3MOL   H209  933   1.268   3.698   4.566  0.2626  0.2435 -0.2412
    3MOL   H210  934   1.325   3.825   4.346  1.2517 -0.6522 -1.4418
    3MOL   H211  935   1.415   3.685   4.303  1.4909 -1.8381  1.8272
    3MOL   H212  936   1.475   3.809   4.575  0.8163  2.4941  0.3338
    3MOL   H213  937   1.536   3.883   4.422  0.2885 -0.2719  0.4296
    3MOL   H214  938   1.674   3.694   4.383 -3.1969  1.5806 -0.9750
    3MOL   H215  939   1.573   3.580   4.472 -1.1366  0.2678  0.6531
    3MOL   H216  940   1.648   3.674   4.688 -0.4346  3.3778  1.0273
    3MOL   H217  941   1.795   3.639   4.601  0.2663  0.9798  1.2990
    3MOL   C218  942   1.873   3.872   4.549  0.1271 -0.0667  0.1313
    3MOL   O219  943   1.958   3.797   4.499 -0.1646  0.1248  0.4344
    3MOL   C220  944   1.903   4.019   4.568  0.1087 -0.2210 -0.0153
    3MOL   C221  945   1.892   4.061   4.715  0.3192  0.5220 -0.5119
    3MOL   C222  946   1.925   4.206   4.727  0.4375 -0.0103 -0.1762
    3MOL   C223  947   1.896   4.254   4.867 -0.1139 -0.3487 -0.7463
    3MOL   C224  948   1.901   4.409   4.890 -0.1415 -1.0879 -0.0618
    3MOL   O225  949   1.802   4.474   4.808 -0.2268  0.6153 -0.1927
    3MOL   H226  950   1.824   4.072   4.515 -0.9991 -0.4034  1.4344
    3MOL   H227  951   1.998   4.046   4.520  0.7622  0.7947  1.7942
    3MOL   H228  952   1.950   4.001   4.784 -1.3714  0.5565  0.9650
    3MOL   H229  953   1.790   4.042   4.747  1.2561 -1.1231  1.5907
    3MOL   H230  954   1.867   4.259   4.651 -1.1496 -2.8207 -1.0107
    3MOL   H231  955   2.031   4.195   4.702  0.6425 -0.2520  0.7687
    3MOL   H232  956   1.982   4.218   4.923 -0.6670 -0.7355 -0.1323
    3MOL   H233  957   1.801   4.218   4.906  0.0595  0.6721  0.6947
    3MOL   H234  958   1.880   4.414   4.997 -0.4200  1.1315 -0.1915
    3MOL   H235  959   2.003   4.445   4.878  0.0400 -0.9886  1.6302
    3MOL   C236  960   1.800   4.604   4.780  0.8990  0.5190  0.5247
    3MOL   O237  961   1.877   4.685   4.840  0.2017 -0.2551 -0.2849
    3MOL   C238  962   1.696   4.647   4.679  0.3132 -0.2131  0.4188
    3MOL   C239  963   1.673   4.797   4.664 -1.0167 -0.3128  0.5691
    3MOL   C240  964   1.794   4.877   4.620 -0.6103  0.3309  0.1126
    3MOL   C241  965   1.865   4.812   4.500  0.1585 -0.2576 -0.0879
    3MOL   C242  966   1.950   4.922   4.429 -0.1735  0.4528  0.1226
    3MOL   O243  967   2.046   4.858   4.344  0.0222 -0.7178  0.8864
    3MOL   H244  968   1.601   4.601   4.708  0.7923 -1.2643  0.3563
    3MOL   H245  969   1.707   4.606   4.579  0.7174  2.3944 -0.6303
    3MOL   H246  970   1.626   4.832   4.756 -1.2488  1.3153 -0.1509
    3MOL   H247  971   1.585   4.816   4.603  0.3872 -1.1431 -1.7861
    3MOL   H248  972   1.867   4.887   4.701 -1.5394 -1.0649  1.1563
    3MOL   H249  973   1.770   4.983   4.611  1.3675  0.8948  1.2557
    3MOL   H250  974   1.796   4.775   4.424 -1.7715  0.6430  1.1750
    3MOL   H251  975   1.934   4.733   4.531  0.4901  0.4272  0.9098
    3MOL   H252  976   1.888   4.998   4.383  1.3606  1.6268 -0.0499
    3MOL   H253  977   1.999   4.983   4.505 -1.3039  0.0723  1.1662
    3MOL   C254  978   2.121   4.933   4.259 -0.1622 -0.3005 -0.4992
    3MOL   O255  979   2.124   5.051   4.248  1.2293 -0.1332 -0.0098
    3MOL   C256  980   2.211   4.850   4.174  0.2750 -0.1889  0.0841
    3MOL   C257  981   2.138   4.781   4.061  0.5749  0.5135 -0.1200
    3MOL   C258  982   2.227   4.712   3.959 -0.2782 -0.4439  0.9213
    3MOL   C259  983   2.343   4.801   3.908  0.0264  0.1846 -0.4504
    3MOL   C260  984   2.429   4.732   3.800 -0.4053 -0.1471 -0.2401
    3MOL   O261  985   2.351   4.668   3.709 -0.0228  0.3465  0.0419
    3MOL   H262  986   2.245   4.768   4.237 -1.7885  0.5076  2.1467
    3MOL   H263  987   2.291   4.914   4.137 -1.8414  0.8055 -3.0072
    3MOL   H264  988   2.072   4.855   4.016  0.5917  1.1258  0.8672
    3MOL   H265  989   2.073   4.701   4.094 -0.2127  0.7265 -1.1253
    3MOL   H266  990   2.166   4.668   3.880  0.5713  1.9936 -1.1245
    3MOL   H267  991   2.281   4.630   4.007  1.7041  0.4215  0.2321
    3MOL   H268  992   2.411   4.831   3.988 -1.3555 -0.3399  0.9314
    3MOL   H269  993   2.299   4.891   3.868 -1.5855 -0.1371  0.5726
    3MOL   H270  994   2.495   4.800   3.746 -1.0444  0.1225 -0.6975
    3MOL   H271  995   2.497   4.655   3.835  0.2879  0.2329 -0.7443
    3MOL   C272  996   2.358   4.691   3.578 -0.6373  0.2741 -1.0014
    3MOL   O273  997   2.439   4.767   3.525  0.2535  0.2078 -0.2440
    3MOL   C274  998   2.255   4.624   3.495  0.6908  0.9691 -0.5364
    3MOL   C275  999   2.113   4.616   3.559  0.3254 -0.4510 -0.4009
    3MOL   C276 1000   2.053   4.757   3.572 -0.2883 -0.8225  0.2886
    3MOL   C277 1001   1.902   4.753   3.608  0.0820  0.2519 -0.7954
    3MOL   C278 1002   1.838   4.888   3.612  0.7542 -0.3439  0.0654
    3MOL   O279 1003   1.866   4.961   3.725 -0.3679 -0.0945  0.0525
    3MOL   H280 1004   2.289   4.521   3.483 -1.3968 -0.1901  2.9589
    3MOL   H281 1005   2.245   4.661   3.392 -1.1939 -1.2296 -1.1796
    3MOL   H282 1006   2.106   4.563   3.654 -0.1387  0.5175  0.1190
    3MOL   H283 1007   2.048   4.564   3.489  1.1810 -0.2051 -1.3907
    3MOL   H284 1008   2.071   4.796   3.472  1.3105 -2.9441 -0.2937
    3MOL   H285 1009   2.110   4.814   3.645 -0.4792 -1.2921  0.8063
    3MOL   H286 1010   1.872   4.690   3.692 -0.1329 -0.6345 -1.5286
    3MOL   H287 1011   1.857   4.702   3.524 -1.1558  0.1872 -0.1005
    3MOL   H288 1012   1.862   4.941   3.520  0.0839  1.0203  0.6558
    3MOL   H289 1013   1.730   4.879   3.600  0.5863 -1.6637  2.2033
    3MOL   C290 1014   1.793   4.938   3.843 -0.3854 -0.2845  0.5988
    3MOL   O291 1015   1.706   4.851   3.859 -0.2997 -0.8321 -0.7274
    3MOL   C292 1016   1.838   5.038   3.953 -0.2164  0.2000  0.3187
    3MOL   C293 1017   1.785   5.019   4.093 -0.1347 -0.6112 -0.3063
    3MOL   C294 1018   1.637   5.054   4.117 -0.3387 -0.2835  0.2049
    3MOL   C295 1019   1.601   5.030   4.261 -0.5975 -0.1724 -0.2319
    3MOL   C296 1020   1.446   5.051   4.276  0.0106  0.9912  0.2814
    3MOL   O297 1021   1.417   5.143   4.374  0.1597  0.1971 -0.3566
    3MOL   H298 1022   1.792   5.130   3.917  2.0074  1.4091  0.4246
    3MOL   H299 1023   1.947   5.049   3.955 -0.1914  0.1382 -0.5521
    3MOL   H300 1024   1.844   5.081   4.160 -1.9930 -0.6268  1.4218
    3MOL   H301 1025   1.806   4.913   4.104  0.0172 -0.8639 -2.7630
    3MOL   H302 1026   1.581   4.995   4.043  1.2267  0.1271 -1.3445
    3MOL   H303 1027   1.609   5.155   4.088  2.0260  1.0469  2.4794
    3MOL   H304 1028   1.650   5.116   4.308 -2.4011 -0.0918  1.6036
    3MOL   H305 1029   1.631   4.937   4.309 -0.7803  0.1130  0.4509
    3MOL   H306 1030   1.408   5.084   4.180 -0.1683  0.3753  0.1340
    3MOL   H307 1031   1.403   4.951   4.290 -0.0253  1.0414  0.5209
    3MOL   C308 1032   1.394   5.100   4.505 -0.1267 -0.6339  0.5616
    3MOL   O309 1033   1.380   4.986   4.547  0.4429 -0.1692  0.6713
    3MOL   C310 1034   1.350   5.216   4.596 -0.4683 -0.4672 -0.6386
    3MOL   C311 1035   1.206   5.253   4.587  0.2658  0.5833  0.4924
    3MOL   C312 1036   1.163   5.351   4.473  0.0024  0.4889 -0.2371
    3MOL   C313 1037   1.019   5.363   4.459 -0.3642  0.2615  0.8407
    3MOL   C314 1038   0.999   5.449   4.324  0.5054 -0.1840  0.3784
    3MOL   O315 1039   0.859   5.447   4.284 -0.2878 -0.3635  0.3072
    3MOL   H316 1040   1.415   5.304   4.588 -2.5337  1.0377 -1.2802
    3MOL   H317 1041   1.362   5.180   4.698  0.1672  0.7499 -0.2740
    3MOL   H318 1042   1.170   5.297   4.681 -1.1770  1.9294 -0.6466
    3MOL   H319 1043   1.140   5.167   4.586 -0.1845  0.8378  3.3066
    3MOL   H320 1044   1.208   5.304   4.386 -0.1119  0.8254 -0.4804
    3MOL   H321 1045   1.203   5.449   4.495 -0.0855  0.7948 -1.4500
    3MOL   H322 1046   0.968   5.419   4.537 -0.1804  2.2945 -0.4833
    3MOL   H323 1047   0.976   5.263   4.463 -0.6784  0.4067  1.0524
    3MOL   H324 1048   1.029   5.552   4.343 -0.4385  0.2385 -0.3486
    3MOL   H325 1049   1.061   5.403   4.247  0.9918  0.4545  0.3824
    3MOL   C326 1050   0.826   5.496   4.161 -0.3348 -0.1232  0.4179
    3MOL   O327 1051   0.899   5.560   4.093 -0.7078  0.4209 -0.7634
    3MOL   C328 1052   0.677   5.473   4.131  0.4216 -0.2307  0.1696
    3MOL   C329 1053   0.622   5.549   4.001 -0.0449  0.0341 -0.1917
    3MOL   C330 1054   0.631   5.699   4.006  0.1024 -0.3415  0.5781
    3MOL   C331 1055   0.589   5.774   3.878  0.5204  0.3264  0.4692
    3MOL   C332 1056   0.576   5.921   3.881 -0.3464 -0.1119  0.0020
    3MOL   O333 1057   0.459   5.963   3.947 -0.1927 -0.5253 -0.1852
    3MOL   H334 1058   0.629   5.506   4.223  0.6550  1.8748 -0.4373
    3MOL   H335 1059   0.659   5.365   4.131  0.3640 -0.2208  0.0141
    3MOL   H336 1060   0.516   5.530   3.981 -0.3316 -0.3042  1.5930
    3MOL   H337 1061   0.672   5.505   3.915  1.6378 -0.8489  1.2161
    3MOL   H338 1062   0.736   5.720   4.028  0.5727 -1.1337 -0.8431
    3MOL   H339 1063   0.567   5.739   4.085 -1.6041  1.4601 -1.6360
    3MOL   H340 1064   0.501   5.734   3.827 -0.9124  0.6209  2.6626
    3MOL   H341 1065   0.669   5.771   3.803  1.8520  0.2094  1.8727
    3MOL   H342 1066   0.672   5.955   3.917 -0.9623  0.7852  0.7929
    3MOL   H343 1067   0.576   5.954   3.777  2.3545  0.3091  0.1200
    3MOL   C344 1068   0.477   6.041   4.062  0.4423 -0.5142 -0.3907
    3MOL   O345 1069   0.584   6.054   4.126  0.1261  1.1362  0.7150
    3MOL   C346 1070   0.349   6.111   4.093  0.4450 -0.5666  0.0146
    3MOL   C347 1071   0.344   6.178   4.231  0.4338 -0.3196  0.4914
    3MOL   C348 1072   0.194   6.220   4.273  0.7531 -0.0922  0.1026
    3MOL   C349 1073   0.174   6.229   4.432  0.1726  0.6069 -0.0246
    3MOL   C350 1074   0.249   6.344   4.497 -0.5681  0.4085 -0.8725
    3MOL   O351 1075   0.224   6.456   4.424 -0.1304  0.6840  0.1445
    3MOL   H352 1076   0.275   6.031   4.087 -0.8206  0.3348  2.8509
    3MOL   H353 1077   0.341   6.180   4.009 -0.4247 -0.9706 -0.2425
    3MOL   H354 1078   0.408   6.266   4.220 -1.0081  0.6879 -0.0561
    3MOL   H355 1079   0.378   6.113   4.312  1.9416  1.1474  1.0812
    3MOL   H356 1080   0.128   6.145   4.228  0.4783 -0.0530  0.4411
    3MOL   H357 1081   0.171   6.312   4.219  0.6231  0.2306  0.7103
    3MOL   H358 1082   0.193   6.137   4.487 -1.9473  0.3193  0.2974
    3MOL   H359 1083   0.071   6.253   4.461  0.0218  0.9519 -0.8317
    3MOL   H360 1084   0.209   6.353   4.598 -0.2045 -0.6249 -0.6207
    3MOL   H361 1085   0.357   6.328   4.508 -0.8190  0.0452  1.3907
    3MOL   H362 1086   0.268   6.445   4.341 -0.4294 -0.5191  0.1335
    4MOL     C1 1087   1.207   2.484   0.904 -0.3012 -0.5224  0.0682
    4MOL     O2 1088   1.283   2.407   0.956  0.6446 -0.2755  0.2926
    4MOL     C3 1089   1.132   2.441   0.774 -0.3453 -0.3637 -0.3307
    4MOL     C4 1090   1.164   2.303   0.719 -0.4371  1.1041 -0.4040
    4MOL     C5 1091   1.292   2.286   0.634 -0.7599 -0.2407  0.4688
    4MOL     C6 1092   1.320   2.131   0.613  0.1795  0.0848  0.3466
    4MOL     C7 1093   1.418   2.095   0.506 -0.7322 -0.7479  0.0698
    4MOL     O8 1094   1.550   2.129   0.555  0.2143 -0.5433 -0.0696
    4MOL     H9 1095   1.130   2.517   0.696  0.3956 -0.3738 -0.3600
    4MOL    H10 1096   1.026   2.434   0.797 -0.1475  0.3830  0.8957
    4MOL    H11 1097   1.077   2.266   0.666 -0.9732 -0.5751  1.6087
    4MOL    H12 1098   1.168   2.243   0.810 -1.4397  2.9787  0.9078
    4MOL    H13 1099   1.369   2.339   0.689  0.3590 -0.2479 -1.0633
    4MOL    H14 1100   1.283   2.338   0.538 -0.6425 -0.2903  0.4306
    4MOL    H15 1101   1.226   2.079   0.596  0.6880 -0.4629 -0.7833
    4MOL    H16 1102   1.362   2.091   0.705  0.7241 -2.3729 -0.9383
    4MOL    H17 1103   1.406   1.988   0.490  3.0185 -1.4628  1.3724
    4MOL    H18 1104   1.393   2.140   0.410  0.1396  0.6892  0.4852
    4MOL    H19 1105   1.208   2.591   0.923  0.1029 -0.1566 -1.8921
    4MOL    C20 1106   1.631   2.032   0.605  0.2486 -0.1387  0.2775
    4MOL    O21 1107   1.605   1.911   0.612 -0.1938 -0.2918 -0.4279
    4MOL    C22 1108   1.759   2.093   0.655 -0.2408 -0.3469 -0.4894
    4MOL    C23 1109   1.749   2.224   0.728 -0.7610  0.3494 -0.2924
    4MOL    C24 1110   1.699   2.219   0.871  0.3833  0.1654  0.4204
    4MOL    C25 1111   1.669   2.351   0.930 -0.1513 -0.4290  0.5388
    4MOL    C26 1112   1.608   2.347   1.065 -0.9837 -0.1255 -0.5917
    4MOL    O27 1113   1.675   2.255   1.146  0.2534  0.1002  0.4578
    4MOL    H28 1114   1.831   2.095   0.573 -1.2166 -2.0669 -1.4133
    4MOL    H29 1115   1.801   2.025   0.730  2.0119  1.5001 -0.0154
    4MOL    H30 1116   1.683   2.292   0.673 -1.0658 -2.1587 -3.2057
    4MOL    H31 1117   1.846   2.271   0.734  1.2069 -3.5441 -0.0323
    4MOL    H32 1118   1.787   2.177   0.920  0.0104  0.8157  1.6961
    4MOL    H33 1119   1.617   2.152   0.894  0.8595 -0.2256  0.9968
    4MOL    H34 1120   1.608   2.416   0.868 -1.1895 -0.8500  1.1106
    4MOL    H35 1121   1.764   2.403   0.941  0.8618 -2.0189 -0.4533
    4MOL    H36 1122   1.599   2.448   1.105 -1.3004 -0.7911  1.0677
    4MOL    H37 1123   1.502   2.322   1.060 -0.7640 -0.7680 -2.2949
    4MOL    C38 1124   1.648   2.245   1.274 -0.0194  0.1858  0.2974
    4MOL    O39 1125   1.561   2.310   1.334  0.0823  0.0535 -0.4370
    4MOL    C40 1126   1.730   2.130   1.331  0.1291 -0.4359  0.4318
    4MOL    C41 1127   1.668   1.990   1.319 -0.1489 -0.3441  0.0395
    4MOL    C42 1128   1.636   1.929   1.187 -0.0666 -0.0543 -0.8212
    4MOL    C43 1129   1.760   1.893   1.106 -0.2406  0.4269 -0.1834
    4MOL    C44 1130   1.721   1.839   0.975 -0.1370  0.0713 -0.1545
    4MOL    O45 1131   1.667   1.707   0.972  0.4172 -0.1618  0.3988
    4MOL    H46 1132   1.748   2.155   1.436  0.0415 -0.7370  0.5182
    4MOL    H47 1133   1.826   2.137   1.280  0.2107  0.9572  0.7410
    4MOL    H48 1134   1.575   1.996   1.375  0.2640 -1.1358  0.8181
    4MOL    H49 1135   1.723   1.917   1.377  0.1768 -1.4413 -1.6117
    4MOL    H50 1136   1.573   1.993   1.126 -0.4215 -1.1079 -1.5848
    4MOL    H51 1137   1.584   1.835   1.205  3.7802 -2.4090 -1.3563
    4MOL    H52 1138   1.821   1.829   1.170 -1.7128 -1.1381 -0.3140
    4MOL    H53 1139   1.825   1.980   1.101  3.6814 -2.3549 -0.0103
    4MOL    H54 1140   1.649   1.908   0.930 -0.6366 -1.7734 -2.3292
    4MOL    H55 1141   1.811   1.837   0.914  0.0966 -3.2397  0.1659
    4MOL    C56 1142   1.735   1.593   0.952  0.0189 -0.1863 -0.4853
    4MOL    O57 1143   1.858   1.587   0.950  0.1655 -0.5963 -0.4308
    4MOL    C58 1144   1.656   1.468   0.969  0.1332 -0.0899 -0.6255
    4MOL    C59 1145   1.616   1.391   0.840  0.2700 -0.2224 -0.2337
    4MOL    C60 1146   1.582   1.245   0.864  0.5327 -0.4731  0.2565
    4MOL    C61 1147   1.529   1.167   0.739  0.4642 -1.0147  0.0062
    4MOL    C62 1148   1.377   1.188   0.735  0.5837  0.2290  0.5487
    4MOL    O63 1149   1.326   1.097   0.638 -0.5024 -0.0055  0.2897
    4MOL    H64 1150   1.565   1.489   1.025 -0.1776 -1.5245 -0.5888
    4MOL    H65 1151   1.719   1.404   1.031 -0.2928  1.0595  1.0270
    4MOL    H66 1152   1.703   1.404   0.775  0.2861  1.5374  0.1223
    4MOL    H67 1153   1.537   1.450   0.794  1.2461  0.1517 -1.4488
    4MOL    H68 1154   1.526   1.225   0.956  0.8809  0.1254  0.6009
    4MOL    H69 1155   1.680   1.204   0.886  1.8232  0.5340 -3.2406
    4MOL    H70 1156   1.538   1.062   0.768 -0.1491 -0.9399  0.4571
    4MOL    H71 1157   1.573   1.187   0.641 -0.7950 -0.9326 -0.5555
    4MOL    H72 1158   1.323   1.166   0.826 -0.2718 -2.3713 -0.5259
    4MOL    H73 1159   1.349   1.288   0.703 -2.1370 -0.4181  0.7783
    4MOL    C74 1160   1.226   1.117   0.549  0.2777 -0.0025 -0.1706
    4MOL    O75 1161   1.156   1.215   0.546  0.0677 -0.6865 -0.2954
    4MOL    C76 1162   1.203   0.989   0.465 -0.2342  0.1031 -0.3398
    4MOL    C77 1163   1.057   0.969   0.417  0.5648 -0.6710  0.5398
    4MOL    C78 1164   1.048   0.827   0.360  0.3578 -0.3964  0.3023
    4MOL    C79 1165   0.938   0.807   0.251 -0.8570  0.1842  0.3005
    4MOL    C80 1166   0.945   0.661   0.189  1.0700  0.6814 -0.0763
    4MOL    O81 1167   0.838   0.629   0.102 -0.1022 -0.3589 -0.1886
    4MOL    H82 1168   1.231   0.895   0.513 -4.1761  0.0738  2.1919
    4MOL    H83 1169   1.261   1.004   0.374 -0.1257  3.3139  0.2107
    4MOL    H84 1170   1.036   1.040   0.338 -0.3056 -1.2849  0.2147
    4MOL    H85 1171   0.981   0.985   0.494  0.3069  1.1048 -0.0591
    4MOL    H86 1172   1.035   0.749   0.435 -0.0588 -0.7840 -0.1735
    4MOL    H87 1173   1.143   0.800   0.314  0.1947  1.2131 -1.0267
    4MOL    H88 1174   0.957   0.886   0.177  1.1119 -0.8256 -0.3120
    4MOL    H89 1175   0.850   0.837   0.307  0.8958  1.9436  2.1841
    4MOL    H90 1176   1.046   0.641   0.154  1.3804  1.5617  0.3011
    4MOL    H91 1177   0.931   0.587   0.268  0.0533 -1.1776 -1.9314
    4MOL    C92 1178   0.720   0.594   0.147  0.4292  0.0060  0.5000
    4MOL    O93 1179   0.679   0.599   0.262  0.7254  0.1427  0.0493
    4MOL    C94 1180   0.640   0.533   0.032  0.4957  0.4909 -0.3552
    4MOL    C95 1181   0.562   0.629   7.794 -0.6210  0.3448  0.3081
    4MOL    C96 1182   0.527   0.571   7.660  0.4857  1.2743 -0.9256
    4MOL    C97 1183   0.469   0.673   7.560  0.5105 -0.2495  0.3384
    4MOL    C98 1184   0.446   0.632   7.412 -0.2638 -0.3248 -0.8465
    4MOL    O99 1185   0.372   0.518   7.400  0.0809 -0.2868  0.6348
    4MOL   H100 1186   0.568   0.467   0.080  1.6733  0.6828  1.7570
    4MOL   H101 1187   0.707   0.474   7.814 -0.4285 -2.3523  1.2752
    4MOL   H102 1188   0.629   0.713   7.773  0.7525 -0.2668  2.1206
    4MOL   H103 1189   0.468   0.662   7.839 -1.8291 -0.8336 -1.2730
    4MOL   H104 1190   0.459   0.486   7.654  1.8368  0.2084 -1.3457
    4MOL   H105 1191   0.618   0.528   7.618  0.3203  1.3856 -1.3941
    4MOL   H106 1192   0.531   0.762   7.565 -0.1687  0.4923 -2.8502
    4MOL   H107 1193   0.369   0.698   7.596  0.2170 -0.1519 -0.5346
    4MOL   H108 1194   0.415   0.717   7.351 -0.9186 -0.5748 -0.8654
    4MOL   H109 1195   0.544   0.606   7.371 -0.2560  1.4669 -2.0215
    4MOL   C110 1196   0.341   0.471   7.279 -1.0230  0.4325  0.0906
    4MOL   O111 1197   0.374   0.519   7.170 -0.1097 -0.4537  0.2492
    4MOL   C112 1198   0.259   0.340   7.290  0.5226  0.7094  0.5937
    4MOL   C113 1199   0.298   0.230   7.395  0.1846 -0.1420 -0.0641
    4MOL   C114 1200   0.448   0.210   7.415 -0.7367 -0.0288 -0.5815
    4MOL   C115 1201   0.498   0.136   7.295  0.5977 -0.0202  1.2270
    4MOL   C116 1202   0.644   0.104   7.299  0.2336  0.1123 -0.0027
    4MOL   O117 1203   0.702   0.228   7.261 -0.1893 -0.1314  0.4172
    4MOL   H118 1204   0.259   0.295   7.191  2.4188 -1.5963  1.6114
    4MOL   H119 1205   0.154   0.369   7.300 -0.4072 -2.3219  0.1463
    4MOL   H120 1206   0.255   0.133   7.370  0.0256 -0.3484  1.0087
    4MOL   H121 1207   0.255   0.253   7.493 -0.4512  0.7293 -0.5398
    4MOL   H122 1208   0.469   0.141   7.497 -1.2259  0.6389  0.1061
    4MOL   H123 1209   0.505   0.301   7.431 -2.0080  0.3943  1.7851
    4MOL   H124 1210   0.478   0.190   7.202  1.2634 -1.4378  0.2522
    4MOL   H125 1211   0.436   0.046   7.292 -1.0337  1.1148 -1.5429
    4MOL   H126 1212   0.674   0.073   7.399  0.0754  0.4427  0.1481
    4MOL   H127 1213   0.661   0.036   7.215  0.5541  0.2738 -0.0682
    4MOL   C128 1214   0.833   0.237   7.260  0.4152  0.6219 -0.5402
    4MOL   O129 1215   0.910   0.149   7.307  0.6923  0.3244  0.5622
    4MOL   C130 1216   0.882   0.373   7.213  0.5883 -0.6539 -0.2198
    4MOL   C131 1217   0.849   0.490   7.313  0.3872  0.5947  0.0598
    4MOL   C132 1218   0.959   0.503   7.419  0.0933 -0.4548 -0.3327
    4MOL   C133 1219   0.898   0.534   7.557 -0.3099 -0.3828 -0.0283
    4MOL   C134 1220   1.007   0.580   7.664  0.2573 -0.0034 -0.1528
    4MOL   O135 1221   1.030   0.722   7.641 -0.2509 -0.3590 -0.2219
    4MOL   H136 1222   0.832   0.405   7.122 -0.5315 -0.1182  0.5621
    4MOL   H137 1223   0.987   0.361   7.188  1.0903  2.6341 -0.0131
    4MOL   H138 1224   0.750   0.478   7.357  0.8617  1.3483  1.3497
    4MOL   H139 1225   0.848   0.580   7.251  2.5814  0.9758  0.5473
    4MOL   H140 1226   1.035   0.577   7.396 -2.1811  1.6812 -1.3004
    4MOL   H141 1227   0.998   0.402   7.434  0.8338  0.0786  1.4746
    4MOL   H142 1228   0.848   0.452   7.609  0.1799  0.3747  1.6433
    4MOL   H143 1229   0.830   0.616   7.538  2.6647  2.4831  1.2188
    4MOL   H144 1230   0.983   0.558   7.768  0.8174  1.1633  0.2323
    4MOL   H145 1231   1.100   0.533   7.631  0.1399 -0.8664  0.7453
    4MOL   C146 1232   1.121   0.793   7.710  0.0096  0.7780 -0.0266
    4MOL   O147 1233   1.202   0.754   7.795  0.1759 -0.2946 -0.2315
    4MOL   C148 1234   1.102   0.945   7.688  0.5850 -0.6361  0.6063
    4MOL   C149 1235   1.210   1.045   7.738  0.0935 -0.4269  0.2838
    4MOL   C150 1236   1.191   1.098   0.038 -0.3378 -0.4879  0.2143
    4MOL   C151 1237   1.303   1.205   0.073  0.5018  0.7455 -0.1866
    4MOL   C152 1238   1.299   1.247   0.219 -0.3913 -0.7643 -0.7207
    4MOL   O153 1239   1.399   1.350   0.237 -0.0787 -0.3038  0.3300
    4MOL   H154 1240   1.006   0.981   7.726  1.1531 -0.0852  1.5370
    4MOL   H155 1241   1.105   0.967   7.581 -1.8421 -0.4577  0.5373
    4MOL   H156 1242   1.225   1.131   7.673 -0.0926  0.2365  1.0995
    4MOL   H157 1243   1.303   0.988   7.740  0.0312 -0.4939  2.4145
    4MOL   H158 1244   1.178   1.016   0.109  1.1220 -0.0004  1.0601
    4MOL   H159 1245   1.091   1.139   0.050 -1.2190 -2.7830  1.1587
    4MOL   H160 1246   1.280   1.292   0.011  1.2937  0.3322 -1.0656
    4MOL   H161 1247   1.400   1.164   0.047  0.1444  0.3221 -0.8873
    4MOL   H162 1248   1.200   1.281   0.250 -0.5224 -0.7389 -1.1582
    4MOL   H163 1249   1.320   1.154   0.270  1.2238  0.0909  0.1969
    4MOL   C164 1250   1.496   1.335   0.328 -0.3524 -0.3981 -0.6760
    4MOL   O165 1251   1.527   1.230   0.388  0.0269  0.2396  0.4771
    4MOL   C166 1252   1.563   1.471   0.355  0.4639  0.7188  0.3382
    4MOL   C167 1253   1.662   1.467   0.472  0.6505  0.1696 -0.1734
    4MOL   C168 1254   1.720   1.600   0.494  0.0053  0.3163 -0.0206
    4MOL   C169 1255   1.810   1.651   0.378 -0.6160 -0.2242 -0.0131
    4MOL   C170 1256   1.872   1.791   0.389  0.0547 -0.6309  0.1312
    4MOL   O171 1257   1.939   1.806   0.514 -0.5532 -0.3328  0.2950
    4MOL   H172 1258   1.479   1.538   0.372  0.2666  0.4519  0.4271
    4MOL   H173 1259   1.602   1.491   0.256 -3.9612 -1.0509 -1.9057
    4MOL   H174 1260   1.741   1.395   0.450  1.8745  1.1018  1.1017
    4MOL   H175 1261   1.605   1.430   0.557 -0.4100  0.6913 -0.6478
    4MOL   H176 1262   1.771   1.612   0.589 -0.8534 -1.9086  0.7685
    4MOL   H177 1263   1.643   1.677   0.498 -0.1717  0.1125  0.7025
    4MOL   H178 1264   1.757   1.643   0.284 -1.4261 -0.2536  0.4395
    4MOL   H179 1265   1.895   1.582   0.376  0.4692  1.1307 -2.2600
    4MOL   H180 1266   1.937   1.809   0.304  1.7886 -0.5554  1.4245
    4MOL   H181 1267   1.786   1.857   0.382 -0.3016 -1.2069 -1.0995
    4MOL   C182 1268   2.074   1.783   0.524  0.1867  0.1228  0.1061
    4MOL   O183 1269   2.155   1.781   0.431 -0.4111  0.0353 -0.6571
    4MOL   C184 1270   2.119   1.773   0.668 -0.2591 -0.3820 -0.1071
    4MOL   C185 1271   2.264   1.719   0.697 -0.1806  0.1357  0.1268
    4MOL   C186 1272   2.359   1.836   0.717  0.5116 -0.3455 -0.0555
    4MOL   C187 1273   2.504   1.786   0.699 -0.3042  0.4885  0.8878
    4MOL   C188 1274   2.597   1.907   0.699  0.3725 -0.2878 -0.2027
    4MOL   O189 1275   2.605   1.959   0.834  0.4944  0.7890  0.0172
    4MOL   H190 1276   2.050   1.700   0.710  0.2773  0.0600  1.5663
    4MOL   H191 1277   2.103   1.869   0.716  0.1731  0.5014 -1.6937
    4MOL   H192 1278   2.305   1.667   0.611  0.5842  1.7588 -0.5095
    4MOL   H193 1279   2.258   1.648   0.779  2.4039 -0.1547  0.0835
    4MOL   H194 1280   2.337   1.886   0.811  0.5940 -0.8032  0.2061
    4MOL   H195 1281   2.345   1.913   0.641 -1.1351 -1.3075 -0.7455
    4MOL   H196 1282   2.500   1.717   0.614  0.2036  1.3752  0.1347
    4MOL   H197 1283   2.535   1.721   0.781 -0.7716 -0.7986  0.0743
    4MOL   H198 1284   2.695   1.879   0.660  1.2129 -1.1471  2.4347
    4MOL   H199 1285   2.573   1.990   0.632  1.9287  1.4450  1.3153
    4MOL   C200 1286   2.679   2.065   0.861 -0.4430 -0.5695  0.5975
    4MOL   O201 1287   2.762   2.122   0.785  0.1693  0.8759  0.5012
    4MOL   C202 1288   2.639   2.125   0.996 -0.3808  0.2238  0.8409
    4MOL   C203 1289   2.695   2.262   1.019  0.5111 -0.0714  0.1173
    4MOL   C204 1290   2.650   2.381   0.928 -0.7045  0.8910  0.3082
    4MOL   C205 1291   2.501   2.391   0.919  0.3386  0.1171  0.3404
    4MOL   C206 1292   2.448   2.523   0.864 -0.1775  0.0813 -0.3983
    4MOL   O207 1293   2.460   2.524   0.727  0.4297  0.5780 -0.1040
    4MOL   H208 1294   2.658   2.059   1.081 -2.9982 -0.9185  0.5910
    4MOL   H209 1295   2.531   2.122   0.987 -0.3681  0.9671  0.4409
    4MOL   H210 1296   2.804   2.256   1.016  0.4060 -2.0087 -0.6828
    4MOL   H211 1297   2.676   2.297   1.120 -1.4722 -1.7913  0.3653
    4MOL   H212 1298   2.698   2.366   0.831  1.1030 -0.4921  1.3709
    4MOL   H213 1299   2.699   2.469   0.969  1.8458  0.3215 -1.4074
    4MOL   H214 1300   2.459   2.384   1.019 -0.8760  0.1272 -0.1634
    4MOL   H215 1301   2.459   2.311   0.858  0.4480  1.2630 -1.2830
    4MOL   H216 1302   2.340   2.526   0.880 -0.3809 -1.7141 -1.3049
    4MOL   H217 1303   2.495   2.608   0.913 -1.4342  0.0249  0.9569
    4MOL   C218 1304   2.463   2.644   0.667 -0.0276 -0.1971 -0.2166
    4MOL   O219 1305   2.427   2.751   0.714 -0.0697  0.5745  0.5191
    4MOL   C220 1306   2.515   2.635   0.532  0.0696 -0.8005  0.3636
    4MOL   C221 1307   2.527   2.766   0.460  0.2685 -0.8374 -0.5816
    4MOL   C222 1308   2.608   2.753   0.327 -0.3395  0.2479  0.6780
    4MOL   C223 1309   2.630   2.886   0.258  0.3387  0.2150  0.4473
    4MOL   C224 1310   2.647   2.866   0.107 -0.7392 -0.1458  0.5487
    4MOL   O225 1311   2.775   2.808   0.090 -0.1017  0.2413  0.3343
    4MOL   H226 1312   2.443   2.573   0.479 -0.9545 -1.3034  2.3170
    4MOL   H227 1313   2.613   2.586   0.526 -0.1705 -1.4348  1.5202
    4MOL   H228 1314   2.580   2.837   0.524 -2.5450  0.5252  0.3021
    4MOL   H229 1315   2.431   2.816   0.457  1.1958  1.1386  1.1773
    4MOL   H230 1316   2.555   2.695   0.252 -0.7843 -0.5364  1.5895
    4MOL   H231 1317   2.704   2.706   0.346 -1.2481 -1.9055  0.1417
    4MOL   H232 1318   2.707   2.944   0.309 -0.0577 -1.7090  3.3597
    4MOL   H233 1319   2.558   2.966   0.272 -0.6511 -0.6721  0.4783
    4MOL   H234 1320   2.576   2.795   0.065  0.8552 -1.3163 -0.2016
    4MOL   H235 1321   2.629   2.952   0.041 -0.1147 -1.1271 -0.9288
    4MOL   C236 1322   2.810   2.745   7.825  0.5119  0.5454 -0.8621
    4MOL   O237 1323   2.735   2.736   7.729  0.7135 -0.0736 -0.1749
    4MOL   C238 1324   2.946   2.682   7.809 -1.2724  0.4911 -0.8893
    4MOL   C239 1325   3.067   2.778   7.810  0.3187 -0.1811 -0.1383
    4MOL   C240 1326   3.098   2.858   7.685 -0.2361  0.5935  0.8046
    4MOL   C241 1327   3.187   2.983   7.697 -0.3007 -0.4300 -0.4750
    4MOL   C242 1328   3.247   3.025   7.565 -0.2804 -0.2128  0.4546
    4MOL   O243 1329   3.136   3.070   7.483 -0.4411 -0.1211 -0.2057
    4MOL   H244 1330   2.945   2.610   7.728 -1.5740 -2.2941  1.5115
    4MOL   H245 1331   2.948   2.627   0.059 -0.4701  1.5457 -0.2660
    4MOL   H246 1332   3.151   2.712   7.833  0.1732 -0.7693 -1.2802
    4MOL   H247 1333   3.062   2.841   0.055 -0.2848  0.7477 -0.8234
    4MOL   H248 1334   3.005   2.890   7.638  0.4522 -0.8565 -1.5854
    4MOL   H249 1335   3.152   2.789   7.621 -1.6205 -1.2249  1.5481
    4MOL   H250 1336   3.266   2.965   7.771  0.1016  0.0771 -0.7725
    4MOL   H251 1337   3.124   3.065   7.732 -1.4754 -1.3903 -0.3329
    4MOL   H252 1338   3.319   3.107   7.567 -1.3715  0.7672 -0.0433
    4MOL   H253 1339   3.299   2.943   7.516 -0.3551  1.1578 -2.0242
    4MOL   C254 1340   3.150   3.162   7.383  0.1449 -0.0705 -0.1917
    4MOL   O255 1341   3.249   3.226   7.356 -0.1078 -0.0505  0.6961
    4MOL   C256 1342   3.022   3.185   7.297  0.3385  0.2411 -0.0085
    4MOL   C257 1343   3.012   3.319   7.216  0.2290  0.2944 -0.2177
    4MOL   C258 1344   2.877   3.343   7.152 -1.1467 -0.6845 -0.9650
    4MOL   C259 1345   2.760   3.301   7.238 -0.0313 -0.3353  0.3665
    4MOL   C260 1346   2.630   3.345   7.174 -0.6100 -0.8012  0.5087
    4MOL   O261 1347   2.616   3.273   7.050  0.2309 -0.2052 -0.0936
    4MOL   H262 1348   2.945   3.179   7.373  2.9418  1.6841  2.8361
    4MOL   H263 1349   3.022   3.100   7.228  1.7893 -0.6713  1.0919
    4MOL   H264 1350   3.085   3.329   7.136  0.3525  0.8647 -0.0384
    4MOL   H265 1351   3.027   3.400   7.288 -0.1040  0.7579 -0.6678
    4MOL   H266 1352   2.880   3.304   7.050 -2.0870 -0.9025 -0.9068
    4MOL   H267 1353   2.880   3.451   7.136  1.6809 -0.4446  0.9365
    4MOL   H268 1354   2.775   3.355   7.331 -1.9192  2.4058 -0.8260
    4MOL   H269 1355   2.750   3.194   7.254 -1.2590  0.0001  1.9450
    4MOL   H270 1356   2.542   3.327   7.236 -0.5593  1.3372  1.2320
    4MOL   H271 1357   2.637   3.450   7.146 -2.4703 -1.2796 -1.9286
    4MOL   C272 1358   2.497   3.227   7.014 -0.0454 -0.2701 -0.1890
    4MOL   O273 1359   2.389   3.251   7.070  0.1924  0.1420 -0.6176
    4MOL   C274 1360   2.503   3.127   6.896 -0.0517  0.9415  0.2642
    4MOL   C275 1361   2.366   3.112   6.820 -0.2939 -0.0307  0.2968
    4MOL   C276 1362   2.346   3.231   6.718  0.0216 -0.4056  0.3845
    4MOL   C277 1363   2.206   3.212   6.658 -0.4031 -0.4180  0.4733
    4MOL   C278 1364   2.180   3.338   6.570 -0.2722 -0.1002 -0.4483
    4MOL   O279 1365   2.253   3.322   6.444 -0.6668  0.5552 -0.5860
    4MOL   H280 1366   2.530   3.027   6.931 -0.0879  0.7611 -0.2231
    4MOL   H281 1367   2.581   3.164   6.831 -0.7093  0.3591 -0.8705
    4MOL   H282 1368   2.283   3.093   6.889  0.3593 -1.3892  0.7275
    4MOL   H283 1369   2.374   3.013   6.774 -1.7725 -0.0809  0.1121
    4MOL   H284 1370   2.430   3.229   6.648  0.1441  0.6815  0.4934
    4MOL   H285 1371   2.348   3.328   6.767 -1.9460 -0.6749  1.0191
    4MOL   H286 1372   2.129   3.206   6.734  1.5849 -0.6639  2.5055
    4MOL   H287 1373   2.199   3.116   6.605 -0.1049 -0.4294  0.4526
    4MOL   H288 1374   2.075   3.353   6.546 -0.0654 -0.4393 -1.5852
    4MOL   H289 1375   2.203   3.434   6.618 -0.5901 -0.3463  0.2063
    4MOL   C290 1376   2.288   3.429   6.376  0.6066  0.5896 -0.0291
    4MOL   O291 1377   2.303   3.540   6.421 -0.0270  0.3662  0.6685
    4MOL   C292 1378   2.335   3.395   6.231 -0.2886 -0.0474  0.3060
    4MOL   C293 1379   2.463   3.471   6.182 -0.1064  0.4825 -0.2923
    4MOL   C294 1380   2.584   3.450   6.270 -0.3638  0.2886 -0.1476
    4MOL   C295 1381   2.706   3.540   6.232  0.3586 -0.0952 -0.2243
    4MOL   C296 1382   2.812   3.546   6.346 -0.3139 -0.0011  0.1658
    4MOL   O297 1383   2.934   3.592   6.288  0.0182  0.5891  0.1616
    4MOL   H298 1384   2.251   3.425   6.168 -0.4871 -1.4554 -0.1153
    4MOL   H299 1385   2.353   3.288   6.219 -0.4672  0.0701 -1.1399
    4MOL   H300 1386   2.446   3.575   6.154  0.3752  0.4891 -0.5733
    4MOL   H301 1387   2.497   3.430   6.087  0.6805  0.7847 -0.1445
    4MOL   H302 1388   2.629   3.351   6.283 -0.4854  0.2854  0.2707
    4MOL   H303 1389   2.563   3.469   6.376  1.3194  0.6451  0.1447
    4MOL   H304 1390   2.665   3.636   6.200  0.6034 -0.2858 -1.1354
    4MOL   H305 1391   2.749   3.511   6.136 -1.9660  0.7801 -1.5863
    4MOL   H306 1392   2.778   3.615   6.423 -2.6014  0.5564 -1.2960
    4MOL   H307 1393   2.814   3.449   6.395 -1.6091 -0.8403 -1.3915
    4MOL   C308 1394   3.030   3.637   6.366  0.4882 -0.5046  0.4238
    4MOL   O309 1395   3.017   3.650   6.487  0.6066  0.3936 -0.1523
    4MOL   C310 1396   3.162   3.648   6.295  0.2445  0.2631 -0.3508
    4MOL   C311 1397   3.261   3.740   6.377  1.2222  0.0674  0.6849
    4MOL   C312 1398   3.358   3.675   6.474 -0.4464 -0.3863  0.2384
    4MOL   C313 1399   3.437   3.776   6.554 -0.1823  0.4294  0.4380
    4MOL   C314 1400   3.550   3.706   6.628 -0.5567  0.5635  0.0771
    4MOL   O315 1401   3.624   3.801   6.706 -0.4226 -0.0434 -0.3785
    4MOL   H316 1402   3.139   3.692   6.198 -0.7512  2.0063  0.6509
    4MOL   H317 1403   3.199   3.548   6.272  0.9126 -0.0052  1.8031
    4MOL   H318 1404   3.205   3.811   6.437  2.8091 -0.0329  2.3051
    4MOL   H319 1405   3.309   3.804   6.304 -0.0805  1.4810  1.0527
    4MOL   H320 1406   3.413   3.604   6.413  0.1387  1.5376 -1.5294
    4MOL   H321 1407   3.311   3.611   6.548  1.5886 -1.4145  0.6803
    4MOL   H322 1408   3.376   3.835   6.621  0.0431 -0.9201  1.8486
    4MOL   H323 1409   3.467   3.854   6.484 -1.4174 -1.9234 -2.9007
    4MOL   H324 1410   3.513   3.632   6.699  2.8928 -0.8584  0.5213
    4MOL   H325 1411   3.611   3.659   6.551  1.4203  0.1989  1.8158
    4MOL   C326 1412   3.707   3.882   6.654 -0.0134  0.1730  0.0348
    4MOL   O327 1413   3.733   3.890   6.538  0.2234 -0.0199  0.2324
    4MOL   C328 1414   3.774   3.980   6.752 -0.8291 -0.5006  0.4755
    4MOL   C329 1415   3.817   3.905   6.883  0.2517  0.1025 -0.1258
    4MOL   C330 1416   3.904   3.998   6.963 -0.3475 -0.6749  0.7775
    4MOL   C331 1417   3.953   3.936   7.099  0.1762  0.6855  0.0890
    4MOL   C332 1418   4.051   3.818   7.088 -0.9314 -0.2651 -0.0006
    4MOL   O333 1419   4.083   3.760   7.213  0.8242 -0.8459 -0.5258
    4MOL   H334 1420   3.706   4.064   6.769 -1.1060 -0.8259  0.9990
    4MOL   H335 1421   3.862   4.029   6.710  1.3179 -1.3378  3.8346
    4MOL   H336 1422   3.861   3.811   6.852 -1.1216  0.2713 -2.7231
    4MOL   H337 1423   3.727   3.896   6.944  0.8869  0.4235  0.8673
    4MOL   H338 1424   3.864   4.099   6.965 -1.3158 -1.0366  0.0936
    4MOL   H339 1425   3.992   4.007   6.899 -1.4527 -1.1293 -0.8327
    4MOL   H340 1426   3.874   3.908   7.170  2.1811 -1.6992  1.4537
    4MOL   H341 1427   4.006   4.006   7.164  1.4423  0.6220 -0.8658
    4MOL   H342 1428   4.007   3.748   7.016 -2.3732  0.5489  0.0851
    4MOL   H343 1429   4.139   3.855   7.035 -1.6112  1.0195 -0.2429
    4MOL   C344 1430   4.175   3.663   7.214  0.3088 -0.4404 -0.1276
    4MOL   O345 1431   4.197   3.585   7.123 -0.0617 -0.1618  0.1744
    4MOL   C346 1432   4.224   3.644   7.361 -0.4753  0.2292 -0.0426
    4MOL   C347 1433   4.374   3.618   7.366  0.5761 -0.5034 -0.6580
    4MOL   C348 1434   4.438   3.585   7.498 -0.1618 -0.0541  0.5853
    4MOL   C349 1435   4.496   3.719   7.549  0.4464 -0.0057 -0.5695
    4MOL   C350 1436   4.531   3.707   7.692 -0.0796  0.0078  0.3578
    4MOL   O351 1437   4.577   3.835   7.740  0.1219  0.0911 -0.3474
    4MOL   H352 1438   4.173   3.555   7.397 -1.9334  0.5843 -1.1764
    4MOL   H353 1439   4.184   3.725   7.422 -2.0185 -0.2593 -0.3887
    4MOL   H354 1440   4.424   3.704   7.320  1.1842 -0.2000  0.5370
    4MOL   H355 1441   4.376   3.529   7.303 -4.6335 -2.9022  2.2209
    4MOL   H356 1442   4.520   3.514   7.484 -1.1062 -0.8925 -0.7677
    4MOL   H357 1443   4.363   3.542   7.564  0.2207  0.8875  1.6637
    4MOL   H358 1444   4.407   3.782   7.549  0.8225  0.5259 -1.2139
    4MOL   H359 1445   4.568   3.757   7.476 -0.6791 -0.3989 -1.9045
    4MOL   H360 1446   4.446   3.685   7.757  1.4829  1.0811  2.8657
    4MOL   H361 1447   4.602   3.629   7.720  0.4942  0.5857  0.5328
    4MOL   H362 1448   4.581   3.839   7.834  1.7274  0.6309 -0.4404
    5MOL     C1 1449   3.087   3.903   0.009 -0.0623 -0.2365 -0.3011
    5MOL     O2 1450   3.090   3.938   7.736 -0.1588  0.2132  0.4644
    5MOL     C3 1451   3.177   3.790   0.061  0.0085 -0.0714 -0.2135
    5MOL     C4 1452   3.174   3.670   7.808  0.2990  0.6044 -0.1780
    5MOL     C5 1453   3.050   3.576   7.824 -0.2532  0.5750  0.5829
    5MOL     C6 1454   3.071   3.432   7.771 -0.4275  0.3277  0.0078
    5MOL     C7 1455   3.071   3.407   7.618 -0.1448 -0.6414  0.1783
    5MOL     O8 1456   3.194   3.459   7.564  0.4435 -0.3380  0.2822
    5MOL     H9 1457   3.138   3.760   0.159  1.5141  0.2812  0.4977
    5MOL    H10 1458   3.277   3.831   0.068  0.7611 -1.7600 -0.9370
    5MOL    H11 1459   3.269   3.618   7.822 -0.3979 -1.2516 -1.9532
    5MOL    H12 1460   3.170   3.704   7.704 -0.6009 -0.3404 -0.4643
    5MOL    H13 1461   2.958   3.624   7.790 -1.2059 -2.1263 -0.7518
    5MOL    H14 1462   3.019   3.558   0.083 -0.4911  0.2478  0.4548
    5MOL    H15 1463   2.987   3.365   7.789 -0.2564  0.3466  0.8899
    5MOL    H16 1464   3.158   3.386   7.819  0.4653  1.8939 -0.0730
    5MOL    H17 1465   3.070   3.299   7.607 -0.0397 -0.5272 -1.0744
    5MOL    H18 1466   2.977   3.443   7.575  1.1707  2.6524 -0.0574
    5MOL    H19 1467   3.033   3.953   0.090 -0.2599  0.6397 -0.9692
    5MOL    C20 1468   3.186   3.549   7.467 -0.4046  0.2993  0.5166
    5MOL    O21 1469   3.087   3.610   7.434 -0.4410 -0.0737 -0.3894
    5MOL    C22 1470   3.316   3.576   7.397  0.7040 -0.5498 -0.6294
    5MOL    C23 1471   3.406   3.672   7.474  0.2023 -0.2568 -0.1589
    5MOL    C24 1472   3.368   3.818   7.471  0.1828  0.0057  0.1663
    5MOL    C25 1473   3.468   3.908   7.544 -0.7598  0.0866 -0.3810
    5MOL    C26 1474   3.444   3.933   7.700 -0.4846  0.2261  0.1183
    5MOL    O27 1475   3.567   3.961   7.765  0.4419 -0.1836  0.5585
    5MOL    H28 1476   3.290   3.601   7.294  1.0446 -0.2450 -0.6445
    5MOL    H29 1477   3.359   3.477   7.385 -1.5540 -1.6314 -0.0685
    5MOL    H30 1478   3.503   3.662   7.425  0.7779 -0.7988  1.0787
    5MOL    H31 1479   3.416   3.641   7.578 -0.9931  0.4077  0.1742
    5MOL    H32 1480   3.272   3.841   7.519 -0.2934  2.3415 -1.8083
    5MOL    H33 1481   3.363   3.846   7.366  0.6041  0.4759  0.2718
    5MOL    H34 1482   3.469   4.008   7.500 -5.3737  0.0072 -0.9128
    5MOL    H35 1483   3.564   3.860   7.526 -0.8596  0.3315 -1.5861
    5MOL    H36 1484   3.373   4.014   7.714 -0.2571  0.7202 -1.4886
    5MOL    H37 1485   3.416   3.836   7.741 -0.5583  0.1027 -0.2216
    5MOL    C38 1486   3.571   4.009   0.050  0.0281  0.3023 -0.1926
    5MOL    O39 1487   3.471   4.032   0.117  0.6415  0.0076  0.0455
    5MOL    C40 1488   3.710   4.030   0.110  0.3545 -0.3720 -0.3459
    5MOL    C41 1489   3.758   3.935   0.216  0.6385  0.5309  0.5423
    5MOL    C42 1490   3.758   3.783   0.161  0.5281 -0.2479  0.1315
    5MOL    C43 1491   3.835   3.700   0.251  0.0262  0.0435 -0.1350
    5MOL    C44 1492   3.866   3.562   0.183 -0.1602 -0.1440 -0.5197
    5MOL    O45 1493   3.938   3.478   0.275  0.6462 -0.1766 -0.3753
    5MOL    H46 1494   3.711   4.133   0.148  0.3811 -0.0269 -1.2687
    5MOL    H47 1495   3.780   4.031   0.026 -1.0974 -4.0131 -1.6708
    5MOL    H48 1496   3.695   3.948   0.305 -1.9977 -0.6894 -1.0839
    5MOL    H49 1497   3.853   3.972   0.255  0.2889  0.4292  1.4997
    5MOL    H50 1498   3.801   3.776   0.061 -0.1798  1.5864 -0.3305
    5MOL    H51 1499   3.655   3.750   0.142  0.6610 -0.1101 -0.8319
    5MOL    H52 1500   3.783   3.688   0.347  0.4671  1.0813  0.2442
    5MOL    H53 1501   3.929   3.750   0.273 -1.0840  2.0976  0.0216
    5MOL    H54 1502   3.781   3.517   0.132 -0.8310  1.3433 -0.7541
    5MOL    H55 1503   3.933   3.581   0.099 -1.4077  2.0521 -1.0514
    5MOL    C56 1504   3.876   3.372   0.329 -0.0404 -0.1197 -0.2951
    5MOL    O57 1505   3.760   3.345   0.309  0.6583  0.1049 -0.0214
    5MOL    C58 1506   3.970   3.297   0.419 -1.0330 -0.3501  0.3937
    5MOL    C59 1507   4.096   3.244   0.349 -0.2565 -0.0293  1.3514
    5MOL    C60 1508   4.072   3.111   0.265  0.4249  0.2779  0.5382
    5MOL    C61 1509   4.034   3.141   0.122 -0.4119  0.2747 -0.1909
    5MOL    C62 1510   4.015   3.022   0.034  0.1144  0.1636  0.8674
    5MOL    O63 1511   4.119   2.934   0.036  0.8577  0.0413  0.3708
    5MOL    H64 1512   3.909   3.221   0.467  0.2165 -1.8394 -0.3148
    5MOL    H65 1513   4.014   3.368   0.490 -0.5277 -0.8868  0.6227
    5MOL    H66 1514   4.166   3.232   0.432  1.2710 -0.1664  0.0678
    5MOL    H67 1515   4.148   3.322   0.294  0.6971 -0.0556  2.2061
    5MOL    H68 1516   4.005   3.034   0.304  0.9640 -0.1149  0.6929
    5MOL    H69 1517   4.168   3.059   0.258  1.0571  1.4680  0.2533
    5MOL    H70 1518   4.120   3.195   0.082 -0.0485  1.2733  1.8444
    5MOL    H71 1519   3.956   3.217   0.115  0.0757  0.7161 -0.9478
    5MOL    H72 1520   3.943   2.955   0.081 -1.6756  1.0580 -0.4995
    5MOL    H73 1521   3.960   3.040   7.786  1.4699 -1.6408 -0.3287
    5MOL    C74 1522   4.216   2.938   7.776  0.6220  0.9785 -0.1462
    5MOL    O75 1523   4.240   3.031   7.706 -0.3048  0.2137  0.4386
    5MOL    C76 1524   4.310   2.815   7.777  0.0740  0.5239 -0.2911
    5MOL    C77 1525   4.434   2.809   7.680  0.4433  0.6585  0.1126
    5MOL    C78 1526   4.394   2.748   7.541 -0.0198 -0.0773 -0.2582
    5MOL    C79 1527   4.521   2.733   7.443  0.1047 -0.0519 -0.2987
    5MOL    C80 1528   4.495   2.669   7.310 -0.5353 -0.4080  0.8870
    5MOL    O81 1529   4.417   2.761   7.232 -0.4473  0.0206 -0.0171
    5MOL    H82 1530   4.259   2.720   7.796 -0.0049  0.6818  0.3139
    5MOL    H83 1531   4.356   2.840   0.028 -1.0931 -0.0719  0.4527
    5MOL    H84 1532   4.515   2.750   7.723 -0.0831 -0.1848 -0.0175
    5MOL    H85 1533   4.474   2.906   7.652  0.2493  1.1214  1.3803
    5MOL    H86 1534   4.317   2.803   7.488  0.1000  1.3752  1.0273
    5MOL    H87 1535   4.347   2.650   7.554 -0.4284  0.3594  1.8385
    5MOL    H88 1536   4.600   2.682   7.499 -0.4824  0.9785  1.5238
    5MOL    H89 1537   4.559   2.832   7.420 -0.0762  0.4430  1.4526
    5MOL    H90 1538   4.588   2.647   7.258 -1.1559  2.2298 -1.5146
    5MOL    H91 1539   4.452   2.570   7.320  1.1447 -1.5970 -2.7633
    5MOL    C92 1540   4.376   2.719   7.111 -0.1143 -0.1990  0.4707
    5MOL    O93 1541   4.412   2.617   7.053 -0.5535  0.6493 -0.1536
    5MOL    C94 1542   4.275   2.813   7.041 -0.1889  0.3771 -0.5362
    5MOL    C95 1543   4.150   2.829   7.141  0.4651  0.0721  0.1451
    5MOL    C96 1544   4.045   2.927   7.068 -0.1851  0.4203 -0.2676
    5MOL    C97 1545   3.931   2.982   7.154  0.0000 -0.2119 -0.7863
    5MOL    C98 1546   3.835   3.067   7.067  0.8095 -0.1100 -0.0203
    5MOL    O99 1547   3.773   2.998   6.959 -0.5481  0.1644 -0.3492
    5MOL   H100 1548   4.248   2.769   6.945  1.7606 -3.6854  0.6695
    5MOL   H101 1549   4.318   2.910   7.016  1.3439  0.2005  1.3661
    5MOL   H102 1550   4.181   2.881   7.232  0.0608 -1.3042  1.0930
    5MOL   H103 1551   4.109   2.731   7.168  2.0935 -0.3757  1.0988
    5MOL   H104 1552   4.002   2.871   6.985  1.3897 -1.1031 -0.0774
    5MOL   H105 1553   4.101   3.015   7.035 -1.6063  0.9000 -1.4496
    5MOL   H106 1554   3.969   3.044   7.235 -2.3256  2.0456 -1.3407
    5MOL   H107 1555   3.866   2.903   7.193 -0.0299  0.7683  1.2222
    5MOL   H108 1556   3.752   3.088   7.134  0.0462 -0.6076 -0.7873
    5MOL   H109 1557   3.879   3.161   7.034 -0.4688 -0.0612 -1.6600
    5MOL   C110 1558   3.755   3.041   6.836 -0.1075 -0.3008 -0.0205
    5MOL   O111 1559   3.805   3.140   6.792  0.0232  0.3930 -0.6926
    5MOL   C112 1560   3.659   2.949   6.755 -0.2287 -0.1108 -0.1720
    5MOL   C113 1561   3.728   2.906   6.621 -0.8034  0.1236  0.2943
    5MOL   C114 1562   3.636   2.835   6.527  0.6101 -0.2346 -0.1077
    5MOL   C115 1563   3.702   2.786   6.400  0.2936  0.2296 -0.1727
    5MOL   C116 1564   3.740   2.898   6.298  0.3701 -0.0019  0.1465
    5MOL   O117 1565   3.614   2.942   6.241  0.3270  0.2580 -0.5341
    5MOL   H118 1566   3.571   3.008   6.729  0.6199  2.0004  1.6324
    5MOL   H119 1567   3.630   2.867   6.822  1.4018  0.3123  1.0686
    5MOL   H120 1568   3.804   2.836   6.657  0.4309  0.0197 -2.4174
    5MOL   H121 1569   3.776   2.991   6.573 -0.0252  0.4837  1.6727
    5MOL   H122 1570   3.550   2.897   6.504  0.8257  0.7104  1.6018
    5MOL   H123 1571   3.608   2.749   6.588  1.6381  0.2406  1.0659
    5MOL   H124 1572   3.638   2.710   6.356 -1.3468  0.4866  1.6844
    5MOL   H125 1573   3.794   2.734   6.427 -0.0741 -1.1279 -1.4670
    5MOL   H126 1574   3.798   2.977   6.347  0.9410 -0.3133 -0.0269
    5MOL   H127 1575   3.803   2.857   6.219  1.0877 -0.5015  0.9706
    5MOL   C128 1576   3.578   2.893   6.123  0.6883 -0.3210  0.1794
    5MOL   O129 1577   3.635   2.802   6.056  0.3106  0.7765  0.5442
    5MOL   C130 1578   3.452   2.961   6.070 -0.0655 -0.2199 -0.1176
    5MOL   C131 1579   3.330   2.891   6.122  0.0814  0.1756 -0.3313
    5MOL   C132 1580   3.203   2.912   6.040 -0.1240 -0.7152  0.0715
    5MOL   C133 1581   3.196   2.816   5.915  0.5057 -0.6930  0.2802
    5MOL   C134 1582   3.071   2.823   5.829 -0.4082 -0.1233  0.3068
    5MOL   O135 1583   3.075   2.721   5.732 -0.1376 -0.0636  0.3689
    5MOL   H136 1584   3.458   2.957   5.961 -1.3420  1.6313 -0.2837
    5MOL   H137 1585   3.456   3.066   6.098  0.0720 -0.2553 -0.0104
    5MOL   H138 1586   3.307   2.929   6.221 -0.5001 -0.9337 -0.0349
    5MOL   H139 1587   3.353   2.785   6.128  0.9921  0.2553 -2.1153
    5MOL   H140 1588   3.203   3.017   6.009  1.1937 -0.1907  1.8051
    5MOL   H141 1589   3.108   2.893   6.089 -0.9999 -0.6327 -1.5366
    5MOL   H142 1590   3.209   2.717   5.959  0.0423 -0.5801  0.6709
    5MOL   H143 1591   3.282   2.811   5.848 -2.1373 -0.4714 -3.2387
    5MOL   H144 1592   2.980   2.801   5.885 -0.2746 -0.6877  0.3015
    5MOL   H145 1593   3.062   2.922   5.784 -1.9927 -0.7955 -0.9005
    5MOL   C146 1594   3.135   2.747   5.616 -0.2095 -0.2547  0.8053
    5MOL   O147 1595   3.172   2.861   5.578 -0.8107 -0.1398  0.1943
    5MOL   C148 1596   3.157   2.626   5.528 -0.3654  0.5950 -0.2282
    5MOL   C149 1597   3.302   2.623   5.465  0.5039 -0.0253 -0.6538
    5MOL   C150 1598   3.308   2.683   5.326  0.2500 -0.1949 -0.4376
    5MOL   C151 1599   3.448   2.684   5.261 -0.3581 -0.0299 -0.3590
    5MOL   C152 1600   3.449   2.767   5.129 -0.4904  0.0842  0.2126
    5MOL   O153 1601   3.366   2.718   5.025 -0.1148 -0.2913  0.3720
    5MOL   H154 1602   3.078   2.629   5.452 -1.8262 -1.5645  1.1468
    5MOL   H155 1603   3.133   2.536   5.584 -1.0470  0.3418 -0.9071
    5MOL   H156 1604   3.332   2.519   5.451  1.8908  0.1136  1.1085
    5MOL   H157 1605   3.381   2.672   5.522  0.8443 -0.6668 -0.5701
    5MOL   H158 1606   3.268   2.784   5.336 -0.5992 -0.4283 -1.4612
    5MOL   H159 1607   3.249   2.625   5.256 -0.6046  1.5768 -1.2254
    5MOL   H160 1608   3.481   2.583   5.237  1.2957  1.0421 -2.8168
    5MOL   H161 1609   3.524   2.726   5.326 -1.5049  1.6136 -0.0405
    5MOL   H162 1610   3.400   2.858   5.163  1.3720  1.9989 -2.0056
    5MOL   H163 1611   3.550   2.795   5.099  0.0690 -1.1669  0.8987
    5MOL   C164 1612   3.419   2.630   4.944 -0.5873  0.6360  0.4943
    5MOL   O165 1613   3.517   2.560   4.966  0.2882  0.2831  0.4731
    5MOL   C166 1614   3.332   2.612   4.822 -0.0818 -0.9934  0.1262
    5MOL   C167 1615   3.215   2.514   4.831 -0.0637 -0.0511 -0.3930
    5MOL   C168 1616   3.151   2.480   4.695  0.1228 -0.3106  0.4629
    5MOL   C169 1617   3.023   2.396   4.713  0.1994  0.2477  0.4961
    5MOL   C170 1618   2.911   2.467   4.784 -0.1751 -0.1098 -0.1799
    5MOL   O171 1619   2.786   2.402   4.763  0.8520  0.6412 -0.5316
    5MOL   H172 1620   3.390   2.579   4.736 -0.4752  0.3099 -0.6408
    5MOL   H173 1621   3.296   2.711   4.794  0.3106 -0.6195  0.9405
    5MOL   H174 1622   3.140   2.557   4.898  0.2290  0.4169 -0.3699
    5MOL   H175 1623   3.253   2.419   4.869 -1.1835  0.5578  2.4408
    5MOL   H176 1624   3.213   2.426   4.623 -0.8825  0.6238 -1.1462
    5MOL   H177 1625   3.127   2.568   4.634 -0.0217 -1.4414 -1.1303
    5MOL   H178 1626   3.042   2.302   4.765  0.9441  1.5485  2.6388
    5MOL   H179 1627   2.979   2.378   4.615 -0.3025 -0.4096  0.8405
    5MOL   H180 1628   2.942   2.473   4.889  2.7746 -0.5657 -0.9725
    5MOL   H181 1629   2.901   2.573   4.759  0.4914 -0.1915 -0.8158
    5MOL   C182 1630   2.673   2.446   4.824  0.2914  0.5251 -0.3462
    5MOL   O183 1631   2.677   2.508   4.928  0.6086  0.4340 -0.1916
    5MOL   C184 1632   2.548   2.392   4.750 -0.0749 -0.2380  0.3381
    5MOL   C185 1633   2.422   2.346   4.839 -0.7012 -0.2568 -0.0348
    5MOL   C186 1634   2.454   2.226   4.924 -0.6810  0.0374  0.6246
    5MOL   C187 1635   2.441   2.095   4.847 -0.1475  0.5696  0.5092
    5MOL   C188 1636   2.517   1.973   4.911 -0.1671 -0.1227 -0.3723
    5MOL   O189 1637   2.468   1.944   5.042 -0.4402 -0.5252  0.1937
    5MOL   H190 1638   2.587   2.314   4.684  0.3037  1.4240 -1.4199
    5MOL   H191 1639   2.502   2.465   4.685  0.9738  0.9721  0.9377
    5MOL   H192 1640   2.343   2.315   4.771 -1.2910 -2.1094  1.4360
    5MOL   H193 1641   2.377   2.424   4.900 -1.0936  0.3551 -1.1065
    5MOL   H194 1642   2.387   2.225   5.010 -1.0145  0.5132  0.3705
    5MOL   H195 1643   2.550   2.240   4.975  0.0477  0.4895 -0.8277
    5MOL   H196 1644   2.475   2.112   4.745  2.1732  2.1080  1.5037
    5MOL   H197 1645   2.335   2.071   4.836 -0.0710 -0.2714  1.4247
    5MOL   H198 1646   2.497   1.895   4.837  0.0892  0.0413 -0.6130
    5MOL   H199 1647   2.623   1.998   4.915 -0.0306 -0.4269 -1.7857
    5MOL   C200 1648   2.379   1.851   5.066 -0.3380 -0.8721  0.0574
    5MOL   O201 1649   2.330   1.782   4.979 -0.1454  0.2544 -0.8028
    5MOL   C202 1650   2.345   1.842   5.214  0.2034  0.0042 -0.1527
    5MOL   C203 1651   2.364   1.705   5.272 -0.0004  0.1982 -0.5915
    5MOL   C204 1652   2.340   1.702   5.426  0.0836  0.6466  0.2156
    5MOL   C205 1653   2.336   1.556   5.468  0.1586 -0.2313 -0.8461
    5MOL   C206 1654   2.302   1.540   5.622  0.3618 -0.0491 -0.4242
    5MOL   O207 1655   2.404   1.586   5.703  0.4544 -0.4236 -0.2309
    5MOL   H208 1656   2.242   1.878   5.227  0.5601  0.6407  1.0044
    5MOL   H209 1657   2.407   1.909   5.274 -1.0014 -0.7637  2.0127
    5MOL   H210 1658   2.464   1.679   5.236  0.7786  3.4432 -0.9238
    5MOL   H211 1659   2.303   1.634   5.218 -0.4161 -0.2688  0.4665
    5MOL   H212 1660   2.249   1.755   5.454  0.9249  1.5096  1.3826
    5MOL   H213 1661   2.416   1.747   5.490  0.0858 -3.1580  3.0601
    5MOL   H214 1662   2.426   1.498   5.447  0.4753  1.2428 -3.8697
    5MOL   H215 1663   2.256   1.513   5.407 -0.0689 -0.6527 -0.2494
    5MOL   H216 1664   2.212   1.596   5.647 -0.0202 -0.8516  0.0119
    5MOL   H217 1665   2.283   1.437   5.652 -0.6701  0.4155  0.5476
    5MOL   C218 1666   2.519   1.512   5.718  0.5074 -0.0027  0.0412
    5MOL   O219 1667   2.562   1.414   5.666 -0.4117 -0.4738  0.1931
    5MOL   C220 1668   2.607   1.578   5.815 -0.9382  0.0345 -0.0189
    5MOL   C221 1669   2.569   1.554   5.962 -0.0521 -0.5377 -0.4786
    5MOL   C222 1670   2.567   1.407   5.991 -0.0879 -0.0851  0.2193
    5MOL   C223 1671   2.543   1.369   6.133  0.2669 -0.2216  0.0871
    5MOL   C224 1672   2.477   1.227   6.142 -0.4262 -0.6476  0.8159
    5MOL   O225 1673   2.456   1.188   6.271  0.0388 -0.1453  0.3335
    5MOL   H226 1674   2.612   1.687   5.811  0.2392  0.0287  0.9508
    5MOL   H227 1675   2.709   1.542   5.805 -0.1171  2.6350 -1.4557
    5MOL   H228 1676   2.470   1.599   5.975 -0.1890 -1.0122  0.1584
    5MOL   H229 1677   2.638   1.600   6.033 -1.7455  0.6660  0.4361
    5MOL   H230 1678   2.654   1.352   5.955 -0.1713  0.8276 -1.4486
    5MOL   H231 1679   2.481   1.365   5.939  0.1926 -0.4321  0.0330
    5MOL   H232 1680   2.482   1.448   6.176  1.4401  0.8160 -0.1466
    5MOL   H233 1681   2.634   1.380   6.191  0.6206  0.3225 -0.5680
    5MOL   H234 1682   2.385   1.226   6.084 -0.7615  1.7104  1.2381
    5MOL   H235 1683   2.538   1.149   6.097  0.5635  1.7636 -2.1508
    5MOL   C236 1684   2.340   1.213   6.331 -0.2381  1.1809  0.4108
    5MOL   O237 1685   2.243   1.254   6.272 -0.1969 -0.2723  0.0716
    5MOL   C238 1686   2.336   1.174   6.475  0.0615 -0.1066 -0.5650
    5MOL   C239 1687   2.458   1.122   6.549 -0.8063  0.0100 -0.0350
    5MOL   C240 1688   2.573   1.222   6.567 -0.4681  0.3590 -0.1616
    5MOL   C241 1689   2.536   1.315   6.686  0.8229  0.0633  0.0092
    5MOL   C242 1690   2.653   1.410   6.717  0.0067  0.0125 -0.4373
    5MOL   O243 1691   2.766   1.346   6.773 -0.2265  0.7334  0.1472
    5MOL   H244 1692   2.258   1.099   6.480 -0.8510  0.9109  0.8535
    5MOL   H245 1693   2.308   1.259   6.538  0.3888 -0.9572  0.7559
    5MOL   H246 1694   2.501   1.045   6.484 -1.3868  0.3267 -0.8073
    5MOL   H247 1695   2.428   1.079   6.645 -0.8219 -1.0670 -0.5045
    5MOL   H248 1696   2.593   1.272   6.472  1.2321  1.1176  0.5592
    5MOL   H249 1697   2.656   1.157   6.597 -0.1058  0.7465 -0.3251
    5MOL   H250 1698   2.496   1.259   6.771 -1.0225 -1.7086 -1.9680
    5MOL   H251 1699   2.460   1.382   6.646 -1.0880 -1.7104  0.5681
    5MOL   H252 1700   2.685   1.467   6.630  2.1873 -1.2116 -0.4683
    5MOL   H253 1701   2.610   1.486   6.782 -4.5660 -2.0662 -0.8087
    5MOL   C254 1702   2.866   1.312   6.692 -0.2954  0.0574  0.1135
    5MOL   O255 1703   2.869   1.321   6.570  0.0399 -0.4538 -0.1043
    5MOL   C256 1704   2.993   1.272   6.766  0.2483 -0.6331 -0.4389
    5MOL   C257 1705   2.995   1.142   6.846  0.4372  0.3019  0.5083
    5MOL   C258 1706   3.009   1.011   6.776  0.7706  0.1483 -0.0872
    5MOL   C259 1707   3.159   0.980   6.743  0.0730  0.5637  0.5720
    5MOL   C260 1708   3.171   0.849   6.680  0.4400 -0.1760 -0.1415
    5MOL   O261 1709   3.303   0.827   6.640 -0.3616 -0.2512 -0.4027
    5MOL   H262 1710   3.017   1.351   6.837 -0.8390 -1.0986  0.4573
    5MOL   H263 1711   3.074   1.275   6.693  0.4993  1.0326 -0.1247
    5MOL   H264 1712   2.906   1.150   6.909  0.2826  1.1894  0.1789
    5MOL   H265 1713   3.077   1.151   6.917  0.6349  0.7927  0.2183
    5MOL   H266 1714   2.940   1.008   6.692  0.2098 -2.7541  0.4225
    5MOL   H267 1715   2.952   0.929   6.819  1.2497 -0.2410 -0.1876
    5MOL   H268 1716   3.213   0.990   6.837  0.3965 -0.6983  0.5392
    5MOL   H269 1717   3.203   1.056   6.679 -1.9607 -0.1174 -1.7250
    5MOL   H270 1718   3.161   0.763   6.746  2.5033 -0.0672  0.3282
    5MOL   H271 1719   3.101   0.835   6.597 -0.0268 -2.9418  0.6491
    5MOL   C272 1720   3.337   0.724   6.558 -0.1630 -1.4321  0.2803
    5MOL   O273 1721   3.274   0.623   6.532 -0.3810  0.1677 -0.2989
    5MOL   C274 1722   3.472   0.753   6.498 -0.8968 -0.1942  0.4554
    5MOL   C275 1723   3.489   0.892   6.429  0.5772  0.0542 -0.6428
    5MOL   C276 1724   3.564   1.000   6.512  0.0374  0.1039 -0.6017
    5MOL   C277 1725   3.608   1.121   6.423 -1.2650 -0.3195  0.6639
    5MOL   C278 1726   3.675   1.240   6.499  0.8533 -0.0303 -0.3714
    5MOL   O279 1727   3.702   1.345   6.411  0.4773  0.0211 -0.7018
    5MOL   H280 1728   3.485   0.666   6.433 -1.5912  1.5295 -2.0614
    5MOL   H281 1729   3.553   0.747   6.570 -3.0110  2.3914  3.1360
    5MOL   H282 1730   3.391   0.934   6.407  1.9669  3.2592 -0.9076
    5MOL   H283 1731   3.538   0.877   6.332  0.1750  0.5010 -0.9159
    5MOL   H284 1732   3.655   0.961   6.557  0.5105  1.1027 -0.6671
    5MOL   H285 1733   3.489   1.037   6.582  0.6496  0.8547 -0.3276
    5MOL   H286 1734   3.514   1.160   6.384 -0.6882  1.1639  0.7314
    5MOL   H287 1735   3.667   1.094   6.335 -1.5654  0.5424  0.1952
    5MOL   H288 1736   3.620   1.266   6.589  0.1689 -0.2718 -0.7159
    5MOL   H289 1737   3.764   1.192   6.540  1.0947  1.0584  0.3889
    5MOL   C290 1738   3.804   1.431   6.447  0.3878 -0.5413 -0.5181
    5MOL   O291 1739   3.881   1.407   6.546  0.5390 -0.3418 -0.0465
    5MOL   C292 1740   3.836   1.536   6.341  0.7956 -0.3668 -0.0044
    5MOL   C293 1741   3.951   1.636   6.374  0.2360 -0.2076 -0.1655
    5MOL   C294 1742   3.922   1.727   6.500  0.1657  0.8995  0.3005
    5MOL   C295 1743   3.799   1.819   6.490  0.8296  0.3031  0.1887
    5MOL   C296 1744   3.829   1.955   6.548  0.5753  0.7826  0.1290
    5MOL   O297 1745   3.826   1.959   6.688  0.3445  0.0433 -0.2737
    5MOL   H298 1746   3.753   1.597   6.305 -0.2132 -2.6643 -1.6679
    5MOL   H299 1747   3.874   1.482   6.254 -0.0592  0.1639 -0.7266
    5MOL   H300 1748   3.972   1.698   6.287 -1.9146 -0.4768 -0.9086
    5MOL   H301 1749   4.041   1.575   6.380 -1.1018 -2.3258 -1.0102
    5MOL   H302 1750   4.014   1.784   6.513  0.2828  1.0857 -1.1762
    5MOL   H303 1751   3.921   1.655   6.582 -0.2652  0.0556 -0.4332
    5MOL   H304 1752   3.715   1.772   6.541  0.8576  0.4226  0.3482
    5MOL   H305 1753   3.771   1.835   6.386  0.1394 -1.0762  0.1574
    5MOL   H306 1754   3.929   1.991   6.523  0.0058  0.7262 -2.2815
    5MOL   H307 1755   3.763   2.037   6.520 -0.7559  0.7078  2.8770
    5MOL   C308 1756   3.853   2.070   6.755  0.2297 -0.0830 -1.1028
    5MOL   O309 1757   3.849   2.183   6.710 -0.1296 -0.0046  0.3502
    5MOL   C310 1758   3.854   2.052   6.904  0.6072 -0.5792  0.0319
    5MOL   C311 1759   3.754   2.147   6.980 -0.0057 -0.2795  0.7442
    5MOL   C312 1760   3.697   2.092   7.114  0.5028 -0.0956  0.0137
    5MOL   C313 1761   3.604   2.191   7.187  0.6725 -0.5465  0.1584
    5MOL   C314 1762   3.558   2.140   7.317  0.7651 -0.7507 -0.5037
    5MOL   O315 1763   3.665   2.106   7.401  0.0527 -0.4690  0.0329
    5MOL   H316 1764   3.957   2.058   6.940  0.8718 -1.6551 -0.5416
    5MOL   H317 1765   3.815   1.952   6.924 -0.4400  0.2239  2.1628
    5MOL   H318 1766   3.667   2.172   6.920  0.4986  2.1115  0.9532
    5MOL   H319 1767   3.806   2.241   6.997 -0.0534 -0.2817  0.9079
    5MOL   H320 1768   3.788   2.068   7.169  2.2430  0.5173 -2.5008
    5MOL   H321 1769   3.646   1.997   7.095  1.1850 -0.7226  1.2459
    5MOL   H322 1770   3.514   2.220   7.132  2.0792 -2.2138 -3.1740
    5MOL   H323 1771   3.655   2.286   7.203  1.0574 -0.4912 -1.3013
    5MOL   H324 1772   3.498   2.220   7.361  1.2976 -0.8280  0.3899
    5MOL   H325 1773   3.497   2.051   7.301  0.0946 -0.2456 -0.7820
    5MOL   C326 1774   3.663   2.099   7.535  0.1390  0.0948  0.1851
    5MOL   O327 1775   3.559   2.117   7.603 -0.3628 -0.3925 -0.4250
    5MOL   C328 1776   3.798   2.057   7.588 -0.5894  0.4312  0.4021
    5MOL   C329 1777   3.894   1.968   7.500  0.0654 -0.6192  0.0064
    5MOL   C330 1778   3.851   1.825   7.474  0.5097  0.1257  0.1041
    5MOL   C331 1779   3.959   1.742   7.400 -0.0480 -0.4994  0.1521
    5MOL   C332 1780   3.918   1.596   7.381 -0.5943 -0.1264  0.6358
    5MOL   O333 1781   4.014   1.525   7.295 -0.3329  0.0155 -0.6795
    5MOL   H334 1782   3.785   2.016   7.688 -1.2597  1.1325  0.6085
    5MOL   H335 1783   3.848   2.153   7.600  0.0575  0.2377 -0.6789
    5MOL   H336 1784   3.994   1.964   7.543  0.4102 -0.2718 -0.7462
    5MOL   H337 1785   3.911   2.011   7.401  1.6495  0.8547  0.9072
    5MOL   H338 1786   3.764   1.829   7.409  0.3805 -0.2377  0.2522
    5MOL   H339 1787   3.821   1.774   7.566  1.4837 -0.1942  0.2580
    5MOL   H340 1788   4.051   1.746   7.459 -0.1382  1.7913  0.2010
    5MOL   H341 1789   3.985   1.786   7.303  1.1474  0.6212  0.9599
    5MOL   H342 1790   3.904   1.553   7.480 -1.5125 -1.7499 -0.1823
    5MOL   H343 1791   3.822   1.606   7.331  0.2175 -0.6335 -1.0738
    5MOL   C344 1792   4.091   1.435   7.349 -0.4430  0.1187  0.0315
    5MOL   O345 1793   4.092   1.402   7.466 -0.1936 -0.7126 -0.1484
    5MOL   C346 1794   4.178   1.367   7.242  0.1762  0.3356 -0.0056
    5MOL   C347 1795   4.185   1.212   7.252  0.8410 -0.1806  1.1885
    5MOL   C348 1796   4.312   1.156   7.324  0.3938  0.4831 -0.4901
    5MOL   C349 1797   4.322   1.001   7.331 -0.4237  0.1960  0.0466
    5MOL   C350 1798   4.464   0.970   7.392 -0.5508 -0.2856 -0.0045
    5MOL   O351 1799   4.470   0.838   7.445 -0.0169 -0.2877 -0.5773
    5MOL   H352 1800   4.278   1.411   7.249  1.7279 -3.0214 -0.2375
    5MOL   H353 1801   4.142   1.398   7.144 -0.0104  1.9440  0.5600
    5MOL   H354 1802   4.138   1.159   7.170  1.2704  1.3254 -0.0574
    5MOL   H355 1803   4.109   1.185   7.325  0.7997  2.6761  2.2664
    5MOL   H356 1804   4.317   1.208   7.420 -1.7935  1.1530 -0.7272
    5MOL   H357 1805   4.395   1.192   7.264  1.6445 -1.5188 -0.0198
    5MOL   H358 1806   4.317   0.962   7.229 -2.9785  1.2504 -0.2748
    5MOL   H359 1807   4.251   0.953   7.398  0.2143 -1.3805 -0.3690
    5MOL   H360 1808   4.543   0.993   7.320  0.2394 -2.6338  0.0552
    5MOL   H361 1809   4.488   1.049   7.463  1.7631  1.1902 -2.3569
    5MOL   H362 1810   4.487   0.839   7.538 -1.8654 -0.7545 -0.2018
    6MOL     C1 1811   2.786   3.981   1.540  0.1537  0.4916  0.3575
    6MOL     O2 1812   2.769   4.078   1.615  0.4004  0.0435 -0.1440
    6MOL     C3 1813   2.916   3.901   1.526  0.6362 -0.6601  0.7473
    6MOL     C4 1814   3.031   4.001   1.537 -0.6895  0.1643  0.3803
    6MOL     C5 1815   3.158   3.960   1.454  0.0517 -0.2683 -0.4900
    6MOL     C6 1816   3.128   3.972   1.305  0.0660  0.6263 -0.4768
    6MOL     C7 1817   3.240   3.917   1.218  0.7175  0.0868  0.3093
    6MOL     O8 1818   3.186   3.878   1.090  0.2626  0.1571 -0.1432
    6MOL     H9 1819   2.912   3.835   1.440  0.1149 -2.1011  1.8446
    6MOL    H10 1820   2.923   3.839   1.616 -1.6382 -3.9394 -1.2107
    6MOL    H11 1821   3.061   3.994   1.642  0.5560  1.3914  0.1145
    6MOL    H12 1822   3.004   4.104   1.519  0.9479  0.5415 -0.0068
    6MOL    H13 1823   3.185   3.858   1.480 -1.6073 -0.9415 -1.3335
    6MOL    H14 1824   3.249   4.016   1.476  0.3720 -0.0638 -2.2372
    6MOL    H15 1825   3.107   4.078   1.287 -0.0210  0.5610 -0.7476
    6MOL    H16 1826   3.041   3.912   1.280  1.3822 -0.9391 -1.3775
    6MOL    H17 1827   3.314   3.995   1.201 -1.4007  2.0583 -0.1851
    6MOL    H18 1828   3.298   3.839   1.267  1.9220  0.8745  0.1545
    6MOL    H19 1829   2.705   3.947   1.474  0.3516  1.4089 -0.3692
    6MOL    C20 1830   3.232   3.772   1.028  0.4258  0.1040 -0.0473
    6MOL    O21 1831   3.334   3.706   1.058 -0.1391  0.4093  0.0380
    6MOL    C22 1832   3.147   3.741   0.904 -0.3050  0.4110 -0.2437
    6MOL    C23 1833   3.187   3.615   0.830  0.1136 -0.5577  0.2652
    6MOL    C24 1834   3.088   3.571   0.717  0.0599 -0.3195  0.3841
    6MOL    C25 1835   3.072   3.676   0.605  0.1693  0.0198  0.6274
    6MOL    C26 1836   2.975   3.607   0.507 -0.1873 -0.4837 -0.0891
    6MOL    O27 1837   2.949   3.686   0.391 -0.3429 -0.4956  0.4926
    6MOL    H28 1838   3.139   3.835   0.849 -0.6176  0.2922 -0.3987
    6MOL    H29 1839   3.054   3.718   0.956 -0.0755 -2.3377 -0.9910
    6MOL    H30 1840   3.185   3.535   0.905  0.8316 -1.1257 -0.3151
    6MOL    H31 1841   3.289   3.613   0.791  0.4691  0.4075  1.1238
    6MOL    H32 1842   2.999   3.552   0.776  0.4972 -0.6009  0.9514
    6MOL    H33 1843   3.127   3.478   0.677  1.4696  0.6573 -0.5849
    6MOL    H34 1844   3.169   3.693   0.560  0.0841  0.6145  0.6695
    6MOL    H35 1845   3.033   3.771   0.640 -1.6671 -0.6400  0.4923
    6MOL    H36 1846   3.017   3.516   0.465  2.2576  0.4832  0.1804
    6MOL    H37 1847   2.890   3.580   0.569  0.8650 -1.2590  1.0469
    6MOL    C38 1848   2.843   3.659   0.320 -0.2769 -0.4939 -0.6450
    6MOL    O39 1849   2.770   3.563   0.345 -0.1668 -0.0631 -0.3261
    6MOL    C40 1850   2.823   3.754   0.204 -0.2999  0.4388  0.5668
    6MOL    C41 1851   2.669   3.770   0.158 -0.6515  0.3321  0.2161
    6MOL    C42 1852   2.623   3.654   0.067 -0.1621  0.8220  0.4527
    6MOL    C43 1853   2.472   3.646   0.035 -0.7198 -0.2034  0.0435
    6MOL    C44 1854   2.390   3.627   0.165  0.4345  0.3792  0.5276
    6MOL    O45 1855   2.406   3.493   0.209  0.1009  0.4648  0.4528
    6MOL    H46 1856   2.873   3.714   0.117  2.8416  0.1249  2.4456
    6MOL    H47 1857   2.864   3.853   0.224  1.7852 -0.1505 -0.6735
    6MOL    H48 1858   2.660   3.867   0.110 -0.0619  0.9360  1.2971
    6MOL    H49 1859   2.618   3.782   0.254 -1.5499 -0.5684 -0.1451
    6MOL    H50 1860   2.655   3.559   0.111  2.5342  1.6629  0.3822
    6MOL    H51 1861   2.672   3.668   7.815  2.3937  0.0184  1.5847
    6MOL    H52 1862   2.452   3.563   7.812 -0.4789  1.6756 -2.4014
    6MOL    H53 1863   2.453   3.734   7.818  2.2170  1.8629  1.9741
    6MOL    H54 1864   2.425   3.695   0.242  1.7660 -2.5426  2.5803
    6MOL    H55 1865   2.289   3.654   0.132  0.2262 -0.8621  0.1204
    6MOL    C56 1866   2.309   3.397   0.194 -0.1224  0.3998  0.2395
    6MOL    O57 1867   2.190   3.414   0.170  0.0066  1.1413 -0.1326
    6MOL    C58 1868   2.355   3.249   0.209 -0.3473  0.9532  0.8807
    6MOL    C59 1869   2.376   3.225   0.359  0.1864  0.0546  0.3549
    6MOL    C60 1870   2.518   3.274   0.415 -0.5890  0.0758  0.2407
    6MOL    C61 1871   2.517   3.392   0.513 -0.3817 -0.3081  0.3004
    6MOL    C62 1872   2.446   3.373   0.654  0.1855  0.5197 -0.1258
    6MOL    O63 1873   2.485   3.486   0.737 -0.2120  0.5931 -0.6691
    6MOL    H64 1874   2.436   3.218   0.143 -0.9303 -0.3062  0.7389
    6MOL    H65 1875   2.278   3.182   0.172  0.7102  0.1024  0.1820
    6MOL    H66 1876   2.381   3.116   0.373 -0.2761  0.0665  0.6165
    6MOL    H67 1877   2.301   3.270   0.423  0.2106 -0.5819  0.8384
    6MOL    H68 1878   2.578   3.302   0.329  1.1935 -0.4398  1.2961
    6MOL    H69 1879   2.564   3.196   0.475  0.5404  0.8348  0.3902
    6MOL    H70 1880   2.470   3.476   0.462 -0.1092  1.1388  2.3770
    6MOL    H71 1881   2.619   3.428   0.529 -1.0937  0.9546  2.0927
    6MOL    H72 1882   2.337   3.384   0.645 -0.0742 -0.4871  1.6314
    6MOL    H73 1883   2.477   3.283   0.706  0.5380  1.6522  1.6600
    6MOL    C74 1884   2.568   3.467   0.848 -0.0665 -0.1400  0.4182
    6MOL    O75 1885   2.615   3.354   0.883 -0.2462 -0.3044 -0.2901
    6MOL    C76 1886   2.593   3.595   0.923  0.7785 -0.5350 -0.3676
    6MOL    C77 1887   2.684   3.564   1.045  0.0388 -0.2921 -0.6960
    6MOL    C78 1888   2.696   3.678   1.144  0.0488 -0.1615 -0.3747
    6MOL    C79 1889   2.775   3.790   1.096 -0.8136 -0.0087  0.2463
    6MOL    C80 1890   2.754   3.914   1.173  0.6686 -0.3699 -0.0158
    6MOL    O81 1891   2.841   4.008   1.126  0.2889 -0.5908  0.2110
    6MOL    H82 1892   2.497   3.628   0.963  1.3686  1.0639 -0.2461
    6MOL    H83 1893   2.626   3.679   0.862 -3.4953  1.3605 -0.2379
    6MOL    H84 1894   2.779   3.530   1.004  0.2768  0.8506 -1.1060
    6MOL    H85 1895   2.653   3.473   1.097  1.4261 -0.1499  0.4082
    6MOL    H86 1896   2.736   3.636   1.237  0.5189  0.8955 -0.1032
    6MOL    H87 1897   2.600   3.721   1.175 -0.0634  0.1401 -1.1321
    6MOL    H88 1898   2.751   3.802   0.990  1.2453  0.5183 -0.1863
    6MOL    H89 1899   2.882   3.768   1.099  0.0073  3.5747 -0.3645
    6MOL    H90 1900   2.653   3.947   1.147 -0.7319 -3.2300  1.5096
    6MOL    H91 1901   2.772   3.895   1.279 -1.0791 -2.6211 -0.0761
    6MOL    C92 1902   2.826   4.137   1.173 -0.0322 -0.0916 -0.1849
    6MOL    O93 1903   2.750   4.173   1.262  0.2648  0.0340 -0.2711
    6MOL    C94 1904   2.928   4.222   1.102  0.4361 -0.5913  0.2631
    6MOL    C95 1905   2.893   4.268   0.961  0.2787 -0.2160 -0.1991
    6MOL    C96 1906   2.760   4.330   0.939 -0.0730  0.1114 -0.0602
    6MOL    C97 1907   2.742   4.398   0.804 -0.3756 -0.1250  0.3885
    6MOL    C98 1908   2.602   4.471   0.778  0.4613 -0.1552  0.5295
    6MOL    O99 1909   2.579   4.509   0.643 -0.6731  0.1926 -0.0999
    6MOL   H100 1910   3.024   4.173   1.092  1.2550  1.0261 -0.0387
    6MOL   H101 1911   2.945   4.311   1.162  1.4851  0.1115 -1.0462
    6MOL   H102 1912   2.893   4.187   0.887 -1.3793 -0.7496  0.3659
    6MOL   H103 1913   2.968   4.335   0.919  0.7524 -1.7311 -1.8756
    6MOL   H104 1914   2.731   4.412   1.005 -2.1009 -0.1338 -0.6173
    6MOL   H105 1915   2.679   4.257   0.950 -0.6115  0.8273  0.8525
    6MOL   H106 1916   2.727   4.317   0.733 -2.9603  1.3231 -0.7895
    6MOL   H107 1917   2.827   4.461   0.780 -1.6409  1.8169  0.9265
    6MOL   H108 1918   2.519   4.418   0.826 -0.7617  3.0055  2.0167
    6MOL   H109 1919   2.600   4.568   0.827 -2.6523  0.6241 -0.9981
    6MOL   C110 1920   2.515   4.420   0.567 -0.1437 -0.3540  0.0130
    6MOL   O111 1921   2.476   4.311   0.596 -0.0328  0.0890  0.1601
    6MOL   C112 1922   2.511   4.466   0.423 -0.1644 -0.5871  0.2775
    6MOL   C113 1923   2.593   4.374   0.326  0.5724 -1.0986  0.1090
    6MOL   C114 1924   2.544   4.381   0.181  0.3894  0.5467 -0.0079
    6MOL   C115 1925   2.631   4.283   0.099  0.5379  0.2514 -0.2565
    6MOL   C116 1926   2.585   4.137   0.104 -0.7954  0.0381 -0.6156
    6MOL   O117 1927   2.466   4.127   0.036  0.0135  0.5054  0.1725
    6MOL   H118 1928   2.556   4.565   0.411 -1.6007  0.1233  0.6949
    6MOL   H119 1929   2.405   4.462   0.395  0.0148  0.3915 -0.5709
    6MOL   H120 1930   2.594   4.273   0.368  1.3277 -0.9929  0.3565
    6MOL   H121 1931   2.700   4.398   0.330  0.3783 -0.2967  0.7184
    6MOL   H122 1932   2.548   4.485   0.148  0.7624  0.3488 -0.5868
    6MOL   H123 1933   2.441   4.347   0.173  0.6320 -0.3839  0.7366
    6MOL   H124 1934   2.735   4.280   0.132 -0.2047 -1.6181  2.1155
    6MOL   H125 1935   2.630   4.309   7.838  0.0658 -0.8400 -0.5309
    6MOL   H126 1936   2.666   4.076   0.063 -0.4459  0.9917 -1.3642
    6MOL   H127 1937   2.566   4.113   0.208  2.4074 -0.7700 -0.1674
    6MOL   C128 1938   2.373   4.042   0.080  0.6157 -0.6002  0.0824
    6MOL   O129 1939   2.386   3.953   0.168  0.1574  0.4168  0.0798
    6MOL   C130 1940   2.234   4.070   0.019 -0.2663 -0.6645  0.2265
    6MOL   C131 1941   2.140   3.946   0.008 -0.7023  0.1953 -0.5177
    6MOL   C132 1942   2.190   3.847   7.745  0.0586  0.5215 -0.2869
    6MOL   C133 1943   2.077   3.797   7.658 -0.3426  0.5770  0.2982
    6MOL   C134 1944   2.135   3.707   7.548  0.2240 -0.3724 -0.2192
    6MOL   O135 1945   2.067   3.730   7.421  0.5617 -0.2690  0.0762
    6MOL   H136 1946   2.258   4.111   7.766  2.2967 -0.9866  0.6824
    6MOL   H137 1947   2.188   4.141   0.088  0.2466  0.5411 -0.6798
    6MOL   H138 1948   2.034   3.971   0.002 -1.7473 -3.6923  0.3514
    6MOL   H139 1949   2.141   3.887   0.100  0.4065 -0.7388 -1.1164
    6MOL   H140 1950   2.239   3.761   7.790 -0.4941  1.8033  2.9037
    6MOL   H141 1951   2.264   3.892   7.679 -0.2193 -0.8694 -1.5942
    6MOL   H142 1952   2.033   3.880   7.602 -0.6227  1.1109  1.2919
    6MOL   H143 1953   2.001   3.744   7.714  1.3684  0.3602  2.4710
    6MOL   H144 1954   2.244   3.715   7.537  0.1149  0.3920 -0.7841
    6MOL   H145 1955   2.129   3.601   7.572 -0.2469 -0.3850 -0.3932
    6MOL   C146 1956   1.947   3.676   7.397 -0.1251  0.2688 -0.5638
    6MOL   O147 1957   1.889   3.601   7.476 -0.6994 -0.2752  0.1974
    6MOL   C148 1958   1.878   3.721   7.266  0.2355 -0.5969  0.8211
    6MOL   C149 1959   1.751   3.633   7.231  0.1974  0.0281  0.5632
    6MOL   C150 1960   1.675   3.658   7.100 -0.0532  0.7020  0.0230
    6MOL   C151 1961   1.762   3.661   6.978 -0.4693 -0.3201 -0.3804
    6MOL   C152 1962   1.676   3.716   6.862 -0.4973 -0.6265 -0.3608
    6MOL   O153 1963   1.576   3.627   6.801  0.4508 -0.2461 -0.1428
    6MOL   H154 1964   1.953   3.724   7.186 -1.7161  0.6623 -1.0227
    6MOL   H155 1965   1.835   3.820   7.282  0.3561 -0.7355  2.0531
    6MOL   H156 1966   1.678   3.640   7.311  0.5716  0.3016  0.8884
    6MOL   H157 1967   1.787   3.530   7.227  2.0482  0.6965 -0.9337
    6MOL   H158 1968   1.619   3.751   7.108  1.3743  1.5013  0.9465
    6MOL   H159 1969   1.601   3.579   7.107 -0.8085  1.5893  3.1247
    6MOL   H160 1970   1.800   3.563   6.948 -0.4213 -0.5560  0.4593
    6MOL   H161 1971   1.827   3.744   7.004 -1.1889 -0.0297  0.5326
    6MOL   H162 1972   1.630   3.809   6.896  1.1842  0.3221 -0.6475
    6MOL   H163 1973   1.744   3.751   6.785 -3.8417 -1.2903 -3.8100
    6MOL   C164 1974   1.596   3.573   6.675  0.0438  0.1761 -0.1141
    6MOL   O165 1975   1.691   3.600   6.601  0.3173  0.6422  0.2281
    6MOL   C166 1976   1.497   3.465   6.635  0.2814  0.1933 -0.2736
    6MOL   C167 1977   1.534   3.323   6.683 -0.5900  0.1896 -0.2529
    6MOL   C168 1978   1.681   3.276   6.649  0.4163  0.5135  0.3703
    6MOL   C169 1979   1.705   3.127   6.658  0.2082  0.2332  0.2189
    6MOL   C170 1980   1.848   3.081   6.605 -0.4474 -0.0603 -0.1115
    6MOL   O171 1981   1.866   2.935   6.618  0.3165  0.1450 -0.5994
    6MOL   H172 1982   1.496   3.466   6.526  0.0035 -0.5781 -0.2752
    6MOL   H173 1983   1.397   3.481   6.674 -0.9064 -5.7719 -0.3883
    6MOL   H174 1984   1.463   3.249   6.646 -0.7278 -0.2414  0.8706
    6MOL   H175 1985   1.511   3.307   6.788 -2.7990  0.6888 -0.6336
    6MOL   H176 1986   1.755   3.330   6.708  2.5638 -0.0286 -1.7602
    6MOL   H177 1987   1.716   3.303   6.550 -2.5927 -0.0737 -0.8977
    6MOL   H178 1988   1.622   3.075   6.610 -0.2660  2.0555 -0.9872
    6MOL   H179 1989   1.707   3.113   6.766  2.1508  0.4367  0.2344
    6MOL   H180 1990   1.859   3.100   6.498  0.6535 -1.3023 -0.2244
    6MOL   H181 1991   1.929   3.126   6.663 -1.0529  0.1246  0.5997
    6MOL   C182 1992   1.936   2.888   6.721 -0.1352  0.4572  0.4900
    6MOL   O183 1993   1.967   2.958   6.816  0.5363 -0.6355 -0.1962
    6MOL   C184 1994   1.988   2.750   6.698 -0.1249 -0.1426 -0.5038
    6MOL   C185 1995   2.128   2.727   6.758  0.1547  0.2710  0.1700
    6MOL   C186 1996   2.187   2.591   6.715 -0.1578 -0.5412 -0.6220
    6MOL   C187 1997   2.334   2.578   6.779  0.2546  0.2022 -0.0784
    6MOL   C188 1998   2.421   2.468   6.717 -1.4311  0.2123 -0.2537
    6MOL   O189 1999   2.342   2.353   6.706 -0.1381  0.1512  0.2637
    6MOL   H190 2000   2.005   2.731   6.591 -1.0517  0.1713 -0.7120
    6MOL   H191 2001   1.915   2.683   6.743 -0.5231  0.7808  0.2343
    6MOL   H192 2002   2.138   2.732   6.866  0.8829 -1.1078  0.1756
    6MOL   H193 2003   2.204   2.803   6.739  1.5660 -1.1633 -0.0625
    6MOL   H194 2004   2.183   2.591   6.606  2.3767 -0.0828 -0.7435
    6MOL   H195 2005   2.122   2.507   6.739  0.5457 -0.8238  0.3039
    6MOL   H196 2006   2.323   2.558   6.886  2.8166  1.7441  0.5319
    6MOL   H197 2007   2.392   2.670   6.770  1.0463 -0.2469  0.3508
    6MOL   H198 2008   2.461   2.499   6.621 -0.8912 -1.4499 -0.5907
    6MOL   H199 2009   2.508   2.442   6.778  0.1409  1.3625 -1.9662
    6MOL   C200 2010   2.358   2.244   6.779  0.2909 -0.6865 -0.4773
    6MOL   O201 2011   2.439   2.229   6.875 -0.3090  0.1919 -0.1909
    6MOL   C202 2012   2.252   2.138   6.749  0.2292 -0.2342 -0.0088
    6MOL   C203 2013   2.303   2.007   6.699 -0.1575  0.0200  1.2194
    6MOL   C204 2014   2.358   2.006   6.559  0.7503 -0.4822  0.2815
    6MOL   C205 2015   2.418   1.871   6.522  0.1259  0.1425  0.6027
    6MOL   C206 2016   2.446   1.856   6.366 -0.1226  0.0693 -0.4662
    6MOL   O207 2017   2.577   1.802   6.337  0.0045 -0.2629  0.0918
    6MOL   H208 2018   2.191   2.173   6.666  3.0616 -0.4400 -2.2482
    6MOL   H209 2019   2.195   2.117   6.840  1.2402 -0.7785  0.5108
    6MOL   H210 2020   2.213   1.946   6.705  0.1814 -0.8562 -1.6941
    6MOL   H211 2021   2.379   1.980   6.771  1.1741  0.5287  0.0409
    6MOL   H212 2022   2.432   2.082   6.533 -1.1993  1.4895  0.3631
    6MOL   H213 2023   2.268   2.016   6.498  0.5611 -4.4269 -0.2120
    6MOL   H214 2024   2.351   1.794   6.560 -0.6943  0.9380  0.7918
    6MOL   H215 2025   2.508   1.854   6.582  0.7725  0.9324 -0.1251
    6MOL   H216 2026   2.370   1.787   6.332 -1.9247  0.9447  1.6763
    6MOL   H217 2027   2.423   1.948   6.313 -0.7586 -0.2863 -0.8002
    6MOL   C218 2028   2.612   1.669   6.384  0.2896 -0.2272 -0.0394
    6MOL   O219 2029   2.531   1.604   6.446 -0.0354  0.1080 -0.5637
    6MOL   C220 2030   2.738   1.610   6.326  0.1502 -0.3326 -0.0909
    6MOL   C221 2031   2.856   1.695   6.379 -0.1068  0.5705  0.0124
    6MOL   C222 2032   2.905   1.664   6.525  0.1430  0.1205  0.1043
    6MOL   C223 2033   3.023   1.751   6.566 -0.1362  0.0568 -0.0414
    6MOL   C224 2034   3.079   1.702   6.695 -0.4685  0.1222 -0.0663
    6MOL   O225 2035   2.973   1.703   6.793 -0.4634  0.1589 -0.0765
    6MOL   H226 2036   2.738   1.608   6.217 -1.1814 -0.5255 -0.0891
    6MOL   H227 2037   2.746   1.510   6.370  2.0712 -0.1639  0.0222
    6MOL   H228 2038   2.827   1.798   6.362 -0.6551  0.2000 -1.3996
    6MOL   H229 2039   2.940   1.684   6.310  0.6953 -1.7534  1.2866
    6MOL   H230 2040   2.927   1.558   6.539 -1.9190 -0.0002  2.7624
    6MOL   H231 2041   2.827   1.688   6.596 -0.3733  0.4454 -0.5685
    6MOL   H232 2042   2.999   1.857   6.569  2.4790  0.7090 -0.4709
    6MOL   H233 2043   3.101   1.731   6.492  1.0210  0.7222  0.9733
    6MOL   H234 2044   3.127   1.606   6.677 -2.5303 -0.6896 -1.3820
    6MOL   H235 2045   3.161   1.768   6.724 -1.2453  0.9685  0.2097
    6MOL   C236 2046   2.987   1.651   6.911 -0.3090 -0.0696  0.4347
    6MOL   O237 2047   3.088   1.599   6.959 -0.1702 -0.0854 -0.6192
    6MOL   C238 2048   2.855   1.650   6.991 -0.6231  0.3498  0.9015
    6MOL   C239 2049   2.738   1.728   6.928  0.2768 -0.1102  0.1034
    6MOL   C240 2050   2.625   1.754   7.014  0.7852 -1.3425 -0.6615
    6MOL   C241 2051   2.504   1.817   6.954  1.1900 -0.2189 -0.1640
    6MOL   C242 2052   2.387   1.861   7.042 -0.2272  0.3592 -0.0382
    6MOL   O243 2053   2.267   1.824   6.977  0.0909  0.2056  0.1874
    6MOL   H244 2054   2.873   1.695   7.088 -0.1385  1.1008  0.4721
    6MOL   H245 2055   2.822   1.551   7.020 -1.1876  0.7720  1.7291
    6MOL   H246 2056   2.691   1.674   6.845 -1.3899  0.5115  0.6167
    6MOL   H247 2057   2.770   1.825   6.889  3.2735 -0.7994  0.7661
    6MOL   H248 2058   2.656   1.815   7.099  1.0494 -3.3300  0.6991
    6MOL   H249 2059   2.591   1.664   7.064  0.5868 -0.8843  0.0426
    6MOL   H250 2060   2.468   1.734   6.892 -0.3126 -1.1841  1.9436
    6MOL   H251 2061   2.541   1.900   6.894 -2.1511  0.8644 -0.8452
    6MOL   H252 2062   2.389   1.823   7.144 -2.0531  0.7911  0.1907
    6MOL   H253 2063   2.385   1.969   7.045  0.1352  0.3148  1.8653
    6MOL   C254 2064   2.153   1.848   7.045  0.0281 -0.8485 -0.1712
    6MOL   O255 2065   2.149   1.898   7.157 -0.4713 -0.4349  0.2445
    6MOL   C256 2066   2.024   1.810   6.968  0.4488 -1.1319 -0.0203
    6MOL   C257 2067   1.940   1.926   6.917 -0.2655  0.2006 -0.4210
    6MOL   C258 2068   1.798   1.904   6.858 -0.3264 -0.3895 -0.1845
    6MOL   C259 2069   1.684   1.890   6.969 -0.2024 -0.1943  0.4309
    6MOL   C260 2070   1.549   1.869   6.902 -0.1496 -0.4246  0.1324
    6MOL   O261 2071   1.539   1.754   6.820  0.6236 -0.2930 -0.5328
    6MOL   H262 2072   1.968   1.734   7.024 -0.6429 -1.7811 -1.9384
    6MOL   H263 2073   2.057   1.761   6.876 -0.8281 -1.0428 -0.5255
    6MOL   H264 2074   1.998   1.967   6.834 -1.7134  0.6397 -1.2210
    6MOL   H265 2075   1.941   2.007   6.991 -3.3980  1.7074 -1.9493
    6MOL   H266 2076   1.804   1.817   6.793 -1.4451 -0.5687 -0.0503
    6MOL   H267 2077   1.777   1.974   6.777 -0.5723  0.2523  0.4281
    6MOL   H268 2078   1.669   1.985   7.022  0.5294 -0.0190  0.3315
    6MOL   H269 2079   1.712   1.805   7.031 -0.1342 -1.8907 -1.8845
    6MOL   H270 2080   1.482   1.843   6.983 -1.1020  0.5354 -0.3409
    6MOL   H271 2081   1.517   1.963   6.857 -2.4916 -0.9119  0.7060
    6MOL   C272 2082   1.433   1.740   6.739 -0.3832  0.2461 -0.7060
    6MOL   O273 2083   1.331   1.810   6.733  0.0518 -0.1222  0.0419
    6MOL   C274 2084   1.444   1.615   6.658 -0.0177  0.6216 -0.2645
    6MOL   C275 2085   1.483   1.648   6.516  0.0221  0.0015 -0.2139
    6MOL   C276 2086   1.634   1.681   6.495  0.0583 -0.4665 -0.2635
    6MOL   C277 2087   1.662   1.825   6.509  0.5567 -0.4106 -0.4544
    6MOL   C278 2088   1.804   1.878   6.498 -0.6191 -0.3563 -0.4266
    6MOL   O279 2089   1.839   1.884   6.359  0.5915  0.0424  0.5541
    6MOL   H280 2090   1.349   1.563   6.654 -0.4669  1.4419 -0.3897
    6MOL   H281 2091   1.508   1.538   6.702 -0.5338 -0.6200 -1.6670
    6MOL   H282 2092   1.404   1.714   6.481 -2.0575 -2.3577 -0.1083
    6MOL   H283 2093   1.465   1.556   6.461 -0.3591 -0.5666  0.8607
    6MOL   H284 2094   1.672   1.645   6.400 -1.0663 -0.4731 -0.7099
    6MOL   H285 2095   1.689   1.634   6.577 -0.8881 -1.9523 -0.4628
    6MOL   H286 2096   1.619   1.865   6.601  1.4685 -1.4082  0.4099
    6MOL   H287 2097   1.603   1.877   6.433  1.5921  0.9283 -0.3642
    6MOL   H288 2098   1.817   1.978   6.537 -2.0473  0.3164 -1.6134
    6MOL   H289 2099   1.871   1.807   6.546  0.9984  1.6098  0.2625
    6MOL   C290 2100   1.969   1.867   6.323  0.0166 -0.6512  0.3043
    6MOL   O291 2101   2.066   1.847   6.397 -0.0925  0.1231  0.4590
    6MOL   C292 2102   1.987   1.860   6.170  0.1902  0.3695  0.2064
    6MOL   C293 2103   2.135   1.872   6.123  0.0166  0.1892  0.0824
    6MOL   C294 2104   2.141   1.917   5.979 -0.4918  0.5729 -0.1040
    6MOL   C295 2105   2.283   1.943   5.932  0.1996 -0.0843 -0.2854
    6MOL   C296 2106   2.281   1.946   5.778 -0.5334 -0.4944  0.0482
    6MOL   O297 2107   2.407   1.989   5.736 -0.2228  0.0840  0.6168
    6MOL   H298 2108   1.931   1.947   6.135  2.0185  1.4438 -0.0686
    6MOL   H299 2109   1.939   1.776   6.120 -0.3810  1.2419 -0.7285
    6MOL   H300 2110   2.188   1.778   6.136  1.1818  0.8522  0.1463
    6MOL   H301 2111   2.184   1.953   6.177  2.8043 -1.1531 -0.3396
    6MOL   H302 2112   2.072   2.001   5.965 -1.0215 -0.1057 -1.7551
    6MOL   H303 2113   2.097   1.841   5.914  0.2846 -0.3851  0.4686
    6MOL   H304 2114   2.349   1.864   5.966  0.5378 -0.1624 -1.1249
    6MOL   H305 2115   2.323   2.034   5.975  4.0854 -2.6936  1.8317
    6MOL   H306 2116   2.258   1.850   5.730  2.8553 -0.6181 -1.4083
    6MOL   H307 2117   2.206   2.020   5.749  1.6630  0.3954 -3.5478
    6MOL   C308 2118   2.433   2.033   5.615  0.3994  0.5624  0.1214
    6MOL   O309 2119   2.344   2.045   5.536 -0.2264 -0.1812  0.3853
    6MOL   C310 2120   2.580   2.081   5.593  0.0267 -0.2607  0.4966
    6MOL   C311 2121   2.589   2.230   5.632  0.2942 -0.0451 -0.4565
    6MOL   C312 2122   2.709   2.304   5.582 -0.6269 -0.0034 -0.6893
    6MOL   C313 2123   2.839   2.263   5.655 -0.7415 -0.6949 -0.0967
    6MOL   C314 2124   2.954   2.367   5.636 -0.6968  0.0675  0.2881
    6MOL   O315 2125   3.066   2.336   5.722  0.0462  0.5038  0.1814
    6MOL   H316 2126   2.593   2.077   5.484 -2.1421  0.6956  0.1687
    6MOL   H317 2127   2.651   2.021   5.650  1.3994 -1.9204 -2.7878
    6MOL   H318 2128   2.575   2.244   5.739 -0.4663  1.4680 -0.7405
    6MOL   H319 2129   2.503   2.273   5.580 -0.9524 -0.4420  1.2202
    6MOL   H320 2130   2.707   2.409   5.611  1.9726 -0.4452  1.3003
    6MOL   H321 2131   2.721   2.305   5.474  2.2298 -1.2435 -0.4142
    6MOL   H322 2132   2.872   2.163   5.629  2.1807  0.3403 -0.5141
    6MOL   H323 2133   2.824   2.262   5.763  1.7934 -0.3042  0.2695
    6MOL   H324 2134   2.991   2.360   5.534 -0.0001 -1.3631  0.6319
    6MOL   H325 2135   2.918   2.468   5.659 -2.2809  0.0339 -1.8997
    6MOL   C326 2136   3.056   2.346   5.853 -0.3257  0.6686  0.1901
    6MOL   O327 2137   2.968   2.400   5.917 -0.7164  0.5127  0.5388
    6MOL   C328 2138   3.169   2.266   5.919  0.2581  0.0545 -0.6669
    6MOL   C329 2139   3.235   2.345   6.033 -0.1103 -0.3129 -0.1609
    6MOL   C330 2140   3.366   2.423   6.000  0.4275 -0.3714  0.3785
    6MOL   C331 2141   3.484   2.339   5.938  0.3359 -0.1274  0.1356
    6MOL   C332 2142   3.622   2.415   5.944 -0.2165  0.5759 -0.4349
    6MOL   O333 2143   3.723   2.325   5.886  0.9169 -0.2919 -0.2829
    6MOL   H334 2144   3.234   2.237   5.836  0.0419 -0.2099 -0.7418
    6MOL   H335 2145   3.134   2.169   5.952  2.4039 -0.3268  0.6239
    6MOL   H336 2146   3.250   2.276   6.116  1.0518 -1.6685 -1.4535
    6MOL   H337 2147   3.166   2.416   6.076 -0.6455 -0.2843 -1.0602
    6MOL   H338 2148   3.399   2.465   6.095  0.7974  0.4629 -0.1055
    6MOL   H339 2149   3.346   2.505   5.931  2.8197  0.5125  0.6811
    6MOL   H340 2150   3.452   2.314   5.836  1.1620  0.0778 -0.1772
    6MOL   H341 2151   3.495   2.240   5.980  0.5834  0.2145  0.8779
    6MOL   H342 2152   3.622   2.509   5.890  1.4657  1.1959  0.6219
    6MOL   H343 2153   3.655   2.430   6.046  0.5124 -0.3408 -0.5309
    6MOL   C344 2154   3.805   2.249   5.964 -0.1950  0.0296 -0.3999
    6MOL   O345 2155   3.808   2.253   6.088  0.6893 -0.4011 -0.5477
    6MOL   C346 2156   3.896   2.155   5.884 -0.1362  0.2138  0.1022
    6MOL   C347 2157   4.027   2.205   5.836  0.1159  0.5661 -0.2651
    6MOL   C348 2158   4.124   2.246   5.941  0.6882 -0.0625  0.2275
    6MOL   C349 2159   4.170   2.139   6.028 -0.1786  0.0443  0.1729
    6MOL   C350 2160   4.273   2.181   6.129  0.1573  0.0212  0.3257
    6MOL   O351 2161   4.316   2.074   6.207  0.1835  0.2437 -0.0374
    6MOL   H352 2162   3.832   2.123   5.801  0.7433 -1.4064  0.0303
    6MOL   H353 2163   3.915   2.068   5.947 -2.2634  0.2683  0.8503
    6MOL   H354 2164   4.022   2.301   5.784  1.8783 -0.0379 -1.6067
    6MOL   H355 2165   4.079   2.140   5.765 -0.5060 -0.6143  0.3475
    6MOL   H356 2166   4.076   2.331   5.990 -2.9972 -1.6524 -0.4886
    6MOL   H357 2167   4.212   2.289   5.893  1.2948 -1.6417 -0.0950
    6MOL   H358 2168   4.213   2.059   5.967  0.9160  0.3820  0.4916
    6MOL   H359 2169   4.086   2.095   6.082 -1.0921 -1.1452 -2.1431
    6MOL   H360 2170   4.350   2.223   6.064  0.5143 -0.4954  0.4151
    6MOL   H361 2171   4.236   2.247   6.207 -0.8074 -0.2748  0.1299
    6MOL   H362 2172   4.377   2.017   6.161  0.9191  0.1269  1.0616
    7MOL     C1 2173   0.701   3.091   2.950  0.5463 -0.2443  0.1103
    7MOL     O2 2174   0.755   3.142   2.854 -0.1602 -0.2332  0.7424
    7MOL     C3 2175   0.785   3.017   3.057  0.6671  0.1571 -0.6736
    7MOL     C4 2176   0.932   2.979   3.009 -0.5409 -0.4054  0.0806
    7MOL     C5 2177   1.037   3.097   3.009 -0.3342 -1.1000 -0.9554
    7MOL     C6 2178   1.096   3.124   3.141 -0.0338 -0.2586 -0.2829
    7MOL     C7 2179   1.178   3.255   3.141  0.0464  0.0765 -0.0445
    7MOL     O8 2180   1.224   3.284   3.275 -0.1945  0.0298  0.6486
    7MOL     H9 2181   0.726   2.926   3.070 -0.8673  1.2455  0.2280
    7MOL    H10 2182   0.789   3.072   3.152  1.8966 -1.1564  0.0498
    7MOL    H11 2183   0.922   2.933   2.911 -1.7063 -1.4316  0.6655
    7MOL    H12 2184   0.980   2.913   3.081  0.4778  1.0493  0.7415
    7MOL    H13 2185   1.004   3.188   2.958 -1.0750 -1.1280 -0.5324
    7MOL    H14 2186   1.127   3.066   2.956  1.9077 -1.7004  3.0814
    7MOL    H15 2187   1.158   3.040   3.174 -1.0373 -0.7094  0.5030
    7MOL    H16 2188   1.027   3.144   3.222 -1.3800 -0.6431 -1.3221
    7MOL    H17 2189   1.262   3.242   3.072  0.7761 -0.9075  1.0239
    7MOL    H18 2190   1.103   3.328   3.111  0.1431 -0.0616 -0.6412
    7MOL    H19 2191   0.596   3.101   2.978  0.6151 -1.7540  0.9934
    7MOL    C20 2192   1.279   3.404   3.297  0.3355  0.3314 -0.3603
    7MOL    O21 2193   1.316   3.486   3.210  0.3141  0.5105 -0.4193
    7MOL    C22 2194   1.296   3.424   3.447 -0.5912  0.3997  0.1611
    7MOL    C23 2195   1.374   3.558   3.477 -0.0584 -0.1116  0.0784
    7MOL    C24 2196   1.393   3.589   3.631 -0.3926  0.4649  0.4419
    7MOL    C25 2197   1.257   3.615   3.687  0.4273  0.1378 -0.6639
    7MOL    C26 2198   1.273   3.671   3.830 -0.2288  0.0140 -0.0934
    7MOL    O27 2199   1.144   3.687   3.894 -0.1155 -0.6441 -0.1937
    7MOL    H28 2200   1.366   3.345   3.476  0.9536  1.0478 -1.6918
    7MOL    H29 2201   1.201   3.409   3.498  0.1894 -1.7119  1.0677
    7MOL    H30 2202   1.316   3.635   3.425 -0.7263 -0.2216  0.6612
    7MOL    H31 2203   1.474   3.552   3.434  1.1402 -0.3946  2.7936
    7MOL    H32 2204   1.458   3.669   3.668 -0.9029  0.7139  0.8133
    7MOL    H33 2205   1.437   3.502   3.678  0.5261 -0.1160 -1.4369
    7MOL    H34 2206   1.196   3.525   3.674  0.9644 -0.0226 -2.1127
    7MOL    H35 2207   1.208   3.699   3.639 -1.0148 -0.2986  0.0116
    7MOL    H36 2208   1.338   3.600   3.882  0.2306  0.5106  0.0108
    7MOL    H37 2209   1.328   3.765   3.831  1.5857 -1.0343  0.1896
    7MOL    C38 2210   1.138   3.737   4.024  0.8722 -0.1997  0.6681
    7MOL    O39 2211   1.227   3.783   4.093  0.2454 -0.1547  0.1118
    7MOL    C40 2212   0.997   3.731   4.068  0.0104  0.6933 -0.4993
    7MOL    C41 2213   0.920   3.846   4.010 -0.3815 -0.4999  0.5313
    7MOL    C42 2214   0.944   3.981   4.084  0.6817 -0.5452 -0.2416
    7MOL    C43 2215   0.912   3.980   4.233 -0.0307  0.1783 -0.5615
    7MOL    C44 2216   1.031   3.987   4.335  0.2709  0.2106  0.3895
    7MOL    O45 2217   0.987   3.950   4.466 -0.5728  0.3944 -0.1521
    7MOL    H46 2218   0.992   3.737   4.177 -0.5475 -1.1662 -0.4042
    7MOL    H47 2219   0.949   3.636   4.045  3.0012 -1.2613  0.9854
    7MOL    H48 2220   0.819   3.807   3.998 -1.3792  1.6062  1.7041
    7MOL    H49 2221   0.947   3.867   3.907 -2.9476 -2.8551 -0.6874
    7MOL    H50 2222   0.895   4.072   4.050  0.5361 -0.3864  0.3905
    7MOL    H51 2223   1.051   4.001   4.074  0.5332  1.7549  2.1564
    7MOL    H52 2224   0.837   3.909   4.268  0.2418  1.0576  1.9230
    7MOL    H53 2225   0.865   4.076   4.254  1.4827 -0.0533  4.6957
    7MOL    H54 2226   1.103   3.914   4.299  1.4512  0.6553  1.7869
    7MOL    H55 2227   1.084   4.082   4.341  1.1381 -0.0653 -2.4924
    7MOL    C56 2228   1.072   3.930   4.562 -0.3913 -0.5072 -0.1801
    7MOL    O57 2229   1.197   3.945   4.564  0.4459  0.1844  0.0912
    7MOL    C58 2230   0.993   3.888   4.681  0.8849  0.2826 -0.1378
    7MOL    C59 2231   0.958   3.733   4.682 -0.0867  0.0518  0.1325
    7MOL    C60 2232   0.955   3.677   4.828  0.3314 -0.1407 -0.5293
    7MOL    C61 2233   0.927   3.527   4.831  0.9828  0.6890 -0.0419
    7MOL    C62 2234   0.915   3.453   4.965 -0.2511 -0.4044  0.2825
    7MOL    O63 2235   1.050   3.444   5.008  0.1451 -0.1732  0.4200
    7MOL    H64 2236   0.907   3.954   4.677  1.2905  0.7208 -4.0501
    7MOL    H65 2237   1.049   3.917   4.770  0.8987  1.0515 -0.3921
    7MOL    H66 2238   1.043   3.682   4.637 -0.4745 -1.8155  1.4525
    7MOL    H67 2239   0.868   3.708   4.626  0.2606 -1.7510  0.3273
    7MOL    H68 2240   0.890   3.740   4.889  0.3208  0.6747 -1.3498
    7MOL    H69 2241   1.050   3.702   4.875  0.3447  0.9178 -1.0925
    7MOL    H70 2242   1.002   3.478   4.768 -0.5342  1.0297 -2.1555
    7MOL    H71 2243   0.828   3.526   4.785  0.6433  1.3685  0.6697
    7MOL    H72 2244   0.858   3.507   5.040  0.5131  0.5195  0.2035
    7MOL    H73 2245   0.870   3.355   4.948 -1.3978 -0.3794  2.8662
    7MOL    C74 2246   1.088   3.370   5.120  0.1557 -0.6722 -0.4285
    7MOL    O75 2247   1.009   3.318   5.198  0.2738 -0.1309  0.2638
    7MOL    C76 2248   1.241   3.347   5.125  0.4570 -0.1396 -0.5344
    7MOL    C77 2249   1.314   3.469   5.203 -0.2979 -0.9727 -0.0784
    7MOL    C78 2250   1.311   3.605   5.137 -0.1328  0.4034  0.5453
    7MOL    C79 2251   1.406   3.623   5.015 -0.0039  0.4068 -0.5756
    7MOL    C80 2252   1.367   3.743   4.941  0.6443  0.3323 -0.5235
    7MOL    O81 2253   1.408   3.861   5.010  0.1594 -0.2158  0.2675
    7MOL    H82 2254   1.291   3.331   5.029 -0.2962  0.5791 -1.0547
    7MOL    H83 2255   1.261   3.261   5.189 -2.3222  0.1172  0.7450
    7MOL    H84 2256   1.417   3.450   5.233 -0.3006 -0.0902  0.4874
    7MOL    H85 2257   1.275   3.470   5.305 -1.4849  0.5140 -0.5406
    7MOL    H86 2258   1.337   3.679   5.213 -0.3298  2.0730 -0.9828
    7MOL    H87 2259   1.209   3.637   5.112 -0.5623  0.4347  2.2258
    7MOL    H88 2260   1.385   3.547   4.940  2.4292 -2.2990  1.4077
    7MOL    H89 2261   1.513   3.618   5.033 -0.2726  0.4006  1.0758
    7MOL    H90 2262   1.390   3.738   4.835  2.1857  0.5407 -0.2137
    7MOL    H91 2263   1.259   3.753   4.945  0.7337  1.2095 -0.1944
    7MOL    C92 2264   1.533   3.903   4.965 -0.4296 -0.5208 -0.6458
    7MOL    O93 2265   1.596   3.852   4.875  0.0039  0.6950 -0.0488
    7MOL    C94 2266   1.595   4.017   5.047  0.0082 -0.8391  0.5065
    7MOL    C95 2267   1.514   4.062   5.168 -0.5272 -0.0813  0.9349
    7MOL    C96 2268   1.599   4.140   5.270  0.1323  0.2644  0.6208
    7MOL    C97 2269   1.510   4.211   5.376  0.6414 -0.6007  0.3946
    7MOL    C98 2270   1.580   4.284   5.489  0.2453  0.1469 -0.2374
    7MOL    O99 2271   1.483   4.353   5.558 -0.6600 -0.5721 -0.0150
    7MOL   H100 2272   1.603   4.098   4.974 -0.8437 -1.2183 -0.0231
    7MOL   H101 2273   1.694   3.989   5.082  0.2819  0.5459  0.8644
    7MOL   H102 2274   1.474   3.973   5.217 -0.6748 -1.2856 -1.2961
    7MOL   H103 2275   1.427   4.121   5.141  0.4457  0.6645 -0.6811
    7MOL   H104 2276   1.651   4.218   5.215 -0.4098  0.6094  0.6049
    7MOL   H105 2277   1.674   4.068   5.304 -0.6138  0.2245  2.2770
    7MOL   H106 2278   1.430   4.145   5.408 -0.7255  0.8210 -0.0328
    7MOL   H107 2279   1.458   4.290   5.322  2.6281 -0.0297 -0.7268
    7MOL   H108 2280   1.622   4.205   5.551  0.5043 -0.3064 -0.9831
    7MOL   H109 2281   1.665   4.343   5.455  0.2479 -0.1959 -0.8357
    7MOL   C110 2282   1.507   4.481   5.582 -0.2018  0.1855 -0.4668
    7MOL   O111 2283   1.611   4.541   5.563  0.1197  0.3024  0.0955
    7MOL   C112 2284   1.388   4.551   5.647 -0.2859  0.0507 -0.1212
    7MOL   C113 2285   1.272   4.467   5.718 -0.4872 -0.2733 -0.1652
    7MOL   C114 2286   1.324   4.371   5.833 -0.2799  1.0695 -0.1894
    7MOL   C115 2287   1.386   4.453   5.947 -0.0320 -0.0522 -0.7314
    7MOL   C116 2288   1.465   4.378   6.055 -0.5387 -0.2268 -0.0748
    7MOL   O117 2289   1.378   4.278   6.116 -0.0454 -0.3688 -0.1717
    7MOL   H118 2290   1.350   4.616   5.567 -0.2023 -0.9322 -0.9740
    7MOL   H119 2291   1.425   4.628   5.715 -2.1215  0.1115  0.8475
    7MOL   H120 2292   1.232   4.408   5.636 -1.7214  0.2170  0.0750
    7MOL   H121 2293   1.194   4.531   5.760  0.7185  1.1057  0.0199
    7MOL   H122 2294   1.408   4.313   5.795 -1.2966 -1.2120  0.9586
    7MOL   H123 2295   1.251   4.298   5.868  0.4333  0.1996 -0.4952
    7MOL   H124 2296   1.290   4.489   5.984  0.8942  2.6087 -0.8431
    7MOL   H125 2297   1.444   4.537   5.910  0.9885 -0.0769  0.7728
    7MOL   H126 2298   1.546   4.329   6.001  0.1655  2.5603 -1.6291
    7MOL   H127 2299   1.502   4.440   6.136  0.3286 -0.8958  0.0483
    7MOL   C128 2300   1.372   4.280   6.246  0.0225  0.5031 -0.1871
    7MOL   O129 2301   1.424   4.347   6.332 -0.2712 -0.3741  0.5188
    7MOL   C130 2302   1.284   4.166   6.286 -0.1050  0.3872  0.1793
    7MOL   C131 2303   1.130   4.198   6.279  0.1883  1.0432  0.1823
    7MOL   C132 2304   1.037   4.115   6.368 -0.4442  0.0380  0.1031
    7MOL   C133 2305   0.900   4.186   6.366  0.0446 -0.0883 -0.1923
    7MOL   C134 2306   0.797   4.104   6.453  0.4464  0.0436 -0.1482
    7MOL   O135 2307   0.672   4.086   6.387 -0.1207  0.4999  0.0749
    7MOL   H136 2308   1.299   4.156   6.394 -0.4400 -1.3645  0.0777
    7MOL   H137 2309   1.315   4.078   6.230 -0.3913  0.2085  0.3003
    7MOL   H138 2310   1.109   4.191   6.173 -2.7010  1.6993  0.6629
    7MOL   H139 2311   1.117   4.298   6.322 -0.7652  1.5500 -1.2444
    7MOL   H140 2312   1.068   4.118   6.472  0.7303 -2.4384 -0.1255
    7MOL   H141 2313   1.030   4.011   6.335  0.7952  0.2528 -0.8778
    7MOL   H142 2314   0.866   4.201   6.264  1.0729 -0.4934 -0.6064
    7MOL   H143 2315   0.915   4.288   6.402  0.9996  0.3437 -1.7596
    7MOL   H144 2316   0.839   4.004   6.464 -0.4760 -0.2685  0.5588
    7MOL   H145 2317   0.784   4.152   6.549 -1.7318 -3.3749  1.3447
    7MOL   C146 2318   0.558   4.058   6.455  0.3552  0.2826 -0.0734
    7MOL   O147 2319   0.548   4.036   6.574  0.0243  0.2712 -0.0006
    7MOL   C148 2320   0.438   4.039   6.360  1.0296 -0.4433 -0.3723
    7MOL   C149 2321   0.318   3.967   6.427  0.1241  0.0412 -0.5532
    7MOL   C150 2322   0.230   4.065   6.521 -0.1206  0.1694 -1.1028
    7MOL   C151 2323   0.117   3.987   6.580  0.2072  0.2187  0.0789
    7MOL   C152 2324   0.084   4.043   6.719  0.1770  0.6168  0.0891
    7MOL   O153 2325   7.812   3.981   6.779  0.2929 -0.2469 -0.4707
    7MOL   H154 2326   0.463   3.977   6.274 -0.7207  1.0001 -1.9648
    7MOL   H155 2327   0.409   4.137   6.322  2.2892  0.3493  0.6191
    7MOL   H156 2328   0.354   3.884   6.487 -1.1169 -0.4369 -0.4644
    7MOL   H157 2329   0.262   3.916   6.349  0.4876 -1.2703  0.0263
    7MOL   H158 2330   0.196   4.157   6.473 -0.2577  1.0687  0.6968
    7MOL   H159 2331   0.296   4.097   6.601  0.1053  0.4882 -1.4109
    7MOL   H160 2332   0.142   3.881   6.584 -0.2824  0.1419  1.6249
    7MOL   H161 2333   0.032   3.990   6.512  0.5012 -2.0413 -0.4328
    7MOL   H162 2334   0.165   4.030   6.791  2.3098 -1.4019 -2.5542
    7MOL   H163 2335   0.068   4.150   6.706  0.2040  0.6625  0.4216
    7MOL   C164 2336   7.797   4.014   6.911 -0.1183  0.3235 -0.3475
    7MOL   O165 2337   0.023   4.096   6.968  0.8160  0.1426  0.1197
    7MOL   C166 2338   7.691   3.927   6.971  0.4860  0.6892 -0.3581
    7MOL   C167 2339   7.732   3.857   7.106  0.0334  0.8230 -0.2787
    7MOL   C168 2340   7.828   3.742   7.084 -0.2951  0.3257 -0.4348
    7MOL   C169 2341   0.013   3.670   7.215  0.1819  0.1595  0.1768
    7MOL   C170 2342   0.148   3.604   7.222  0.2937 -0.0153 -0.3276
    7MOL   O171 2343   0.244   3.711   7.241 -0.1608 -0.4526  0.5177
    7MOL   H172 2344   7.666   3.849   6.900 -0.9930 -1.3223  2.2548
    7MOL   H173 2345   7.604   3.988   6.997 -1.0083 -1.4072 -0.2643
    7MOL   H174 2346   7.649   3.803   7.152  1.0785 -0.0542  0.6186
    7MOL   H175 2347   7.754   3.931   7.183  1.6987  1.5443 -1.4245
    7MOL   H176 2348   0.076   3.767   7.031 -0.4377  1.1709 -0.2924
    7MOL   H177 2349   7.781   3.672   7.014  0.6529 -0.8685  0.1180
    7MOL   H178 2350   7.783   3.591   7.219 -1.2684  1.4715 -0.5408
    7MOL   H179 2351   7.834   3.731   7.302  0.5880  0.2052  0.2541
    7MOL   H180 2352   0.143   3.524   7.296 -2.4831  1.1293  0.7874
    7MOL   H181 2353   0.167   3.560   7.124  1.1238 -0.9350  0.2398
    7MOL   C182 2354   0.302   3.742   7.357 -0.2121 -0.3119 -0.2343
    7MOL   O183 2355   0.272   3.701   7.469  0.1766  0.0909 -0.7986
    7MOL   C184 2356   0.407   3.850   7.337  0.0905  0.1621 -0.4110
    7MOL   C185 2357   0.367   3.984   7.409 -0.6940 -0.4040 -0.5265
    7MOL   C186 2358   0.287   4.084   7.329 -0.4794  0.4272 -0.1280
    7MOL   C187 2359   0.232   4.204   7.408  0.1399 -0.0571  0.3122
    7MOL   C188 2360   0.133   4.281   7.314 -0.0666 -0.3158 -0.2850
    7MOL   O189 2361   0.197   4.344   7.213 -0.2657 -0.9795  0.0365
    7MOL   H190 2362   0.431   3.871   7.232  0.7058  0.9848 -0.1144
    7MOL   H191 2363   0.507   3.822   7.370 -0.4877 -0.1766  1.0821
    7MOL   H192 2364   0.463   4.024   7.441 -1.0199 -0.6010  0.7381
    7MOL   H193 2365   0.311   3.965   7.500  0.2913  0.4686  0.2740
    7MOL   H194 2366   0.206   4.040   7.270  0.9519 -0.2363 -1.6278
    7MOL   H195 2367   0.342   4.125   7.244 -0.6349 -0.4423 -0.6550
    7MOL   H196 2368   0.307   4.275   7.442  0.8761 -0.9309  0.5066
    7MOL   H197 2369   0.186   4.156   7.494 -1.2670 -0.5150 -0.6811
    7MOL   H198 2370   0.053   4.213   7.286 -1.3857  1.6312 -1.3303
    7MOL   H199 2371   0.068   4.347   7.371  0.6607 -1.0361  1.4207
    7MOL   C200 2372   0.204   4.480   7.203  0.7669 -1.1167 -0.2144
    7MOL   O201 2373   0.160   4.570   7.275 -0.3104 -0.0055 -0.5126
    7MOL   C202 2374   0.296   4.521   7.088  0.3721 -0.7712 -0.1755
    7MOL   C203 2375   0.437   4.556   7.134  0.0426  0.2876  0.3348
    7MOL   C204 2376   0.454   4.712   7.133 -0.5700 -0.2048 -0.2535
    7MOL   C205 2377   0.595   4.747   7.168 -0.1563  0.0828 -0.0522
    7MOL   C206 2378   0.626   4.897   7.201 -0.1760  0.4638 -0.1669
    7MOL   O207 2379   0.561   4.926   7.321  0.4029  0.6094  0.3708
    7MOL   H208 2380   0.237   4.602   7.045  0.5860 -1.0122 -0.9198
    7MOL   H209 2381   0.297   4.446   7.010  0.8016  0.5665 -1.4669
    7MOL   H210 2382   0.512   4.516   7.066  0.3581  0.0468  0.8231
    7MOL   H211 2383   0.473   4.510   7.226 -0.9542  1.1110  1.1384
    7MOL   H212 2384   0.377   4.757   7.195  0.5104  0.9315  0.2684
    7MOL   H213 2385   0.434   4.759   7.037  0.1479  0.0293 -0.2907
    7MOL   H214 2386   0.667   4.706   7.097  2.4774  1.4184  1.7554
    7MOL   H215 2387   0.621   4.708   7.266  1.3372  0.2121 -0.3833
    7MOL   H216 2388   0.732   4.923   7.197  0.1186 -0.8346 -1.0812
    7MOL   H217 2389   0.586   4.967   7.127 -1.0790 -0.5426 -0.6438
    7MOL   C218 2390   0.598   5.041   7.380 -0.1355  0.2470 -0.4586
    7MOL   O219 2391   0.687   5.117   7.342  0.6885  0.3336  0.0019
    7MOL   C220 2392   0.528   5.064   7.511  0.0735  0.4035 -0.5827
    7MOL   C221 2393   0.606   5.121   7.634  0.6323  0.0241  0.4321
    7MOL   C222 2394   0.533   5.105   7.769 -0.3188 -0.1883 -0.8781
    7MOL   C223 2395   0.629   5.147   0.042  0.2643  0.3923  0.2225
    7MOL   C224 2396   0.584   5.091   0.183 -0.2094 -0.5797 -0.0579
    7MOL   O225 2397   0.504   5.195   0.235 -0.4593 -0.0169 -0.1469
    7MOL   H226 2398   0.488   4.968   7.544  2.6441 -0.2110  0.8693
    7MOL   H227 2399   0.443   5.131   7.496 -0.4401 -0.2338 -0.5409
    7MOL   H228 2400   0.639   5.224   7.617  3.0966 -0.6114  1.1865
    7MOL   H229 2401   0.693   5.057   7.647 -0.2774 -0.6549  3.4996
    7MOL   H230 2402   0.501   5.004   7.792 -0.7544 -0.3539 -2.1618
    7MOL   H231 2403   0.438   5.160   7.764  0.6707  1.5278 -1.3291
    7MOL   H232 2404   0.653   5.254   0.039  4.3755 -0.3645  2.1742
    7MOL   H233 2405   0.713   5.085   0.010  0.3424  0.8731 -0.5141
    7MOL   H234 2406   0.536   4.994   0.184 -0.8957 -0.2668 -1.3870
    7MOL   H235 2407   0.678   5.079   0.237 -0.6042 -3.1959  0.0807
    7MOL   C236 2408   0.369   5.196   0.214 -0.0001  0.4082  0.0474
    7MOL   O237 2409   0.305   5.110   0.159 -0.0772 -0.8953 -0.7699
    7MOL   C238 2410   0.302   5.329   0.251  0.2176  0.3860  0.5457
    7MOL   C239 2411   0.150   5.332   0.205  0.3641  0.2799 -0.1089
    7MOL   C240 2412   0.060   5.250   0.300  0.5723 -0.6915  0.2005
    7MOL   C241 2413   0.039   5.322   0.437  0.2827  0.2266  0.5012
    7MOL   C242 2414   7.801   5.233   0.535  0.6414  0.6676  0.1449
    7MOL   O243 2415   7.749   5.323   0.637 -0.4985  0.1210 -0.0101
    7MOL   H244 2416   0.356   5.406   0.194 -0.1558  0.8186  0.7714
    7MOL   H245 2417   0.329   5.339   0.356  0.9624 -0.1841  0.4111
    7MOL   H246 2418   0.139   5.289   0.105 -0.3585 -0.0570  0.1091
    7MOL   H247 2419   0.110   5.429   0.176 -1.5643 -1.7944 -4.9840
    7MOL   H248 2420   0.118   5.163   0.330  0.6598 -0.4974  0.5972
    7MOL   H249 2421   7.809   5.227   0.252  0.5697  0.7009 -0.4834
    7MOL   H250 2422   7.832   5.416   0.417  0.4127  0.0684 -0.5917
    7MOL   H251 2423   0.134   5.347   0.483  1.0750 -1.6918 -0.0482
    7MOL   H252 2424   7.715   5.205   0.473 -0.3656  1.7026  1.0496
    7MOL   H253 2425   0.014   5.146   0.565  1.1596  0.7964 -0.4520
    7MOL   C254 2426   7.800   5.325   0.762 -0.0358  0.2857  0.2327
    7MOL   O255 2427   0.032   5.253   0.817 -0.1549  0.6448 -0.0374
    7MOL   C256 2428   7.760   5.454   0.838 -0.7174 -0.2514 -0.3674
    7MOL   C257 2429   7.599   5.474   0.830 -0.5859  0.2498 -0.9680
    7MOL   C258 2430   7.555   5.610   0.896  0.2497 -0.3627 -0.0318
    7MOL   C259 2431   7.597   5.745   0.821 -0.2653  0.1644 -0.0279
    7MOL   C260 2432   7.648   5.854   0.917 -0.7263  0.4090 -0.5515
    7MOL   O261 2433   7.553   5.894   1.016 -0.3300  0.3150  0.6940
    7MOL   H262 2434   7.812   5.538   0.791  0.5265 -0.6028  0.3600
    7MOL   H263 2435   7.796   5.457   0.940  0.3517 -0.6232 -0.7273
    7MOL   H264 2436   7.547   5.396   0.884 -0.5624  0.7133 -0.2650
    7MOL   H265 2437   7.561   5.484   0.728 -1.4024  0.4368 -0.6433
    7MOL   H266 2438   7.578   5.612   1.002  0.0857  0.9921 -0.0041
    7MOL   H267 2439   7.446   5.613   0.900  0.2566  2.0536 -0.5866
    7MOL   H268 2440   7.516   5.779   0.757 -2.3268 -2.2248  1.2389
    7MOL   H269 2441   7.679   5.730   0.750  0.1798 -1.7395  0.8592
    7MOL   H270 2442   7.740   5.830   0.971  1.4286  5.0808 -1.8304
    7MOL   H271 2443   7.678   5.941   0.858  0.0068  0.7788  0.3519
    7MOL   C272 2444   7.571   5.898   1.148 -1.0182 -0.1429 -0.1081
    7MOL   O273 2445   7.676   5.875   1.210 -0.4822  0.2466 -0.6130
    7MOL   C274 2446   7.448   5.924   1.231 -0.5536  0.5559 -0.4982
    7MOL   C275 2447   7.382   5.791   1.279  0.1548 -0.4159 -0.0146
    7MOL   C276 2448   7.232   5.797   1.293 -0.6400  1.0670 -0.4341
    7MOL   C277 2449   7.180   5.898   1.399  0.2671 -0.4396 -0.3292
    7MOL   C278 2450   7.025   5.896   1.405  0.5758  0.1456  0.4461
    7MOL   O279 2451   6.980   6.009   1.475 -0.1815 -0.2183  0.2840
    7MOL   H280 2452   7.385   5.992   1.174  1.3721  1.7457 -1.2468
    7MOL   H281 2453   7.469   5.993   1.313 -0.7771 -1.0214  0.9096
    7MOL   H282 2454   7.428   5.767   1.375  2.6665 -0.8455 -1.2735
    7MOL   H283 2455   7.388   5.712   1.205  0.5401 -2.2539  1.9259
    7MOL   H284 2456   7.181   5.702   1.302  1.6660 -0.1806 -0.1204
    7MOL   H285 2457   7.200   5.835   1.197 -0.3914  0.8662 -0.5976
    7MOL   H286 2458   7.212   6.001   1.383  0.9939 -0.9465 -2.2632
    7MOL   H287 2459   7.220   5.875   1.498  1.8878 -1.0957 -1.1248
    7MOL   H288 2460   6.980   5.889   1.306 -1.1769 -0.8758  1.2899
    7MOL   H289 2461   6.994   5.804   1.456 -0.2424  0.7945  1.1357
    7MOL   C290 2462   6.909   6.003   1.586 -0.0452  0.1608 -0.0882
    7MOL   O291 2463   6.881   5.896   1.635  0.2798  0.2058  0.0714
    7MOL   C292 2464   6.879   6.138   1.654  0.5805  0.0757  0.1728
    7MOL   C293 2465   6.751   6.209   1.590  0.1334 -0.1285  0.5212
    7MOL   C294 2466   6.775   6.265   1.449 -0.1502  0.3023  0.1087
    7MOL   C295 2467   6.669   6.358   1.383 -0.0844  0.4825  0.1658
    7MOL   C296 2468   6.547   6.283   1.325 -0.3811  0.5322  0.4462
    7MOL   O297 2469   6.586   6.204   1.208  0.0500 -0.5889  0.2885
    7MOL   H298 2470   6.975   6.189   1.652  1.0116 -0.7405 -0.2994
    7MOL   H299 2471   6.846   6.114   1.755  1.3459  0.0064  0.4079
    7MOL   H300 2472   6.706   6.288   1.650 -1.8969 -0.8166 -0.0602
    7MOL   H301 2473   6.673   6.133   1.587  1.3510 -1.5092  2.4575
    7MOL   H302 2474   6.805   6.179   1.389 -1.0541 -0.2728  0.4693
    7MOL   H303 2475   6.869   6.320   1.445 -0.6632  1.1766 -0.2354
    7MOL   H304 2476   6.734   6.412   1.314  1.4522  0.3073  1.4434
    7MOL   H305 2477   6.627   6.421   1.462  0.1622  0.2354  0.4966
    7MOL   H306 2478   6.508   6.221   1.406 -3.2221  0.3473 -1.0120
    7MOL   H307 2479   6.471   6.356   1.298 -1.1655 -0.2372  0.5651
    7MOL   C308 2480   6.604   6.070   1.211  0.2009  0.0249  0.4084
    7MOL   O309 2481   6.619   6.002   1.319  0.0594  0.4355  0.5511
    7MOL   C310 2482   6.617   5.999   1.075  0.5736 -0.0403  0.2077
    7MOL   C311 2483   6.681   5.863   1.079  0.1609  0.2216  0.2005
    7MOL   C312 2484   6.598   5.746   1.141  0.1096 -0.0070  0.1831
    7MOL   C313 2485   6.654   5.607   1.109  0.2918  0.7807 -0.3313
    7MOL   C314 2486   6.766   5.562   1.204  0.5203  0.5234 -0.0218
    7MOL   O315 2487   6.729   5.566   1.340  0.1503 -0.2394 -0.3679
    7MOL   H316 2488   6.682   6.055   1.008  0.7963 -0.7568 -0.1766
    7MOL   H317 2489   6.516   5.999   1.035 -1.0312  0.4573  4.0614
    7MOL   H318 2490   6.781   5.876   1.120  0.3317  2.3619 -0.8302
    7MOL   H319 2491   6.699   5.825   0.978 -0.3815 -2.6257  1.1415
    7MOL   H320 2492   6.503   5.752   1.088  0.6988 -0.6728 -0.9584
    7MOL   H321 2493   6.577   5.755   1.248  0.1522 -2.2792  0.4067
    7MOL   H322 2494   6.683   5.605   1.004  2.3247 -0.6845  0.2285
    7MOL   H323 2495   6.573   5.534   1.111 -0.7276  1.9187  1.8335
    7MOL   H324 2496   6.803   5.460   1.188  0.8274  0.6070  0.1527
    7MOL   H325 2497   6.852   5.626   1.189  1.9905 -1.6678 -1.2844
    7MOL   C326 2498   6.817   5.555   1.440  0.2583  0.0592  0.7975
    7MOL   O327 2499   6.935   5.530   1.427 -0.7174  0.2712 -0.3425
    7MOL   C328 2500   6.750   5.573   1.572  0.3860  0.1933  0.5453
    7MOL   C329 2501   6.627   5.671   1.568 -0.4620  0.0686  0.0083
    7MOL   C330 2502   6.586   5.716   1.711 -0.2066 -0.2811  0.3172
    7MOL   C331 2503   6.465   5.814   1.693  0.4687 -0.0207 -0.1562
    7MOL   C332 2504   6.514   5.962   1.668 -0.0928  0.0869 -0.2465
    7MOL   O333 2505   6.401   6.053   1.660  0.5441 -0.3554  0.4368
    7MOL   H334 2506   6.825   5.620   1.635  0.2857  0.7218  0.2685
    7MOL   H335 2507   6.731   5.474   1.615 -0.5421 -0.1462 -0.6290
    7MOL   H336 2508   6.547   5.621   1.514  0.5761 -0.9487 -0.6220
    7MOL   H337 2509   6.652   5.760   1.510 -1.3147 -1.0797 -2.1715
    7MOL   H338 2510   6.667   5.769   1.762 -0.4905  1.0488 -0.5946
    7MOL   H339 2511   6.573   5.632   1.779  1.6481  0.9330  2.2366
    7MOL   H340 2512   6.401   5.798   1.780 -0.0053  1.6309 -0.1892
    7MOL   H341 2513   6.410   5.777   1.607 -1.9416 -1.3174  1.8683
    7MOL   H342 2514   6.583   6.004   1.741 -0.5959  0.8173 -0.1827
    7MOL   H343 2515   6.574   5.953   1.577  1.1557 -0.8268  0.6604
    7MOL   C344 2516   6.325   6.070   1.550 -0.5509 -0.4813 -0.5193
    7MOL   O345 2517   6.337   6.005   1.447  0.2873  0.2385  0.2373
    7MOL   C346 2518   6.217   6.178   1.571  0.4242  0.1083 -0.0131
    7MOL   C347 2519   6.254   6.288   1.668 -0.6099  0.3990  0.1336
    7MOL   C348 2520   6.366   6.377   1.617  0.1108 -0.1847  0.3209
    7MOL   C349 2521   6.393   6.494   1.710 -0.1205 -0.4183  0.4116
    7MOL   C350 2522   6.521   6.568   1.669 -0.0802 -0.4274 -0.1477
    7MOL   O351 2523   6.504   6.632   1.541 -0.3111  0.0158  0.2601
    7MOL   H352 2524   6.133   6.129   1.621 -0.7369  2.1776  0.1350
    7MOL   H353 2525   6.179   6.214   1.475  0.5205  2.5453  0.8177
    7MOL   H354 2526   6.279   6.252   1.767  2.1890 -1.6261 -1.2178
    7MOL   H355 2527   6.162   6.346   1.667 -0.4945  0.6112 -2.1060
    7MOL   H356 2528   6.346   6.421   1.520  1.1744  1.7751  0.9539
    7MOL   H357 2529   6.463   6.327   1.607  0.1121 -0.6430  2.4033
    7MOL   H358 2530   6.415   6.466   1.813 -1.3985  1.6322  1.2676
    7MOL   H359 2531   6.309   6.562   1.717  0.8024  0.9068 -1.0464
    7MOL   H360 2532   6.543   6.641   1.746 -3.5446 -0.5857  1.0579
    7MOL   H361 2533   6.602   6.494   1.667  1.3078  0.9696  2.2105
    7MOL   H362 2534   6.435   6.697   1.548  0.2492  0.4744  1.6731
    8MOL     C1 2535   1.894   2.837   2.305  0.8291  0.1206 -0.4948
    8MOL     O2 2536   1.996   2.896   2.288  0.1939  0.7728 -0.6839
    8MOL     C3 2537   1.859   2.706   2.224 -0.0094  0.1350 -0.3991
    8MOL     C4 2538   1.900   2.575   2.294 -0.3059 -0.5604 -0.1190
    8MOL     C5 2539   2.051   2.558   2.295  0.6604  0.3979 -0.3920
    8MOL     C6 2540   2.105   2.452   2.394 -0.1641  0.5844 -0.2450
    8MOL     C7 2541   2.094   2.303   2.349  0.3305  0.3095  0.4878
    8MOL     O8 2542   1.964   2.255   2.307  0.6084  0.3923  0.0956
    8MOL     H9 2543   1.914   2.715   2.131  0.2805  3.9537  0.0487
    8MOL    H10 2544   1.753   2.710   2.198  0.0037  0.3383 -0.4233
    8MOL    H11 2545   1.868   2.484   2.243  3.1108 -1.8805 -0.0775
    8MOL    H12 2546   1.848   2.590   2.389 -0.5711 -0.5931 -0.2596
    8MOL    H13 2547   2.080   2.645   2.353 -0.4877  0.4184  0.1653
    8MOL    H14 2548   2.107   2.547   2.203  0.1134  3.3666 -1.1399
    8MOL    H15 2549   2.053   2.463   2.489  1.5772  1.8071  0.5849
    8MOL    H16 2550   2.203   2.476   2.435 -0.8506  0.5678  1.4232
    8MOL    H17 2551   2.157   2.282   2.262 -0.9425  0.6230 -0.5125
    8MOL    H18 2552   2.135   2.232   2.421 -1.1379 -3.0432 -1.8360
    8MOL    H19 2553   1.812   2.881   2.362  0.1174  1.1330 -2.2841
    8MOL    C20 2554   1.888   2.172   2.386 -0.1762  0.2958 -0.3965
    8MOL    O21 2555   1.927   2.111   2.486 -0.0594 -0.0237  0.3760
    8MOL    C22 2556   1.743   2.153   2.345 -0.0023 -0.0487  0.5459
    8MOL    C23 2557   1.643   2.214   2.447 -0.2281  0.1679  0.6961
    8MOL    C24 2558   1.660   2.366   2.481  0.0141 -0.4329 -0.7898
    8MOL    C25 2559   1.580   2.424   2.599 -0.6462  0.0617 -0.1949
    8MOL    C26 2560   1.614   2.563   2.637  0.0535  0.4654 -0.2152
    8MOL    O27 2561   1.752   2.567   2.683  0.2840  0.3129  0.7261
    8MOL    H28 2562   1.712   2.055   2.309  0.0952 -0.3368  1.2259
    8MOL    H29 2563   1.732   2.216   2.258  0.3956 -1.5674 -0.6346
    8MOL    H30 2564   1.656   2.145   2.531  1.3127  0.7986  0.9972
    8MOL    H31 2565   1.540   2.207   2.413 -0.1492  2.9488 -0.1967
    8MOL    H32 2566   1.652   2.426   2.391  0.8082 -0.9852 -1.2421
    8MOL    H33 2567   1.767   2.386   2.494 -0.3173  0.7811  0.1303
    8MOL    H34 2568   1.589   2.351   2.680  0.2361 -0.6147 -0.9032
    8MOL    H35 2569   1.473   2.419   2.577 -0.7344 -2.0096  0.5085
    8MOL    H36 2570   1.591   2.628   2.552  0.5352  1.5776  0.5006
    8MOL    H37 2571   1.543   2.594   2.714  1.6606  1.1255  1.0245
    8MOL    C38 2572   1.790   2.527   2.805  0.0263 -0.1081  0.5839
    8MOL    O39 2573   1.708   2.500   2.891  0.0928  0.2305  0.5424
    8MOL    C40 2574   1.944   2.505   2.812 -0.7624 -0.1614  0.1895
    8MOL    C41 2575   1.988   2.367   2.766 -0.0381 -0.4049 -0.4370
    8MOL    C42 2576   2.135   2.363   2.780 -0.5399 -0.2651 -1.5578
    8MOL    C43 2577   2.204   2.244   2.728 -0.0902 -0.0868  0.4967
    8MOL    C44 2578   2.359   2.241   2.727  0.0788 -0.6945 -0.6101
    8MOL    O45 2579   2.417   2.274   2.603  0.3625  0.2547  0.2190
    8MOL    H46 2580   1.976   2.512   2.916 -0.1635 -3.9143  0.2990
    8MOL    H47 2581   2.007   2.585   2.772 -0.3032 -0.7668 -0.2946
    8MOL    H48 2582   1.953   2.353   2.664  2.5654  1.5773 -1.6608
    8MOL    H49 2583   1.948   2.291   2.833  1.5816 -2.1833 -1.4261
    8MOL    H50 2584   2.167   2.380   2.883 -1.3652 -0.1489 -1.3189
    8MOL    H51 2585   2.170   2.457   2.736 -0.9474  1.8089  2.2780
    8MOL    H52 2586   2.168   2.198   2.636  0.5691  1.6119 -0.6530
    8MOL    H53 2587   2.177   2.176   2.808  1.9613 -0.7719  0.6498
    8MOL    H54 2588   2.397   2.303   2.808  0.1401 -2.2265  0.5410
    8MOL    H55 2589   2.386   2.142   2.762  1.7706 -0.3057 -0.7606
    8MOL    C56 2590   2.425   2.181   2.508  0.2830  0.1259 -0.0336
    8MOL    O57 2591   2.398   2.063   2.521  1.0570  0.4462 -1.1374
    8MOL    C58 2592   2.473   2.241   2.375  0.6503 -0.7635  0.5163
    8MOL    C59 2593   2.593   2.167   2.318 -0.1729  0.0526 -0.0737
    8MOL    C60 2594   2.638   2.226   2.179 -0.5432  0.3249 -0.2196
    8MOL    C61 2595   2.773   2.161   2.130  0.0056 -0.6839 -0.0696
    8MOL    C62 2596   2.760   2.008   2.098  0.2079 -0.7840 -0.2699
    8MOL    O63 2597   2.889   1.956   2.055 -1.0367 -0.0140 -0.6680
    8MOL    H64 2598   2.496   2.348   2.372 -2.4018 -0.1092 -3.3735
    8MOL    H65 2599   2.387   2.229   2.309 -0.4042  0.0664  1.7433
    8MOL    H66 2600   2.555   2.065   2.310 -1.0592  0.2001  1.9596
    8MOL    H67 2601   2.679   2.180   2.383 -0.1179 -1.8433  0.2654
    8MOL    H68 2602   2.661   2.330   2.205 -0.1321 -0.4792  2.7831
    8MOL    H69 2603   2.555   2.222   2.108 -0.0091  3.4328 -1.1336
    8MOL    H70 2604   2.855   2.178   2.200  0.5785 -0.6559 -0.7452
    8MOL    H71 2605   2.814   2.214   2.044 -0.5548  0.5378  0.3929
    8MOL    H72 2606   2.722   1.955   2.186 -1.4472  0.6968 -0.0749
    8MOL    H73 2607   2.685   2.000   2.020  1.0622 -1.8860 -0.9912
    8MOL    C74 2608   2.908   1.907   1.936 -0.2332 -0.8615  0.0686
    8MOL    O75 2609   2.820   1.875   1.859 -0.4383  0.0758 -0.1480
    8MOL    C76 2610   3.059   1.895   1.912 -0.9187  0.2397  0.1550
    8MOL    C77 2611   3.111   1.804   1.798  0.0805  0.4793 -0.2016
    8MOL    C78 2612   3.076   1.652   1.814  0.1357 -0.3059  0.3564
    8MOL    C79 2613   3.143   1.587   1.940 -0.1734 -0.2774  0.4767
    8MOL    C80 2614   3.102   1.433   1.947  1.0887  0.9805  0.1411
    8MOL    O81 2615   3.136   1.364   2.066 -0.1804  0.0012 -0.2716
    8MOL    H82 2616   3.106   1.859   2.004  0.3860  1.4541 -0.0271
    8MOL    H83 2617   3.095   1.996   1.896 -2.0494  0.5974 -0.2249
    8MOL    H84 2618   3.219   1.795   1.786 -0.1398 -0.7352 -1.4727
    8MOL    H85 2619   3.063   1.839   1.707 -4.0376 -0.2376  1.5592
    8MOL    H86 2620   3.122   1.603   1.728 -2.4055 -0.2582 -1.0756
    8MOL    H87 2621   2.972   1.624   1.800 -0.0750 -0.0966  1.4388
    8MOL    H88 2622   3.135   1.640   2.035  0.1436 -1.5853  1.2480
    8MOL    H89 2623   3.249   1.604   1.925  0.3470 -0.4867  3.6113
    8MOL    H90 2624   2.993   1.433   1.939  1.0651  1.9862  0.3887
    8MOL    H91 2625   3.139   1.363   1.873  0.7673  1.0288 -0.0653
    8MOL    C92 2626   3.105   1.404   2.192  0.6091 -0.3513  0.3071
    8MOL    O93 2627   3.051   1.512   2.210  0.8360  0.3430 -0.0267
    8MOL    C94 2628   3.165   1.321   2.300 -0.4429 -0.4539  0.3315
    8MOL    C95 2629   3.312   1.375   2.330 -0.6380  0.4392  0.0601
    8MOL    C96 2630   3.320   1.502   2.422  0.2672 -0.8418 -0.0647
    8MOL    C97 2631   3.467   1.522   2.470  0.8925  0.4252 -0.7619
    8MOL    C98 2632   3.489   1.648   2.555  0.0113  0.5105  0.6547
    8MOL    O99 2633   3.487   1.767   2.477  0.7671  0.1019  0.4103
    8MOL   H100 2634   3.162   1.217   2.267  0.0823 -0.3433 -0.0828
    8MOL   H101 2635   3.100   1.315   2.387 -0.3587 -0.3255  0.4028
    8MOL   H102 2636   3.355   1.402   2.234  0.7259 -1.2816  0.1806
    8MOL   H103 2637   3.377   1.302   2.378 -1.8389 -0.9514 -0.3781
    8MOL   H104 2638   3.251   1.482   2.504  1.4637  3.7260  2.2193
    8MOL   H105 2639   3.280   1.589   2.370 -0.9647 -0.1582  1.9478
    8MOL   H106 2640   3.524   1.536   2.378  0.1408 -0.7408 -1.4187
    8MOL   H107 2641   3.502   1.435   2.525 -2.0842 -1.9487 -2.4739
    8MOL   H108 2642   3.410   1.646   2.630 -2.5661  0.3010 -1.9998
    8MOL   H109 2643   3.576   1.637   2.620 -0.6411 -1.3988  1.2496
    8MOL   C110 2644   3.601   1.833   2.446  0.2602 -0.0788  0.6923
    8MOL   O111 2645   3.710   1.798   2.491 -0.1621  0.5764 -0.1260
    8MOL   C112 2646   3.580   1.955   2.357  0.4087  1.0680  0.6637
    8MOL   C113 2647   3.502   1.916   2.226  0.1584  0.4675  0.4011
    8MOL   C114 2648   3.579   1.826   2.128 -0.1303 -0.5133 -0.8405
    8MOL   C115 2649   3.494   1.789   2.010  0.3335 -0.1180  0.3516
    8MOL   C116 2650   3.550   1.676   1.923  0.3764  0.0657 -0.8119
    8MOL   O117 2651   3.584   1.561   2.006 -0.2877 -0.2160 -0.1989
    8MOL   H118 2652   3.677   1.994   2.327  0.3064  0.7127 -0.1469
    8MOL   H119 2653   3.522   2.028   2.413 -0.8861 -1.4485  2.6708
    8MOL   H120 2654   3.467   2.008   2.179  0.2003  0.9448  1.2972
    8MOL   H121 2655   3.411   1.864   2.256  0.3191 -0.2320 -0.2967
    8MOL   H122 2656   3.617   1.743   2.187  2.1859  1.4043  0.4844
    8MOL   H123 2657   3.670   1.877   2.095 -1.1342  1.6663 -0.3696
    8MOL   H124 2658   3.491   1.877   1.945  2.4647  0.3550  0.8601
    8MOL   H125 2659   3.390   1.777   2.039 -0.0658 -0.1497 -1.0357
    8MOL   H126 2660   3.479   1.656   1.843 -1.2606  0.3354  0.5635
    8MOL   H127 2661   3.643   1.711   1.878  1.2861 -0.5880  0.5141
    8MOL   C128 2662   3.527   1.443   1.993 -0.7953 -0.2677 -0.5698
    8MOL   O129 2663   3.421   1.421   1.933 -0.5243 -0.2103 -0.6935
    8MOL   C130 2664   3.593   1.336   2.081  0.5758  0.4145  0.1871
    8MOL   C131 2665   3.516   1.202   2.076 -0.0903  0.1430  0.3659
    8MOL   C132 2666   3.571   1.097   2.166  0.1328  0.3656  0.2797
    8MOL   C133 2667   3.485   0.973   2.179  0.6683  0.1948  0.5954
    8MOL   C134 2668   3.537   0.870   2.273 -0.7723  0.1323 -0.3200
    8MOL   O135 2669   3.500   0.734   2.247  0.6359  0.1606  0.4360
    8MOL   H136 2670   3.619   1.379   2.177 -0.7461  3.9817 -0.9839
    8MOL   H137 2671   3.689   1.307   2.036 -0.0309 -1.2237 -0.0832
    8MOL   H138 2672   3.510   1.168   1.973 -0.2791  0.4653  0.2711
    8MOL   H139 2673   3.410   1.225   2.092 -0.0822 -0.0809  0.7583
    8MOL   H140 2674   3.587   1.133   2.268 -1.3289  1.4600  0.1417
    8MOL   H141 2675   3.669   1.074   2.125  0.8897  0.0707  2.1793
    8MOL   H142 2676   3.475   0.924   2.083  0.9529 -0.3097  0.8206
    8MOL   H143 2677   3.384   1.005   2.209 -0.0383  0.5143 -2.0451
    8MOL   H144 2678   3.645   0.870   2.261 -0.8222 -2.3095 -1.2041
    8MOL   H145 2679   3.516   0.900   2.375  2.2557  1.6197 -0.0821
    8MOL   C146 2680   3.375   0.689   2.247 -0.7647 -0.5836 -0.8439
    8MOL   O147 2681   3.281   0.762   2.270 -0.0794 -0.1163  0.1584
    8MOL   C148 2682   3.349   0.547   2.204 -0.1911 -0.1868  0.8002
    8MOL   C149 2683   3.305   0.457   2.321 -0.1413 -0.1643 -0.3014
    8MOL   C150 2684   3.287   0.307   2.295 -0.3372 -0.0314 -0.5601
    8MOL   C151 2685   3.221   0.229   2.413  0.4401 -0.1868 -0.3235
    8MOL   C152 2686   3.199   0.080   2.383  0.6847 -0.1030  0.4900
    8MOL   O153 2687   3.170   0.015   2.506 -0.1541 -0.1687 -0.0138
    8MOL   H154 2688   3.440   0.506   2.159 -0.6459 -0.9626  0.5757
    8MOL   H155 2689   3.283   0.539   2.118  1.1066  0.7161 -0.3042
    8MOL   H156 2690   3.208   0.491   2.358  0.3787  0.8757  0.1467
    8MOL   H157 2691   3.377   0.474   2.401 -0.3773  4.5616 -0.9439
    8MOL   H158 2692   3.387   0.265   2.286 -0.7337 -0.6653 -2.3622
    8MOL   H159 2693   3.240   0.296   2.197 -1.0285 -2.8840  0.0509
    8MOL   H160 2694   3.125   0.276   2.432  0.5733 -0.0895  0.1134
    8MOL   H161 2695   3.295   0.235   2.492  1.1361  0.3928 -1.0172
    8MOL   H162 2696   3.125   0.067   2.304  1.7051  2.0392 -0.8931
    8MOL   H163 2697   3.291   0.035   2.344 -0.7078 -3.2879  0.7582
    8MOL   C164 2698   3.080   7.759   2.505 -0.1763  0.6853 -0.4948
    8MOL   O165 2699   2.998   7.727   2.416 -0.1661  0.2389 -0.3587
    8MOL   C166 2700   3.093   7.677   2.632 -0.5291 -0.8802  0.0603
    8MOL   C167 2701   3.002   7.739   2.745 -0.3253  0.2390 -0.2707
    8MOL   C168 2702   3.037   7.667   2.882 -0.5356  0.4439 -0.0666
    8MOL   C169 2703   2.942   7.687   2.996  0.2403  0.4215 -0.3331
    8MOL   C170 2704   2.967   7.591   3.111 -0.1036 -0.9434 -0.0658
    8MOL   O171 2705   2.877   7.607   3.216  0.0855  0.7677 -0.1526
    8MOL   H172 2706   3.197   7.672   2.664 -0.7820 -1.0235  0.8463
    8MOL   H173 2707   3.063   7.578   2.596  4.3531 -2.0529 -1.2234
    8MOL   H174 2708   2.897   7.723   2.719 -0.0076 -2.5382  0.0850
    8MOL   H175 2709   3.021   0.001   2.758  0.5322 -0.0638  1.0335
    8MOL   H176 2710   3.136   7.689   2.921 -0.6269 -0.9047  0.9806
    8MOL   H177 2711   3.032   7.559   2.865 -0.2811  0.7783 -2.3455
    8MOL   H178 2712   2.839   7.674   2.961 -0.2408  0.3238  1.0733
    8MOL   H179 2713   2.959   7.786   3.038 -0.2299 -0.1274  1.1857
    8MOL   H180 2714   2.949   7.489   3.078  0.9244 -1.1871  0.1216
    8MOL   H181 2715   3.068   7.597   3.152 -0.7331 -0.5668  1.4647
    8MOL   C182 2716   2.760   7.546   3.222 -0.3413 -0.3200  0.0866
    8MOL   O183 2717   2.723   7.457   3.147 -0.8906 -0.2558 -0.2004
    8MOL   C184 2718   2.671   7.612   3.332 -0.5677  0.7559  0.3581
    8MOL   C185 2719   2.691   7.554   3.479 -0.1679  0.0340  0.0451
    8MOL   C186 2720   2.644   7.647   3.598 -0.0637  0.4422  0.4327
    8MOL   C187 2721   2.488   7.648   3.609  0.8155 -0.4199 -0.2676
    8MOL   C188 2722   2.441   7.728   3.732  0.0324  0.2500 -0.0145
    8MOL   O189 2723   2.487   0.018   3.700  0.2120 -0.2160 -0.1813
    8MOL   H190 2724   2.566   7.603   3.306 -0.7687 -0.6031  1.5992
    8MOL   H191 2725   2.687   7.719   3.324  1.3948  0.6165  1.8672
    8MOL   H192 2726   2.796   7.541   3.505  0.4528  1.0464 -1.9352
    8MOL   H193 2727   2.640   7.458   3.493  0.9416 -0.2231  2.6124
    8MOL   H194 2728   2.684   7.748   3.593 -2.3243  1.4551  1.7678
    8MOL   H195 2729   2.682   7.606   3.692 -1.7416 -1.2197  0.4142
    8MOL   H196 2730   2.458   7.543   3.617  1.3270 -0.6677 -1.5235
    8MOL   H197 2731   2.449   7.694   3.518  0.6105  1.8241  0.9331
    8MOL   H198 2732   2.332   7.725   3.733 -0.0536  1.5527  3.7853
    8MOL   H199 2733   2.482   7.689   3.825 -0.3584 -0.4544 -0.1341
    8MOL   C200 2734   2.419   0.112   3.633  0.0909  0.1809  0.2659
    8MOL   O201 2735   2.303   0.100   3.590  0.3248 -0.3276  0.3367
    8MOL   C202 2736   2.500   0.241   3.606  0.0239  0.3329  0.3201
    8MOL   C203 2737   2.422   0.337   3.509  0.1360 -0.0655  0.1302
    8MOL   C204 2738   2.307   0.414   3.581  0.1275  0.0861 -0.2576
    8MOL   C205 2739   2.269   0.528   3.491 -0.2871 -0.2466  0.4902
    8MOL   C206 2740   2.344   0.661   3.502 -0.1571  0.8344 -0.3680
    8MOL   O207 2741   2.261   0.746   3.416  0.0848 -0.4798  0.1722
    8MOL   H208 2742   2.593   0.203   3.565 -0.3319  0.4775 -0.6421
    8MOL   H209 2743   2.509   0.301   3.697  0.9702  1.4271 -0.4899
    8MOL   H210 2744   2.373   0.272   3.436  0.0468 -1.2014  1.1832
    8MOL   H211 2745   2.494   0.403   3.460 -0.2903  1.3546  1.3786
    8MOL   H212 2746   2.327   0.455   3.680 -2.3543  0.3676  0.1640
    8MOL   H213 2747   2.217   0.356   3.601 -0.9501  1.3609 -1.2910
    8MOL   H214 2748   2.171   0.564   3.522  0.4241  0.8019  1.5676
    8MOL   H215 2749   2.248   0.495   3.389  1.2547 -1.0922  0.4283
    8MOL   H216 2750   2.349   0.701   3.603  0.9479  0.7117 -0.3661
    8MOL   H217 2751   2.449   0.648   3.476 -0.6403 -0.5633 -1.7040
    8MOL   C218 2752   2.249   0.881   3.438  0.3200 -1.0954  1.1520
    8MOL   O219 2753   2.308   0.939   3.526  0.5345 -0.0992 -0.0631
    8MOL   C220 2754   2.148   0.955   3.345  0.1063 -0.5485  0.4411
    8MOL   C221 2755   2.013   0.885   3.328 -0.1976 -0.5664 -0.0881
    8MOL   C222 2756   1.922   0.974   3.239 -0.0592 -0.1310 -0.6163
    8MOL   C223 2757   1.769   0.942   3.248 -0.1427  0.0318 -0.8286
    8MOL   C224 2758   1.665   1.048   3.204 -0.2871 -0.2779  0.0414
    8MOL   O225 2759   1.670   1.064   3.067  0.1487 -0.2016 -0.7914
    8MOL   H226 2760   2.204   0.976   3.253  1.1091 -0.5769  1.0305
    8MOL   H227 2761   2.132   1.053   3.390  0.5645 -0.7144  0.9756
    8MOL   H228 2762   1.965   0.882   3.426  0.8373 -0.2457  0.4318
    8MOL   H229 2763   2.022   0.781   3.296 -0.6101 -0.8640  0.7191
    8MOL   H230 2764   1.957   0.961   3.136  1.2149  0.9327 -0.3301
    8MOL   H231 2765   1.938   1.079   3.263  0.0850 -0.5001  0.9100
    8MOL   H232 2766   1.752   0.920   3.354 -0.2031 -3.0532 -1.4284
    8MOL   H233 2767   1.747   0.847   3.199  0.3679 -0.8521  0.6129
    8MOL   H234 2768   1.562   1.012   3.213 -0.6159  0.6402  0.0050
    8MOL   H235 2769   1.668   1.145   3.254 -0.3430  0.5387 -1.5142
    8MOL   C236 2770   1.596   1.164   3.008 -0.3164  0.8965  0.3155
    8MOL   O237 2771   1.546   1.257   3.071 -0.7529 -0.2232 -0.5583
    8MOL   C238 2772   1.584   1.152   2.857  0.1438 -0.7917  0.2808
    8MOL   C239 2773   1.706   1.133   2.773  0.1493  0.4844 -0.0306
    8MOL   C240 2774   1.831   1.235   2.791 -0.1369 -0.0023 -0.1408
    8MOL   C241 2775   1.790   1.389   2.772 -0.1727 -0.0688  0.1513
    8MOL   C242 2776   1.904   1.491   2.779 -0.1155  0.7011  0.3776
    8MOL   O243 2777   1.993   1.461   2.881  0.3681 -0.1588  0.1563
    8MOL   H244 2778   1.542   1.245   2.819  1.4637  0.0697  0.8999
    8MOL   H245 2779   1.503   1.084   2.830 -0.6783 -0.1869  1.1923
    8MOL   H246 2780   1.676   1.133   2.668  0.5954 -0.3292 -0.1622
    8MOL   H247 2781   1.753   1.036   2.790  1.2711  0.6964 -1.7756
    8MOL   H248 2782   1.902   1.217   2.710 -0.5140  3.7718 -1.4169
    8MOL   H249 2783   1.878   1.222   2.888  0.3998 -0.1299 -0.4121
    8MOL   H250 2784   1.722   1.411   2.854 -1.0658 -1.5907 -0.1491
    8MOL   H251 2785   1.732   1.400   2.680  1.1130  0.1327 -0.6524
    8MOL   H252 2786   1.956   1.493   2.683  1.1900 -1.0816  1.0199
    8MOL   H253 2787   1.864   1.592   2.784 -0.0040  0.6581  2.3771
    8MOL   C254 2788   2.121   1.502   2.878  1.0973  0.4827  0.1476
    8MOL   O255 2789   2.170   1.581   2.797  0.1638 -0.0573 -0.3127
    8MOL   C256 2790   2.199   1.444   2.995  0.5891  0.0096  0.1812
    8MOL   C257 2791   2.180   1.289   3.016 -0.1610 -0.3392 -0.3273
    8MOL   C258 2792   2.212   1.210   2.892 -0.2603 -0.0021 -0.1749
    8MOL   C259 2793   2.167   1.060   2.928  0.0797 -0.2884 -0.0548
    8MOL   C260 2794   2.193   0.954   2.816  0.1091  0.4843  0.8731
    8MOL   O261 2795   2.127   0.991   2.697 -0.0207 -0.0217 -0.5899
    8MOL   H262 2796   2.189   1.500   3.088 -0.4295 -1.1346  0.7775
    8MOL   H263 2797   2.303   1.461   2.967  0.8391 -1.5872  0.1264
    8MOL   H264 2798   2.080   1.273   3.056  0.3021  0.8312  1.3528
    8MOL   H265 2799   2.239   1.254   3.101 -2.9990 -0.0725  1.7991
    8MOL   H266 2800   2.317   1.215   2.864 -0.0302 -1.1875  0.4418
    8MOL   H267 2801   2.158   1.232   2.800 -1.9433 -0.1829  0.7476
    8MOL   H268 2802   2.062   1.053   2.957 -0.0560 -0.1427 -0.5009
    8MOL   H269 2803   2.230   1.032   3.013 -0.9000 -1.4165  0.3061
    8MOL   H270 2804   2.299   0.934   2.802  0.2547  1.0381  1.1937
    8MOL   H271 2805   2.154   0.857   2.848  0.1915 -0.2817 -1.2565
    8MOL   C272 2806   2.104   0.894   2.605 -0.7441 -0.2113  0.2657
    8MOL   O273 2807   2.152   0.782   2.616 -0.1949 -0.3217  0.6365
    8MOL   C274 2808   2.029   0.939   2.478  0.2660  0.7143  0.2004
    8MOL   C275 2809   1.963   1.082   2.485  0.3458 -0.0222 -0.4366
    8MOL   C276 2810   1.904   1.123   2.354  0.1894  0.3183 -0.9664
    8MOL   C277 2811   1.857   1.268   2.378  0.2789  0.1708 -0.3033
    8MOL   C278 2812   1.771   1.324   2.266 -0.1517  0.1535 -0.3722
    8MOL   O279 2813   1.748   1.465   2.291 -0.1452 -0.1307  0.2590
    8MOL   H280 2814   1.950   0.866   2.466  1.5419 -0.9361  1.6429
    8MOL   H281 2815   2.099   0.936   2.394  1.1332  1.1670  0.8952
    8MOL   H282 2816   2.029   1.160   2.521 -3.3829  3.2615 -0.4176
    8MOL   H283 2817   1.882   1.069   2.557  2.1525  0.2099  1.6806
    8MOL   H284 2818   1.834   1.049   2.315 -2.2404 -0.1388  3.9208
    8MOL   H285 2819   1.980   1.126   2.276 -0.7598  0.7480 -1.8886
    8MOL   H286 2820   1.950   1.324   2.388 -0.8733  2.3022 -1.1236
    8MOL   H287 2821   1.791   1.275   2.465  2.4908  0.8955  1.3432
    8MOL   H288 2822   1.807   1.318   2.163  1.1790 -1.8885  0.1924
    8MOL   H289 2823   1.674   1.278   2.283  0.7607 -1.6573 -0.0146
    8MOL   C290 2824   1.823   1.562   2.244 -0.6752  0.2790 -1.0268
    8MOL   O291 2825   1.910   1.549   2.159  0.1299  0.1156 -0.2458
    8MOL   C292 2826   1.808   1.695   2.315  0.5239  0.0740 -0.1569
    8MOL   C293 2827   1.938   1.784   2.311  0.4211 -0.3444 -0.6621
    8MOL   C294 2828   2.047   1.740   2.420  0.3075  0.0046  0.1406
    8MOL   C295 2829   2.181   1.798   2.389  0.2758 -0.4693  0.2290
    8MOL   C296 2830   2.281   1.771   2.502  0.0868 -0.0306  0.0044
    8MOL   O297 2831   2.285   1.630   2.529 -0.1975  0.2526 -0.0456
    8MOL   H298 2832   1.783   1.680   2.420 -0.3631  0.1278 -0.3533
    8MOL   H299 2833   1.715   1.742   2.284 -0.3037 -0.8070  0.9311
    8MOL   H300 2834   1.917   1.890   2.329  1.0112 -0.4278  0.5439
    8MOL   H301 2835   1.983   1.782   2.212 -3.1591  0.1659 -2.3693
    8MOL   H302 2836   2.038   1.632   2.424 -0.0190  0.0402  0.3451
    8MOL   H303 2837   2.018   1.771   2.520  0.9336  2.2054 -0.3314
    8MOL   H304 2838   2.171   1.906   2.379 -0.9834 -0.7120 -1.3346
    8MOL   H305 2839   2.225   1.765   2.296 -0.2803 -3.7775  1.0693
    8MOL   H306 2840   2.376   1.824   2.489 -0.4324  0.7393 -0.6771
    8MOL   H307 2841   2.234   1.808   2.593  0.2639  2.4830 -0.8896
    8MOL   C308 2842   2.399   1.568   2.534 -0.1159  0.5604  0.4971
    8MOL   O309 2843   2.503   1.622   2.512 -0.3430 -0.2837 -0.0925
    8MOL   C310 2844   2.384   1.422   2.572 -0.4442  0.1387  0.3156
    8MOL   C311 2845   2.273   1.342   2.496  0.2614  0.2572 -0.1328
    8MOL   C312 2846   2.295   1.321   2.345  0.2162  0.0616  0.3604
    8MOL   C313 2847   2.204   1.410   2.257 -0.6779  0.7768  0.8199
    8MOL   C314 2848   2.239   1.398   2.104  0.5132 -0.5460 -0.6048
    8MOL   O315 2849   2.195   1.282   2.039  0.2297  0.2476 -0.0561
    8MOL   H316 2850   2.361   1.430   2.678  0.7136  0.8366  0.5257
    8MOL   H317 2851   2.481   1.376   2.552 -2.1948 -3.0302 -1.1457
    8MOL   H318 2852   2.181   1.396   2.519  0.7301  0.8818  0.2766
    8MOL   H319 2853   2.252   1.246   2.544 -1.3672  0.0822 -1.1430
    8MOL   H320 2854   2.243   1.228   2.320  0.0355  0.4053 -0.5695
    8MOL   H321 2855   2.400   1.313   2.318  0.3583  4.5520 -0.9152
    8MOL   H322 2856   2.218   1.514   2.286  1.3853  1.5414 -2.6622
    8MOL   H323 2857   2.099   1.379   2.266 -0.9690  0.2132 -3.4198
    8MOL   H324 2858   2.191   1.485   2.060  0.0152  1.1887  3.1478
    8MOL   H325 2859   2.346   1.419   2.092  1.1134 -1.4635  2.4970
    8MOL   C326 2860   2.284   1.194   1.992  0.6743 -0.2236  0.2162
    8MOL   O327 2861   2.408   1.196   2.009  0.4468  0.0761 -0.5951
    8MOL   C328 2862   2.237   1.082   1.904 -0.6361  0.3299  0.7456
    8MOL   C329 2863   2.121   0.996   1.957 -0.0633  0.0788  0.6315
    8MOL   C330 2864   1.988   1.068   1.942 -0.2683  0.0169  0.8560
    8MOL   C331 2865   1.862   0.984   1.939 -0.3043 -0.2050  0.3649
    8MOL   C332 2866   1.746   1.055   1.865 -0.2942 -0.2006 -0.2198
    8MOL   O333 2867   1.694   1.167   1.934  0.1802 -0.0957 -0.1585
    8MOL   H334 2868   2.322   1.017   1.882 -0.9763  0.2699 -0.4304
    8MOL   H335 2869   2.204   1.119   1.807 -1.6731 -1.7099  0.2976
    8MOL   H336 2870   2.143   0.977   2.061 -1.2744  2.0347  1.2798
    8MOL   H337 2871   2.131   0.901   1.904  0.8002  0.6281 -0.2075
    8MOL   H338 2872   1.996   1.119   1.846  1.8948  2.7550  2.4062
    8MOL   H339 2873   1.982   1.146   2.018  0.9164 -2.1393  3.2060
    8MOL   H340 2874   1.826   0.952   2.037  0.3380 -0.9870  0.3491
    8MOL   H341 2875   1.876   0.889   1.888 -1.3050 -1.1193  1.7560
    8MOL   H342 2876   1.779   1.090   1.767  1.0648 -0.4521  0.1454
    8MOL   H343 2877   1.661   0.996   1.830 -0.4560 -1.0855  1.6397
    8MOL   C344 2878   1.563   1.190   1.932  0.4447 -0.1349 -0.4162
    8MOL   O345 2879   1.464   1.120   1.898 -0.0845 -0.0004 -0.6920
    8MOL   C346 2880   1.544   1.329   1.989  0.3403 -0.8592  0.1803
    8MOL   C347 2881   1.395   1.386   1.988  0.0745  0.1313 -0.1772
    8MOL   C348 2882   1.362   1.475   1.871  0.1185  0.3227  0.1927
    8MOL   C349 2883   1.214   1.531   1.877 -0.5428 -0.1576 -0.2653
    8MOL   C350 2884   1.176   1.636   1.769 -0.0982  0.5621 -0.0532
    8MOL   O351 2885   1.263   1.745   1.793  0.4786 -0.5072 -0.1001
    8MOL   H352 2886   1.602   1.398   1.928  1.2336  0.1550  2.1233
    8MOL   H353 2887   1.577   1.325   2.093  0.2126  1.8544  0.3723
    8MOL   H354 2888   1.376   1.433   2.085  0.7293  0.3422 -0.1497
    8MOL   H355 2889   1.328   1.300   1.993  0.1291  0.1531  1.1078
    8MOL   H356 2890   1.371   1.428   1.773  1.9969  2.1577 -0.5672
    8MOL   H357 2891   1.433   1.557   1.861  0.9125 -0.5713 -1.8226
    8MOL   H358 2892   1.202   1.582   1.973  2.5175  1.3334 -0.6131
    8MOL   H359 2893   1.139   1.451   1.873 -0.4621 -0.2511  0.1190
    8MOL   H360 2894   1.197   1.589   1.673 -0.5502 -0.9362  0.5501
    8MOL   H361 2895   1.069   1.656   1.766 -0.1164  0.7078  1.1303
    8MOL   H362 2896   1.312   1.764   1.715  1.2082  0.1656  0.5071
    9MOL     C1 2897   2.972   3.119   5.315  0.6063  0.3757  0.1392
    9MOL     O2 2898   2.849   3.142   5.310  0.1477  0.2052 -0.5371
    9MOL     C3 2899   3.063   3.166   5.430 -0.8365  0.2581  0.3789
    9MOL     C4 2900   3.006   3.246   5.557 -0.1567 -0.5469 -0.5040
    9MOL     C5 2901   2.952   3.389   5.515 -0.2907  0.5879  0.1447
    9MOL     C6 2902   2.890   3.459   5.639  0.6976 -0.4024  0.6858
    9MOL     C7 2903   2.852   3.603   5.609 -0.0974 -0.9320  0.0789
    9MOL     O8 2904   2.804   3.665   5.724 -0.1555 -0.4648  0.3428
    9MOL     H9 2905   3.134   3.235   5.385 -1.1903  0.9863  0.9058
    9MOL    H10 2906   3.125   3.085   5.468 -0.6252  0.7878  1.1787
    9MOL    H11 2907   3.075   3.266   5.638 -1.5476  2.7314 -0.0204
    9MOL    H12 2908   2.919   3.197   5.600  0.7265 -1.7940 -0.1097
    9MOL    H13 2909   2.887   3.380   5.428  1.7422  1.0034 -1.4713
    9MOL    H14 2910   3.043   3.443   5.487  0.7545 -0.7677  0.8528
    9MOL    H15 2911   2.958   3.456   5.724 -0.3402 -1.7116  1.4976
    9MOL    H16 2912   2.814   3.395   5.683 -0.2515 -0.2596 -0.7005
    9MOL    H17 2913   2.937   3.658   5.569 -0.5237 -1.4993 -1.6859
    9MOL    H18 2914   2.776   3.598   5.531  0.7321 -3.0502 -0.6226
    9MOL    H19 2915   3.033   3.058   5.248  2.0728 -0.2076  1.9890
    9MOL    C20 2916   2.821   3.797   5.753  0.0020 -0.8756  0.7300
    9MOL    O21 2917   2.870   3.882   5.683 -0.0038  0.6022  0.1149
    9MOL    C22 2918   2.763   3.834   5.887  0.3460 -0.0061  0.0791
    9MOL    C23 2919   2.622   3.776   5.921 -0.4562 -1.1364  0.2322
    9MOL    C24 2920   2.501   3.852   5.859 -0.4131  0.4654  0.0408
    9MOL    C25 2921   2.483   3.998   5.913 -0.8571  0.2845  0.8259
    9MOL    C26 2922   2.360   4.072   5.858 -0.6374  0.4647  0.5130
    9MOL    O27 2923   2.330   4.195   5.930 -0.2122  0.3496  0.5638
    9MOL    H28 2924   2.752   3.943   5.888 -0.6078 -0.0641 -1.3648
    9MOL    H29 2925   2.847   3.813   5.953 -0.7809 -2.7211  0.7083
    9MOL    H30 2926   2.601   3.761   6.026 -1.8265 -0.7023  0.0303
    9MOL    H31 2927   2.623   3.670   5.895  1.8592 -1.4354  1.4219
    9MOL    H32 2928   2.407   3.798   5.873 -0.7223 -0.3094 -4.3536
    9MOL    H33 2929   2.507   3.849   5.750 -2.5239 -0.8405 -0.0701
    9MOL    H34 2930   2.576   4.051   5.892  0.7481 -3.1839 -1.2553
    9MOL    H35 2931   2.482   3.992   6.022 -2.7581 -2.7766  0.6975
    9MOL    H36 2932   2.386   4.112   5.760 -0.0356  0.7899  0.8082
    9MOL    H37 2933   2.289   3.992   5.837 -0.6415  1.4521 -3.6435
    9MOL    C38 2934   2.264   4.196   6.037  0.2248 -0.4921 -1.0798
    9MOL    O39 2935   2.196   4.099   6.072  0.4639 -0.3948  0.1359
    9MOL    C40 2936   2.260   4.332   6.109  0.1466 -0.1713  0.2555
    9MOL    C41 2937   2.398   4.395   6.153 -0.4525 -0.3166 -0.3537
    9MOL    C42 2938   2.490   4.324   6.249  0.0429 -0.7329  0.4153
    9MOL    C43 2939   2.618   4.400   6.283 -0.1316  0.4085  0.1203
    9MOL    C44 2940   2.716   4.319   6.360  0.2724 -0.1817 -0.0139
    9MOL    O45 2941   2.836   4.393   6.373  0.2818  0.0806 -0.4391
    9MOL    H46 2942   2.207   4.312   6.202  1.0965 -4.3168  0.0209
    9MOL    H47 2943   2.198   4.403   6.054  0.2334 -0.3521 -0.0785
    9MOL    H48 2944   2.388   4.496   6.192  0.6123 -0.5022  0.4132
    9MOL    H49 2945   2.453   4.407   6.059  1.8824  0.9955  1.1249
    9MOL    H50 2946   2.515   4.226   6.209 -0.2844 -1.2418  1.4658
    9MOL    H51 2947   2.433   4.301   6.339  0.8678 -0.1115  1.1014
    9MOL    H52 2948   2.596   4.488   6.344  1.4268 -1.0909  2.9634
    9MOL    H53 2949   2.667   4.442   6.195  0.5620  1.1767  0.8719
    9MOL    H54 2950   2.668   4.275   6.448  1.0518 -1.9189 -0.4422
    9MOL    H55 2951   2.743   4.231   6.303  0.3982 -1.5578  2.1325
    9MOL    C56 2952   2.898   4.394   6.492 -0.0554 -0.3973  0.4597
    9MOL    O57 2953   2.852   4.354   6.600  0.2353 -0.5595 -0.2560
    9MOL    C58 2954   3.029   4.471   6.487 -0.1658 -0.6872 -0.4335
    9MOL    C59 2955   3.128   4.441   6.373  1.1434  0.5121  0.2288
    9MOL    C60 2956   3.134   4.551   6.262  0.6920  0.4637 -0.1546
    9MOL    C61 2957   3.238   4.544   6.157  0.1945  0.4675  0.4889
    9MOL    C62 2958   3.265   4.682   6.099  0.3968  0.1265  0.2476
    9MOL    O63 2959   3.372   4.675   6.000  0.7004 -0.1809 -0.0857
    9MOL    H64 2960   3.085   4.447   6.577 -0.3363  1.2507  0.2048
    9MOL    H65 2961   2.997   4.575   6.497  0.9427 -0.1260 -2.3978
    9MOL    H66 2962   3.100   4.349   6.321 -0.9115  1.5007 -0.4655
    9MOL    H67 2963   3.222   4.413   6.422  1.4813  1.3657  0.0830
    9MOL    H68 2964   3.149   4.637   6.326  1.9454  0.2696 -0.1880
    9MOL    H69 2965   3.036   4.570   6.218  0.3238  1.1734  0.9593
    9MOL    H70 2966   3.206   4.463   6.091 -1.0666 -1.0342  2.8489
    9MOL    H71 2967   3.334   4.506   6.190  0.7627  1.1394 -0.3619
    9MOL    H72 2968   3.172   4.717   6.053  1.4223 -0.0680 -2.0816
    9MOL    H73 2969   3.298   4.746   6.181  0.5678  0.5705 -0.1587
    9MOL    C74 2970   3.352   4.621   5.876 -0.1525 -0.3415  0.3875
    9MOL    O75 2971   3.249   4.572   5.832  0.0033 -1.0503  0.0018
    9MOL    C76 2972   3.476   4.623   5.787 -0.3727 -0.4313 -0.0523
    9MOL    C77 2973   3.512   4.757   5.724  0.3460  0.6282  0.0494
    9MOL    C78 2974   3.399   4.827   5.654  0.1757 -0.5870  0.3820
    9MOL    C79 2975   3.432   4.961   5.603 -0.0825  0.2904 -0.0257
    9MOL    C80 2976   3.338   5.015   5.501 -0.7959  0.9519 -0.1516
    9MOL    O81 2977   3.211   5.043   5.564  0.1293 -0.1444  0.2401
    9MOL    H82 2978   3.456   4.552   5.707 -0.8851  0.5104 -0.7739
    9MOL    H83 2979   3.556   4.593   5.854  0.3087  1.2663 -0.0873
    9MOL    H84 2980   3.588   4.756   5.646  1.2425  0.0903  0.9275
    9MOL    H85 2981   3.536   4.814   5.814  1.0942 -0.4351  0.5368
    9MOL    H86 2982   3.311   4.838   5.717 -0.7015 -2.3587 -0.4662
    9MOL    H87 2983   3.361   4.761   5.576  1.8905  0.7614 -1.6411
    9MOL    H88 2984   3.520   4.956   5.540  1.1114  0.8076  1.5534
    9MOL    H89 2985   3.462   5.042   5.671 -1.4536 -0.4785  1.5259
    9MOL    H90 2986   3.393   5.095   5.451  2.4547 -2.1892 -1.8086
    9MOL    H91 2987   3.334   4.938   5.424  0.1615 -2.9972  3.5759
    9MOL    C92 2988   3.173   5.169   5.589 -0.4271 -0.0758  0.4463
    9MOL    O93 2989   3.246   5.269   5.566  0.3811  0.3500  0.5704
    9MOL    C94 2990   3.020   5.186   5.638  0.2477  0.4851  0.2332
    9MOL    C95 2991   2.978   5.329   5.649 -0.5742  0.2335 -0.1355
    9MOL    C96 2992   2.828   5.347   5.682  0.7215  0.2587 -0.1890
    9MOL    C97 2993   2.777   5.491   5.673  0.5228  0.0029 -0.9659
    9MOL    C98 2994   2.626   5.493   5.699 -0.8921  0.6353  0.0888
    9MOL    O99 2995   2.572   5.621   5.687  0.1146 -0.5296  0.2511
    9MOL   H100 2996   2.997   5.142   5.735  0.1158  0.7064  0.3021
    9MOL   H101 2997   2.956   5.140   5.563 -0.7234 -0.0217  1.3507
    9MOL   H102 2998   2.988   5.372   5.549  1.4575  1.1688  0.4355
    9MOL   H103 2999   3.049   5.391   5.704  3.2745 -2.2801 -2.0124
    9MOL   H104 3000   2.792   5.301   5.774  2.1587  1.8906  1.2502
    9MOL   H105 3001   2.769   5.293   5.608  3.0896  0.3301 -2.1912
    9MOL   H106 3002   2.794   5.544   5.580  1.0024 -1.3183 -1.6477
    9MOL   H107 3003   2.839   5.536   5.750 -0.5897  0.3242 -0.2463
    9MOL   H108 3004   2.560   5.447   5.625 -0.4011 -0.6656  0.4585
    9MOL   H109 3005   2.615   5.441   5.793  1.0916  0.3472  0.1830
    9MOL   C110 3006   2.564   5.705   5.791 -0.4827 -0.1162 -0.1156
    9MOL   O111 3007   2.617   5.683   5.897 -0.3497  0.1755 -0.1514
    9MOL   C112 3008   2.489   5.837   5.763 -0.4827  0.0872  0.0807
    9MOL   C113 3009   2.526   5.963   5.850  0.0490  0.1226  0.6623
    9MOL   C114 3010   2.511   5.962   6.001 -0.5261 -0.4356 -0.6425
    9MOL   C115 3011   2.571   6.093   6.063 -0.0935 -0.0875  0.1079
    9MOL   C116 3012   2.546   6.107   6.208 -0.4798  0.4477  1.0884
    9MOL   O117 3013   2.617   6.229   6.253  0.0782 -0.1461 -0.0455
    9MOL   H118 3014   2.388   5.803   5.787 -0.8244 -1.1777 -2.9226
    9MOL   H119 3015   2.494   5.856   5.655  2.5956 -0.0976  0.1540
    9MOL   H120 3016   2.457   6.042   5.822  1.2402  1.6024  1.8240
    9MOL   H121 3017   2.624   5.995   5.816 -0.4178 -0.5953 -1.3862
    9MOL   H122 3018   2.580   5.887   6.041 -1.8907 -1.1705  0.3298
    9MOL   H123 3019   2.409   5.945   6.033 -0.1104  0.0499  1.0100
    9MOL   H124 3020   2.518   6.177   6.018 -0.5687 -0.8260 -0.7258
    9MOL   H125 3021   2.676   6.110   6.040  0.5233  0.3690  3.0826
    9MOL   H126 3022   2.437   6.108   6.217 -0.5340 -0.8278  0.6682
    9MOL   H127 3023   2.586   6.026   6.269 -0.8002 -0.1750  0.4933
    9MOL   C128 3024   2.538   6.340   6.285  0.7266  0.1966 -0.3300
    9MOL   O129 3025   2.411   6.333   6.295  0.4998  0.8504  0.2842
    9MOL   C130 3026   2.605   6.472   6.312 -0.2011  1.0664  0.4365
    9MOL   C131 3027   2.748   6.457   6.374 -0.2048  0.7076 -1.0801
    9MOL   C132 3028   2.768   6.381   6.510  0.1954  0.4815  0.2836
    9MOL   C133 3029   2.686   6.435   6.627 -0.4435  0.3259 -0.1788
    9MOL   C134 3030   2.741   6.386   6.769  0.1639 -0.6116  0.1923
    9MOL   O135 3031   2.746   6.246   6.779  0.7210 -0.5079 -0.2738
    9MOL   H136 3032   2.538   6.519   6.384 -0.1185  0.4785  0.9026
    9MOL   H137 3033   2.605   6.537   6.225 -0.2888 -1.0067 -1.1503
    9MOL   H138 3034   2.785   6.559   6.389  0.1069  0.1500  2.3867
    9MOL   H139 3035   2.824   6.419   6.305 -1.2012  0.3837 -2.0100
    9MOL   H140 3036   2.875   6.394   6.528  0.0732  2.8593 -0.4511
    9MOL   H141 3037   2.751   6.274   6.503  0.1872  0.5223 -0.3033
    9MOL   H142 3038   2.587   6.394   6.609 -0.7082  0.5667  0.7116
    9MOL   H143 3039   2.671   6.543   6.628 -0.6803  0.2849  0.7898
    9MOL   H144 3040   2.837   6.425   6.803  0.0764 -0.9194  0.7899
    9MOL   H145 3041   2.674   6.422   6.846  2.1190  0.3168  1.5076
    9MOL   C146 3042   2.768   6.200   6.910  0.2499 -0.0303  0.3138
    9MOL   O147 3043   2.787   6.270   7.010  0.2475 -0.1320 -0.1700
    9MOL   C148 3044   2.772   6.044   6.912 -0.1558  0.0907  0.5841
    9MOL   C149 3045   2.866   5.985   7.015  1.0680  0.1330 -0.0164
    9MOL   C150 3046   2.807   5.973   7.155 -0.0032 -0.1339  0.0688
    9MOL   C151 3047   2.916   5.935   7.254  0.4867 -0.0034  0.6875
    9MOL   C152 3048   2.879   5.948   7.406 -0.6168 -0.1555  0.3233
    9MOL   O153 3049   2.767   5.858   7.426  0.2437 -0.1161 -0.2851
    9MOL   H154 3050   2.797   6.003   6.814 -0.9019 -0.3121  0.5598
    9MOL   H155 3051   2.669   6.018   6.936  0.1725 -0.2258  1.6671
    9MOL   H156 3052   2.950   6.053   7.021  0.0102  1.4169  0.5757
    9MOL   H157 3053   2.910   5.890   6.985  1.3451  0.4040 -0.4631
    9MOL   H158 3054   2.728   5.898   7.159  1.1735 -1.3671  0.9414
    9MOL   H159 3055   2.761   6.066   7.187  0.0859 -0.8704  2.4229
    9MOL   H160 3056   2.983   6.019   7.231 -1.6665  1.0468 -1.9308
    9MOL   H161 3057   2.970   5.844   7.229 -1.9790 -1.2157 -0.2656
    9MOL   H162 3058   2.951   5.912   7.480 -0.5345 -1.9483 -0.5951
    9MOL   H163 3059   2.839   6.043   7.441 -2.0441 -1.2351  1.6867
    9MOL   C164 3060   2.675   5.870   7.522 -0.1797  0.2153  0.0213
    9MOL   O165 3061   2.678   5.961   7.602  0.2077  0.1310  0.2501
    9MOL   C166 3062   2.563   5.764   7.523  0.1506  0.2914 -0.2038
    9MOL   C167 3063   2.500   5.710   7.391  0.4588  0.1856  0.5226
    9MOL   C168 3064   2.586   5.610   7.315 -0.3940 -0.1994 -0.2385
    9MOL   C169 3065   2.602   5.461   7.370  0.4854 -0.4321 -0.0778
    9MOL   C170 3066   2.675   5.371   7.265  0.3380 -0.5454  0.1348
    9MOL   O171 3067   2.709   5.247   7.328  0.2064  0.1653 -0.1536
    9MOL   H172 3068   2.475   5.807   7.570 -0.4265 -1.9182  0.7685
    9MOL   H173 3069   2.593   5.684   7.591 -0.8692  0.0543 -0.0312
    9MOL   H174 3070   2.481   5.793   7.324 -1.1071 -0.6668 -0.0982
    9MOL   H175 3071   2.401   5.670   7.412  0.7554 -2.1787 -2.3051
    9MOL   H176 3072   2.688   5.648   7.312 -0.9653  1.3702 -0.0213
    9MOL   H177 3073   2.542   5.610   7.215 -0.4462 -1.2462 -0.2260
    9MOL   H178 3074   2.502   5.426   7.397 -0.3036  1.6281 -0.2388
    9MOL   H179 3075   2.651   5.463   7.467 -4.3016 -1.7305  2.5689
    9MOL   H180 3076   2.606   5.358   7.182 -0.9023 -0.0119  1.0583
    9MOL   H181 3077   2.758   5.427   7.223  0.2067 -1.0088 -0.7465
    9MOL   C182 3078   2.620   5.144   7.351 -0.3909 -0.1525 -0.3257
    9MOL   O183 3079   2.512   5.138   7.296  0.5464  0.1113 -0.1657
    9MOL   C184 3080   2.685   5.037   7.437  0.3978 -0.2042  0.0634
    9MOL   C185 3081   2.663   5.069   7.585  0.0594  0.6539 -0.4826
    9MOL   C186 3082   2.730   4.964   7.675  0.5436 -0.5346  0.5744
    9MOL   C187 3083   2.709   4.988   7.825 -0.0979 -0.1632  0.5017
    9MOL   C188 3084   2.792   4.895   0.062  0.0024  0.4608 -0.9153
    9MOL   O189 3085   2.737   4.887   0.199 -0.2697 -1.0720 -0.0424
    9MOL   H190 3086   2.792   5.029   7.418  0.1313 -0.6741 -1.3158
    9MOL   H191 3087   2.640   4.941   7.409  1.7033 -1.1554  1.2004
    9MOL   H192 3088   2.555   5.074   7.601 -0.0743 -2.3618  0.0123
    9MOL   H193 3089   2.692   5.172   7.601 -1.1391  1.0675 -0.8972
    9MOL   H194 3090   2.835   4.966   7.645  0.0675 -0.5050 -1.1510
    9MOL   H195 3091   2.689   4.866   7.649  0.6392 -0.4277  0.0196
    9MOL   H196 3092   2.604   4.968   0.003 -0.5084  1.0555 -0.2729
    9MOL   H197 3093   2.733   5.091   0.009 -1.1553 -0.0959  1.1877
    9MOL   H198 3094   2.803   4.798   0.013 -1.5254 -1.5832  2.6419
    9MOL   H199 3095   2.896   4.926   0.061  0.3046 -0.4793 -3.1008
    9MOL   C200 3096   2.801   4.796   0.277 -0.4694 -0.1285 -0.2692
    9MOL   O201 3097   2.885   4.711   0.247 -0.2583 -0.2866 -0.0930
    9MOL   C202 3098   2.755   4.794   0.428 -0.5059  0.0092 -0.7064
    9MOL   C203 3099   2.619   4.856   0.449 -0.1716 -0.0762  0.2027
    9MOL   C204 3100   2.565   4.875   0.594  0.1308 -0.6401 -0.0065
    9MOL   C205 3101   2.432   4.952   0.605 -0.5742 -0.4524  0.7041
    9MOL   C206 3102   2.419   5.072   0.698 -0.3152 -0.5194  0.0470
    9MOL   O207 3103   2.518   5.173   0.672  0.1674  0.2238 -0.0382
    9MOL   H208 3104   2.817   4.847   0.501  1.5548 -2.2512 -0.7553
    9MOL   H209 3105   2.732   4.696   0.469  0.0797 -0.2538 -0.9979
    9MOL   H210 3106   2.542   4.802   0.393  0.8676 -1.0660 -0.2958
    9MOL   H211 3107   2.626   4.958   0.413  2.1782 -0.3018 -0.1061
    9MOL   H212 3108   2.636   4.924   0.661 -1.0448  0.4560  0.4647
    9MOL   H213 3109   2.545   4.775   0.634  1.1265 -1.1952 -0.8758
    9MOL   H214 3110   2.359   4.879   0.640 -0.2277 -2.4062 -2.3862
    9MOL   H215 3111   2.399   4.978   0.504  0.1001 -1.2631  0.2767
    9MOL   H216 3112   2.318   5.112   0.693  0.1824  0.5459 -2.1429
    9MOL   H217 3113   2.442   5.036   0.798  1.7686 -0.5859 -0.4315
    9MOL   C218 3114   2.529   5.276   0.757 -0.2145 -0.1163 -0.4366
    9MOL   O219 3115   2.451   5.320   0.844  0.1721  0.2666 -0.5171
    9MOL   C220 3116   2.658   5.354   0.736 -0.3482  0.0295  0.0930
    9MOL   C221 3117   2.783   5.270   0.760  0.2224  0.3106  0.2335
    9MOL   C222 3118   2.836   5.175   0.649 -0.0147  0.4773 -0.4119
    9MOL   C223 3119   2.857   5.265   0.526  0.1774  0.0987 -0.1583
    9MOL   C224 3120   2.943   5.188   0.425 -0.4469  0.3171  0.3127
    9MOL   O225 3121   3.068   5.153   0.475  0.0093 -0.0053  0.0617
    9MOL   H226 3122   2.649   5.434   0.809 -2.8301 -0.1977  0.0731
    9MOL   H227 3123   2.661   5.400   0.638 -0.6301  0.1938  0.1614
    9MOL   H228 3124   2.770   5.218   0.855  0.3375 -1.0815 -0.4967
    9MOL   H229 3125   2.864   5.337   0.791 -0.4032  0.7309  0.9708
    9MOL   H230 3126   2.765   5.098   0.619  0.2015  1.0537 -2.4202
    9MOL   H231 3127   2.926   5.123   0.682 -1.3429 -0.8852  1.1879
    9MOL   H232 3128   2.908   5.356   0.558 -0.4585  0.8172 -1.1568
    9MOL   H233 3129   2.758   5.286   0.487  0.7184 -0.0956 -1.6692
    9MOL   H234 3130   2.880   5.106   0.392  0.2447 -0.0027 -0.2333
    9MOL   H235 3131   2.955   5.249   0.335  0.0823  1.5804  1.2277
    9MOL   C236 3132   3.151   5.078   0.400 -0.0794 -0.4628 -0.6209
    9MOL   O237 3133   3.134   5.046   0.285 -0.3680  0.2220 -0.8404
    9MOL   C238 3134   3.272   5.023   0.482 -0.2743 -0.4984  0.6636
    9MOL   C239 3135   3.404   5.021   0.404 -0.2857  0.2779  0.2078
    9MOL   C240 3136   3.500   5.128   0.454 -0.5041 -0.3122  0.5562
    9MOL   C241 3137   3.549   5.119   0.602  0.4518 -0.2622 -0.5458
    9MOL   C242 3138   3.675   5.202   0.634  0.2099 -0.1276  0.0834
    9MOL   O243 3139   3.699   5.171   0.775  0.5036  0.1721 -0.1358
    9MOL   H244 3140   3.236   4.922   0.504 -1.3618  0.1109  1.7988
    9MOL   H245 3141   3.263   5.069   0.581 -1.0097  0.8971 -0.0506
    9MOL   H246 3142   3.374   5.031   0.300  0.5413 -0.3582 -0.1031
    9MOL   H247 3143   3.460   4.927   0.408  1.1282  0.9181 -3.0190
    9MOL   H248 3144   3.456   5.226   0.435 -1.2586 -1.3521 -3.5807
    9MOL   H249 3145   3.592   5.130   0.397 -0.6671 -0.4687  0.2866
    9MOL   H250 3146   3.558   5.019   0.643  1.1129 -0.0671 -0.1957
    9MOL   H251 3147   3.470   5.161   0.663  0.1114 -1.1564 -0.3694
    9MOL   H252 3148   3.760   5.170   0.575  0.4168  1.1049 -0.3104
    9MOL   H253 3149   3.661   5.310   0.624 -1.9025 -0.1148  2.3855
    9MOL   C254 3150   3.808   5.225   0.828 -0.7971  0.4188  0.0378
    9MOL   O255 3151   3.885   5.299   0.768  0.4774  0.7293 -0.4455
    9MOL   C256 3152   3.825   5.179   0.975  0.3328 -0.7845  0.0568
    9MOL   C257 3153   3.717   5.243   1.066 -0.8684 -0.9460 -0.2149
    9MOL   C258 3154   3.724   5.214   1.217  0.2751 -0.0528  0.5134
    9MOL   C259 3155   3.642   5.298   1.310 -0.0212 -0.2886  0.2548
    9MOL   C260 3156   3.619   5.243   1.450 -0.5027 -0.6022 -0.8121
    9MOL   O261 3157   3.546   5.330   1.537  0.2338 -0.2964 -0.5097
    9MOL   H262 3158   3.931   5.181   1.003  0.8651  1.8665 -1.9545
    9MOL   H263 3159   3.796   5.074   0.973 -0.8503 -0.4388 -2.6791
    9MOL   H264 3160   3.621   5.208   1.029 -1.1000 -0.2033 -0.3189
    9MOL   H265 3161   3.731   5.351   1.063 -0.0052 -1.1144 -3.2522
    9MOL   H266 3162   3.830   5.223   1.241  0.4926  1.9258 -1.0497
    9MOL   H267 3163   3.691   5.110   1.228 -1.2536  0.3366 -0.2345
    9MOL   H268 3164   3.538   5.309   1.280 -0.3593 -0.4472  1.3435
    9MOL   H269 3165   3.678   5.401   1.310  0.5244 -0.4717 -0.9258
    9MOL   H270 3166   3.566   5.147   1.446 -0.7810 -0.4021 -2.5282
    9MOL   H271 3167   3.716   5.218   1.494 -1.1140  1.5388  1.8732
    9MOL   C272 3168   3.580   5.339   1.662  0.2651  0.1519 -0.2370
    9MOL   O273 3169   3.683   5.282   1.706  0.0193 -0.1610  0.3369
    9MOL   C274 3170   3.500   5.440   1.734 -0.2654 -0.3216 -0.7315
    9MOL   C275 3171   3.525   5.428   1.885  0.2227  0.3361 -0.4886
    9MOL   C276 3172   3.440   5.535   1.962  0.3660  0.8064 -0.3472
    9MOL   C277 3173   3.469   5.675   1.920 -0.3135  0.1845  0.0109
    9MOL   C278 3174   3.417   5.783   2.002  0.5767 -0.3202 -0.1425
    9MOL   O279 3175   3.282   5.790   2.037  0.3663  0.4123  0.1927
    9MOL   H280 3176   3.395   5.414   1.716 -0.4483 -2.0070  2.3345
    9MOL   H281 3177   3.525   5.539   1.696 -2.0976 -0.0557 -1.2792
    9MOL   H282 3178   3.628   5.450   1.910  1.2241  0.3917 -4.4374
    9MOL   H283 3179   3.494   5.328   1.917 -0.8759  0.9626  0.4521
    9MOL   H284 3180   3.476   5.523   2.064  1.1940 -0.5978 -0.7884
    9MOL   H285 3181   3.333   5.526   1.940  0.4866 -0.8401 -0.3559
    9MOL   H286 3182   3.421   5.686   1.823 -0.5394  1.1237  0.2182
    9MOL   H287 3183   3.577   5.674   1.910 -0.4401 -2.3076 -1.6669
    9MOL   H288 3184   3.475   5.794   2.094  1.9308 -3.2450 -0.6121
    9MOL   H289 3185   3.463   5.874   1.962  1.5051 -0.0645  1.4479
    9MOL   C290 3186   3.202   5.871   1.967  0.2901 -0.2658 -0.0654
    9MOL   O291 3187   3.232   5.939   1.866  0.4259  0.4341  0.2802
    9MOL   C292 3188   3.063   5.888   2.026 -0.0110 -0.2887  0.1621
    9MOL   C293 3189   2.995   6.024   2.006 -0.7365 -0.2838  0.0555
    9MOL   C294 3190   2.875   6.067   2.083 -0.9633  0.3706  0.1971
    9MOL   C295 3191   2.797   6.169   1.995  0.2579 -0.4030  0.1319
    9MOL   C296 3192   2.671   6.204   2.077 -0.2729  0.4465  0.4256
    9MOL   O297 3193   2.630   6.341   2.043  0.2826  0.7120 -0.4365
    9MOL   H298 3194   3.072   5.876   2.134 -1.5400 -1.1097  0.2228
    9MOL   H299 3195   2.984   5.818   1.998  0.8725 -0.2216 -2.6507
    9MOL   H300 3196   2.973   6.031   1.899  0.4410  1.5994 -0.0814
    9MOL   H301 3197   3.065   6.103   2.029 -1.2128  0.4198 -0.8658
    9MOL   H302 3198   2.908   6.117   2.174 -1.4632  0.9863  0.0466
    9MOL   H303 3199   2.811   5.979   2.093 -0.2229  0.0629  2.3307
    9MOL   H304 3200   2.774   6.130   1.896  0.3643 -0.2213  0.0354
    9MOL   H305 3201   2.867   6.250   1.974 -1.4828  0.3076 -3.3076
    9MOL   H306 3202   2.600   6.121   2.080  1.2917 -0.9028  0.7030
    9MOL   H307 3203   2.706   6.210   2.180 -0.2653  3.7108  0.2946
    9MOL   C308 3204   2.547   6.408   2.128 -0.5005  0.2428  0.4123
    9MOL   O309 3205   2.496   6.364   2.232 -0.0016 -0.4321  0.3257
    9MOL   C310 3206   2.491   6.543   2.081 -0.3456 -0.9109 -0.4070
    9MOL   C311 3207   2.601   6.645   2.055  0.2152  0.1061 -0.4100
    9MOL   C312 3208   2.544   6.780   2.005 -0.7532 -0.4520 -0.1742
    9MOL   C313 3209   2.642   6.877   1.937 -0.3892 -0.4533  0.9813
    9MOL   C314 3210   2.717   6.982   2.016 -0.0965 -0.1256 -0.4329
    9MOL   O315 3211   2.778   7.077   1.937 -0.2035  0.2996  0.1649
    9MOL   H316 3212   2.423   6.590   2.152  2.3695  1.0379  1.0160
    9MOL   H317 3213   2.430   6.522   1.994 -2.9601  1.9570  0.6542
    9MOL   H318 3214   2.667   6.616   1.974 -1.4730  1.3121 -2.2561
    9MOL   H319 3215   2.659   6.661   2.146  0.6993  1.9345 -1.0206
    9MOL   H320 3216   2.478   6.823   2.081 -0.0816 -1.6732  1.1293
    9MOL   H321 3217   2.470   6.755   1.929 -1.2761  1.9262 -0.4757
    9MOL   H322 3218   2.574   6.928   1.869  0.1627 -1.0528 -0.0474
    9MOL   H323 3219   2.710   6.821   1.873 -1.9001 -1.1988  0.0129
    9MOL   H324 3220   2.652   7.022   2.094  0.6882 -2.8367  1.7250
    9MOL   H325 3221   2.790   6.937   2.084  2.2923  3.8806 -0.1997
    9MOL   C326 3222   2.847   7.177   2.000 -0.9224 -0.1854 -0.0286
    9MOL   O327 3223   2.872   7.185   2.124  0.3757  0.3123 -0.1999
    9MOL   C328 3224   2.914   7.277   1.901  0.1153  0.9622 -1.1556
    9MOL   C329 3225   2.805   7.335   1.812  0.3463 -0.2139  0.2587
    9MOL   C330 3226   2.845   7.474   1.756 -0.1608  0.5678  0.0837
    9MOL   C331 3227   2.909   7.459   1.611 -0.0564 -0.4796  0.0868
    9MOL   C332 3228   2.953   7.588   1.531 -0.4349  0.0005 -0.2810
    9MOL   O333 3229   3.025   7.568   1.409 -0.4125 -0.7002 -0.0366
    9MOL   H334 3230   2.981   7.216   1.841 -0.2385 -2.8166  2.1023
    9MOL   H335 3231   2.975   7.357   1.942  0.0325  0.4777 -0.0796
    9MOL   H336 3232   2.718   7.345   1.877 -0.7389 -0.9557 -1.0332
    9MOL   H337 3233   2.772   7.270   1.731  0.0233 -1.1802  1.1492
    9MOL   H338 3234   2.921   7.522   1.818  2.3404 -0.3485 -2.1805
    9MOL   H339 3235   2.762   7.544   1.760 -2.0520 -1.5454 -1.3097
    9MOL   H340 3236   2.838   7.411   1.544 -0.4790 -2.1529  1.7195
    9MOL   H341 3237   2.993   7.389   1.614  1.8794  1.7268 -0.6518
    9MOL   H342 3238   2.873   7.662   1.524  1.4520  2.0866 -0.5604
    9MOL   H343 3239   3.026   7.626   1.603 -2.6054  3.6547  0.1355
    9MOL   C344 3240   2.966   7.552   1.286 -0.3116  0.8004  0.5202
    9MOL   O345 3241   2.848   7.541   1.274 -0.5289 -0.8081  0.1069
    9MOL   C346 3242   3.071   7.544   1.172  0.3609  0.2420  0.0563
    9MOL   C347 3243   3.152   7.408   1.182  0.3154 -0.5634  0.3553
    9MOL   C348 3244   3.196   7.360   1.040 -0.3721 -0.3292 -0.3990
    9MOL   C349 3245   3.276   7.233   1.047 -0.1291  0.3190  0.8294
    9MOL   C350 3246   3.323   7.182   0.911  0.2615  0.3026 -0.5811
    9MOL   O351 3247   3.413   7.072   0.930  0.1060  0.0800 -0.1122
    9MOL   H352 3248   3.139   7.630   1.176  2.5482 -1.4944  2.0975
    9MOL   H353 3249   3.022   7.551   1.075  2.4642  3.0443 -0.8909
    9MOL   H354 3250   3.096   7.324   1.223 -1.9448  1.4295  1.5244
    9MOL   H355 3251   3.236   7.414   1.250 -0.5415  0.0387  1.3768
    9MOL   H356 3252   3.257   7.437   0.994  0.5556 -0.9809 -0.2566
    9MOL   H357 3253   3.101   7.344   0.987 -0.8766  3.6494 -0.8259
    9MOL   H358 3254   3.219   7.154   1.095  1.3222  0.6735  3.2459
    9MOL   H359 3255   3.355   7.233   1.122 -0.0746 -1.4437  0.7927
    9MOL   H360 3256   3.245   7.147   0.843 -1.3246 -0.8365  1.7559
    9MOL   H361 3257   3.383   7.260   0.864  0.1916  0.2728 -0.7209
    9MOL   H362 3258   3.426   7.024   0.849  1.9919  0.8504 -0.2727
   10MOL     C1 3259   0.494   0.306   4.220 -0.0902  0.4348 -0.2108
   10MOL     O2 3260   0.491   0.189   4.190  0.0678 -0.4013 -0.4571
   10MOL     C3 3261   0.388   0.368   4.313 -0.1564  0.5247  0.0510
   10MOL     C4 3262   0.262   0.414   4.241  0.2093 -0.0637  0.7232
   10MOL     C5 3263   0.164   0.302   4.206 -0.3899 -0.5633 -0.3902
   10MOL     C6 3264   0.089   0.250   4.331 -0.2333  0.3069  0.2601
   10MOL     C7 3265   7.814   0.157   4.291 -0.3835  0.5794  0.1174
   10MOL     O8 3266   7.738   0.139   4.407 -0.4371 -0.4607  0.3937
   10MOL     H9 3267   0.449   0.443   4.362 -0.5578  0.7705  0.1776
   10MOL    H10 3268   0.362   0.303   4.397  2.0370  1.7855  1.7378
   10MOL    H11 3269   0.281   0.466   4.147  0.7195 -2.5685 -0.6014
   10MOL    H12 3270   0.197   0.487   4.289  0.9787  1.6095 -0.7320
   10MOL    H13 3271   0.219   0.225   4.152  0.5876  0.8906 -1.5361
   10MOL    H14 3272   0.085   0.339   4.141 -0.9231  1.8437  1.5401
   10MOL    H15 3273   0.065   0.332   4.399 -0.6576  0.0096  0.4693
   10MOL    H16 3274   0.157   0.195   4.397 -1.0446 -1.4878 -0.3688
   10MOL    H17 3275   7.753   0.203   4.213  0.4532 -0.5449 -1.2417
   10MOL    H18 3276   0.014   0.066   4.250 -0.2094  0.0993  1.3556
   10MOL    H19 3277   0.576   0.366   4.183  0.3908 -0.5081 -0.7027
   10MOL    C20 3278   7.651   0.036   4.414 -0.1652 -0.3927  0.6313
   10MOL    O21 3279   7.629   7.795   4.329  0.3366  0.4980 -0.8946
   10MOL    C22 3280   7.562   0.046   4.541  0.5053  0.0249 -0.4702
   10MOL    C23 3281   7.546   0.191   4.594 -0.4707 -0.0558 -0.0995
   10MOL    C24 3282   7.425   0.218   4.685 -0.9198  0.3001 -0.6176
   10MOL    C25 3283   7.420   0.372   4.726 -0.7673 -0.4617 -0.1665
   10MOL    C26 3284   7.307   0.403   4.820 -0.3023  0.2993 -0.6843
   10MOL    O27 3285   7.336   0.345   4.947  0.3683 -0.0235 -0.0353
   10MOL    H28 3286   7.598   7.827   4.622 -2.0749 -0.3021  0.4681
   10MOL    H29 3287   7.463   0.000   4.533 -1.5152  3.5836  2.6272
   10MOL    H30 3288   7.544   0.252   4.504 -0.1863  0.8285  0.4869
   10MOL    H31 3289   7.640   0.203   4.647  0.7008 -0.4078 -2.0647
   10MOL    H32 3290   7.435   0.158   4.776 -1.0979 -1.6816 -1.8694
   10MOL    H33 3291   7.330   0.187   4.642 -0.7603 -2.1280  0.6736
   10MOL    H34 3292   7.404   0.422   4.631  0.0934 -0.7662 -0.4767
   10MOL    H35 3293   7.516   0.407   4.764 -1.9786  2.1001  0.5967
   10MOL    H36 3294   7.291   0.511   4.821  2.9053  0.8345  1.3391
   10MOL    H37 3295   7.213   0.365   4.781 -1.3051  3.3315 -1.3713
   10MOL    C38 3296   7.386   0.423   5.039 -0.7601 -0.1475 -0.0469
   10MOL    O39 3297   7.460   0.522   5.022 -0.4540  0.4365  0.6949
   10MOL    C40 3298   7.377   0.364   5.180 -0.5814 -0.1474  0.3664
   10MOL    C41 3299   7.498   0.285   5.225  0.2335  0.0033  0.5188
   10MOL    C42 3300   7.559   0.186   5.129  0.1135  0.8211 -0.3199
   10MOL    C43 3301   7.654   0.080   5.195  0.8160  0.2987 -0.6224
   10MOL    C44 3302   7.684   7.805   5.099  0.5719 -0.8528  0.1487
   10MOL    O45 3303   7.734   0.006   4.974 -0.1877  0.3391  0.5088
   10MOL    H46 3304   7.302   0.285   5.176 -1.8985  1.0292  1.0885
   10MOL    H47 3305   7.354   0.446   5.248  3.0894  1.5623 -0.3419
   10MOL    H48 3306   7.478   0.230   5.316  2.2347 -0.6450  0.5781
   10MOL    H49 3307   7.586   0.344   5.253  0.8966  0.1302 -1.7283
   10MOL    H50 3308   7.616   0.237   5.051  0.1882  1.8994  0.4349
   10MOL    H51 3309   7.474   0.139   5.078  0.2793  1.3033 -1.0534
   10MOL    H52 3310   7.620   0.039   5.290 -2.9012  2.1971 -1.0181
   10MOL    H53 3311   7.738   0.143   5.222 -0.3203  1.2357  0.8069
   10MOL    H54 3312   7.759   7.737   5.140 -0.1702 -1.2092  0.9150
   10MOL    H55 3313   7.593   7.748   5.083 -0.3311  0.5059  0.4169
   10MOL    C56 3314   0.026   0.032   4.951 -0.0082  0.2604 -0.3659
   10MOL    O57 3315   0.110   0.048   5.041 -0.2146  0.1003 -0.1919
   10MOL    C58 3316   0.055   0.043   4.800  0.7105  0.3954  0.4641
   10MOL    C59 3317   0.060   0.188   4.751 -1.0347 -0.3243 -0.1252
   10MOL    C60 3318   0.209   0.236   4.748 -0.2520 -0.1484  0.4682
   10MOL    C61 3319   0.222   0.384   4.716  0.1125 -1.0898  0.3020
   10MOL    C62 3320   0.367   0.424   4.701  0.0053  0.3240  0.4531
   10MOL    O63 3321   0.377   0.565   4.676  0.4782 -0.0212  0.6540
   10MOL    H64 3322   7.830   7.825   4.742 -1.1346  1.0153  1.9290
   10MOL    H65 3323   0.155   0.001   4.790  1.2554  1.8603 -0.4476
   10MOL    H66 3324   7.841   0.258   4.805 -1.3591 -0.4473 -0.3457
   10MOL    H67 3325   0.027   0.193   4.647  1.6640  0.4862 -0.9919
   10MOL    H68 3326   0.251   0.188   4.659  1.0031 -1.1717  1.5982
   10MOL    H69 3327   0.252   0.207   4.844 -0.1987 -0.4884  0.3441
   10MOL    H70 3328   0.173   0.442   4.795  0.3471 -0.1729 -0.2193
   10MOL    H71 3329   0.156   0.410   4.633  0.5261 -1.6118 -0.1873
   10MOL    H72 3330   0.418   0.403   4.794  1.6806  3.2517  0.2453
   10MOL    H73 3331   0.392   0.358   4.618 -0.3343  0.4779  0.2264
   10MOL    C74 3332   0.495   0.620   4.640 -0.4934 -0.2105 -0.0358
   10MOL    O75 3333   0.600   0.561   4.630  0.2218  0.4444 -0.4559
   10MOL    C76 3334   0.488   0.764   4.584  0.1549  0.2988  0.0629
   10MOL    C77 3335   0.441   0.770   4.435  0.1361 -0.3521 -0.2148
   10MOL    C78 3336   0.293   0.778   4.411  0.2838  0.0085  0.0717
   10MOL    C79 3337   0.241   0.805   4.274  0.6201  0.2878 -0.5639
   10MOL    C80 3338   0.093   0.823   4.254  0.4460  0.3072 -0.1583
   10MOL    O81 3339   0.032   0.701   4.243  0.1677 -0.0387 -0.0451
   10MOL    H82 3340   0.576   0.828   4.594  0.4506 -0.1158  0.0877
   10MOL    H83 3341   0.417   0.824   4.641 -0.5424  1.0283 -1.5175
   10MOL    H84 3342   0.481   0.691   4.371 -1.7288 -1.1143 -0.4639
   10MOL    H85 3343   0.484   0.864   4.402 -0.7163 -0.1378 -0.7254
   10MOL    H86 3344   0.249   0.842   4.488 -0.8204  2.0951 -2.2069
   10MOL    H87 3345   0.267   0.676   4.438  2.2226 -0.3540  0.6403
   10MOL    H88 3346   0.275   0.727   4.206 -1.1491  0.0255 -1.1663
   10MOL    H89 3347   0.285   0.899   4.241  1.3947 -0.3675 -1.4048
   10MOL    H90 3348   0.051   0.879   4.339 -3.1901 -1.2097 -0.8664
   10MOL    H91 3349   0.069   0.887   4.168  2.0715 -0.1361 -0.9475
   10MOL    C92 3350   7.740   0.690   4.242 -0.3230  0.4607  0.1899
   10MOL    O93 3351   7.665   0.785   4.246 -0.5950 -0.4334  0.7842
   10MOL    C94 3352   7.684   0.543   4.237  0.1603  0.1276  0.0808
   10MOL    C95 3353   7.585   0.518   4.122 -0.1742  0.6996  0.3384
   10MOL    C96 3354   7.532   0.372   4.114 -0.0490  1.1195 -0.5512
   10MOL    C97 3355   7.436   0.337   4.226  0.2238 -0.3482  0.5109
   10MOL    C98 3356   7.308   0.414   4.214  0.7429  0.0892  0.2974
   10MOL    O99 3357   7.224   0.353   4.311  0.1203  0.1143 -0.1177
   10MOL   H100 3358   7.629   0.528   4.330 -1.1329 -0.1596 -0.7100
   10MOL   H101 3359   7.771   0.478   4.224  1.0045  1.1810  0.3530
   10MOL   H102 3360   7.628   0.536   4.023 -1.9479 -0.9591 -0.7764
   10MOL   H103 3361   7.506   0.590   4.143  0.8165  1.4730  1.4574
   10MOL   H104 3362   7.620   0.308   4.109 -0.3381  0.4586  2.0019
   10MOL   H105 3363   7.493   0.344   4.016  1.5393 -2.4047 -0.2439
   10MOL   H106 3364   7.492   0.341   4.319 -0.8840 -0.2286  1.1735
   10MOL   H107 3365   7.419   0.232   4.205  0.8207 -0.7675  2.1306
   10MOL   H108 3366   7.309   0.523   4.217 -1.6050  0.1390  0.4219
   10MOL   H109 3367   7.264   0.377   4.121 -0.1414  0.7178  0.4543
   10MOL   C110 3368   7.095   0.400   4.326 -0.0744 -0.0285  0.1435
   10MOL   O111 3369   7.032   0.493   4.273  0.0402  0.2353 -0.4092
   10MOL   C112 3370   7.032   0.324   4.435  0.6875  0.5084 -0.1108
   10MOL   C113 3371   6.882   0.349   4.453  0.3466  0.1750 -0.6158
   10MOL   C114 3372   6.861   0.475   4.543  0.9460  0.0963 -0.2084
   10MOL   C115 3373   6.708   0.517   4.529  0.2392  0.3365 -0.1814
   10MOL   C116 3374   6.618   0.438   4.627 -0.5602 -0.5351 -0.2840
   10MOL   O117 3375   6.642   0.468   4.769 -0.2912 -0.0600  0.3339
   10MOL   H118 3376   7.074   0.345   4.534  0.2849 -1.0391  0.3927
   10MOL   H119 3377   7.058   0.220   4.420 -3.6915 -0.5430 -1.2128
   10MOL   H120 3378   6.837   0.261   4.500  3.3582 -0.1945  1.7540
   10MOL   H121 3379   6.827   0.360   4.359 -1.7840  2.1453  0.8097
   10MOL   H122 3380   6.907   0.565   4.502  0.6182  0.1196 -0.5327
   10MOL   H123 3381   6.893   0.450   4.644  0.0454  2.3853  0.6894
   10MOL   H124 3382   6.666   0.503   4.429 -0.6872  1.0725  0.1001
   10MOL   H125 3383   6.694   0.622   4.553  3.0032  0.3681  1.5134
   10MOL   H126 3384   6.516   0.473   4.607  0.6228  3.9855  0.9298
   10MOL   H127 3385   6.616   0.333   4.598 -2.1117 -0.6367  0.1401
   10MOL   C128 3386   6.575   0.405   4.861  0.1794 -0.7722  0.4559
   10MOL   O129 3387   6.480   0.329   4.843 -0.1324  0.0102  1.4019
   10MOL   C130 3388   6.621   0.440   5.006  0.3520 -0.4791  0.6381
   10MOL   C131 3389   6.545   0.555   5.065 -0.1935  0.1311  0.7026
   10MOL   C132 3390   6.578   0.691   4.996 -0.1898  0.3303 -0.5945
   10MOL   C133 3391   6.510   0.804   5.077  0.8362 -0.0174  0.9243
   10MOL   C134 3392   6.503   0.946   5.015 -0.2663 -0.3587 -0.0905
   10MOL   O135 3393   6.626   0.997   4.968 -0.2236  0.0491 -0.4917
   10MOL   H136 3394   6.728   0.461   5.012  0.3256 -0.0240 -0.3392
   10MOL   H137 3395   6.595   0.356   5.070 -2.6967  0.2222  0.3956
   10MOL   H138 3396   6.569   0.562   5.171  3.6087  0.0107 -0.0464
   10MOL   H139 3397   6.439   0.541   5.047 -0.1324 -1.0870  1.3074
   10MOL   H140 3398   6.564   0.682   4.888  1.3721 -0.1893 -0.7649
   10MOL   H141 3399   6.685   0.713   4.998 -0.3541  1.0641  0.3806
   10MOL   H142 3400   6.551   0.812   5.177 -0.1842  0.1987  1.3357
   10MOL   H143 3401   6.409   0.766   5.094  0.6221 -0.3512 -0.9118
   10MOL   H144 3402   6.422   0.953   4.943  0.2595  0.3819 -0.6242
   10MOL   H145 3403   6.470   1.012   5.094  1.8961 -0.0329  0.5858
   10MOL   C146 3404   6.647   0.994   4.834 -1.2286  0.0364 -0.2437
   10MOL   O147 3405   6.565   0.961   4.754  0.0131 -0.0554  0.3302
   10MOL   C148 3406   6.786   1.034   4.789  0.5893 -0.2065  0.6490
   10MOL   C149 3407   6.859   0.929   4.704 -0.3835  0.6129 -0.7872
   10MOL   C150 3408   6.901   0.804   4.783 -0.0676 -0.3359  0.0476
   10MOL   C151 3409   7.045   0.834   4.848 -0.5859 -0.9109  0.4226
   10MOL   C152 3410   7.091   0.720   4.927  0.6313 -0.1593 -0.5922
   10MOL   O153 3411   7.021   0.695   5.045  0.1610 -0.0982  0.1756
   10MOL   H154 3412   6.834   1.057   4.884 -1.8956  0.6400  1.7381
   10MOL   H155 3413   6.773   1.122   4.726 -0.9895 -2.3167 -2.0801
   10MOL   H156 3414   6.944   0.976   4.653  0.7561  1.0089  1.3925
   10MOL   H157 3415   6.796   0.894   4.623 -1.7407 -0.0940  0.5619
   10MOL   H158 3416   6.896   0.708   4.730 -0.2291  0.3301 -1.1540
   10MOL   H159 3417   6.824   0.791   4.859 -0.6493 -2.1614 -0.8034
   10MOL   H160 3418   7.039   0.918   4.917 -1.8399 -1.1689  0.6374
   10MOL   H161 3419   7.109   0.855   4.763 -2.3494 -2.0543 -1.2400
   10MOL   H162 3420   7.084   0.639   4.854 -1.7951 -0.3392 -0.1959
   10MOL   H163 3421   7.195   0.732   4.956  0.3071 -1.7287  1.2832
   10MOL   C164 3422   7.018   0.573   5.097  0.3468 -0.5290  0.1256
   10MOL   O165 3423   7.063   0.475   5.046 -0.8381  0.4413 -0.2311
   10MOL   C166 3424   6.923   0.573   5.215  0.4321 -0.0289 -0.4982
   10MOL   C167 3425   6.903   0.438   5.276  0.7398 -0.7481 -0.3409
   10MOL   C168 3426   6.995   0.400   5.389 -0.2503 -0.8613  0.0638
   10MOL   C169 3427   6.953   0.272   5.464 -0.2853  0.3550  0.7024
   10MOL   C170 3428   7.051   0.227   5.567 -0.0531 -0.1767  0.2481
   10MOL   O171 3429   7.001   0.120   5.640  0.3187 -0.1359  0.6557
   10MOL   H172 3430   6.830   0.620   5.182  1.1974  2.3742  0.6560
   10MOL   H173 3431   6.964   0.638   5.292  0.7588  2.9021 -3.0497
   10MOL   H174 3432   6.884   0.356   5.207  0.1205 -1.5476  0.7604
   10MOL   H175 3433   6.806   0.440   5.328  1.7425 -0.4521  1.5729
   10MOL   H176 3434   6.994   0.490   5.451 -0.6400  0.6332 -2.0692
   10MOL   H177 3435   7.094   0.390   5.344  0.0917 -1.7827  0.9961
   10MOL   H178 3436   6.933   0.192   5.393 -1.4901  0.6016  0.7595
   10MOL   H179 3437   6.861   0.283   5.521  0.5348 -1.9704  2.5591
   10MOL   H180 3438   7.135   0.184   5.511 -1.0703 -0.1196 -1.3280
   10MOL   H181 3439   7.083   0.310   5.629 -1.9545  1.2853 -0.7094
   10MOL   C182 3440   6.917   0.137   5.752 -0.0710  0.2502 -0.0552
   10MOL   O183 3441   6.862   0.241   5.795 -0.2439  0.4772  0.1047
   10MOL   C184 3442   6.900   0.000   5.823  0.3858 -0.1740 -0.0467
   10MOL   C185 3443   6.854   0.011   5.966  0.4346 -0.0829  0.0217
   10MOL   C186 3444   6.974   0.044   6.058  0.3770  0.2390 -0.7560
   10MOL   C187 3445   6.936   0.049   6.204  0.2339 -0.4750  0.5697
   10MOL   C188 3446   7.049   0.087   6.286  0.3561  0.0828 -0.4248
   10MOL   O189 3447   6.997   0.086   6.417 -0.2246  0.2000 -0.7139
   10MOL   H190 3448   6.997   7.794   5.823  1.7800  2.4075 -1.0487
   10MOL   H191 3449   6.825   7.784   5.772 -1.0581  1.2061  0.3812
   10MOL   H192 3450   6.817   7.756   5.991  1.2922 -0.3588  0.2202
   10MOL   H193 3451   6.777   0.088   5.973  2.0277  1.4491  1.0588
   10MOL   H194 3452   7.012   0.139   6.020  1.8626 -0.1838 -0.3793
   10MOL   H195 3453   7.043   7.806   6.043 -1.5300 -1.3604 -0.8981
   10MOL   H196 3454   6.892   7.799   6.235  4.2255 -2.2878  1.0746
   10MOL   H197 3455   6.858   0.125   6.210 -1.3118 -1.8115 -1.5082
   10MOL   H198 3456   7.126   0.011   6.275  1.3695  1.3790 -2.3334
   10MOL   H199 3457   7.093   0.183   6.263  0.6091 -0.3100 -1.5870
   10MOL   C200 3458   7.031   7.829   6.502 -0.0876 -0.3991  0.7149
   10MOL   O201 3459   7.113   7.741   6.474  0.2335  0.3269 -0.3027
   10MOL   C202 3460   6.970   7.843   6.637 -0.0039  0.5331 -0.2157
   10MOL   C203 3461   7.084   0.025   6.732 -0.1482  0.4465  0.0856
   10MOL   C204 3462   7.131   0.173   6.744  0.1875  0.0092  0.1348
   10MOL   C205 3463   7.227   0.192   6.861 -0.4743  0.2086 -0.3074
   10MOL   C206 3464   7.243   0.351   6.888 -0.2352  1.0182 -0.5974
   10MOL   O207 3465   7.314   0.363   7.006 -0.2930 -0.2546 -0.0182
   10MOL   H208 3466   6.929   7.747   6.670 -0.2960  1.1081  1.1034
   10MOL   H209 3467   6.885   0.067   6.646  2.5518  3.5604  1.6291
   10MOL   H210 3468   7.160   7.793   6.721  2.0618  2.9213 -2.5898
   10MOL   H211 3469   7.046   0.011   6.833 -0.1031 -1.4178 -0.1447
   10MOL   H212 3470   7.055   0.251   6.754 -1.3266 -1.3847 -0.2961
   10MOL   H213 3471   7.172   0.205   6.648  0.8629  2.0619  1.0741
   10MOL   H214 3472   7.325   0.154   6.831 -0.8623 -1.7202  0.7662
   10MOL   H215 3473   7.188   0.148   6.952  2.1599 -3.1368 -0.6888
   10MOL   H216 3474   7.290   0.398   6.802 -3.2254  1.8434 -1.8463
   10MOL   H217 3475   7.145   0.398   6.897 -0.1960  1.5534 -2.7858
   10MOL   C218 3476   7.348   0.487   7.050  0.4692 -0.0141 -0.2895
   10MOL   O219 3477   7.321   0.595   6.998 -0.6261  0.7033 -0.2203
   10MOL   C220 3478   7.437   0.475   7.181  0.3196  0.1420  0.0059
   10MOL   C221 3479   7.571   0.405   7.150  0.3670  0.3798  0.3692
   10MOL   C222 3480   7.683   0.504   7.127  0.0356 -0.0255  0.1664
   10MOL   C223 3481   7.807   0.455   7.052 -0.6974 -0.0267 -0.6458
   10MOL   C224 3482   0.075   0.557   7.034  0.1787  0.4129 -0.0102
   10MOL   O225 3483   0.030   0.643   6.933  0.3153 -0.6305 -0.1422
   10MOL   H226 3484   7.371   0.430   7.255  0.6819  1.2090  0.9896
   10MOL   H227 3485   7.452   0.578   7.211  2.9394  0.0963 -0.9540
   10MOL   H228 3486   7.568   0.343   7.060 -1.2575 -2.1212  2.0741
   10MOL   H229 3487   7.592   0.334   7.230 -0.7669 -0.9177 -0.4539
   10MOL   H230 3488   7.717   0.536   7.225 -2.4080  1.9191  0.4154
   10MOL   H231 3489   7.648   0.596   7.081  2.0382  0.4567 -0.4357
   10MOL   H232 3490   7.778   0.415   6.954  0.2204  0.8691 -1.2939
   10MOL   H233 3491   0.007   0.368   7.100 -0.2361  0.0464 -0.9353
   10MOL   H234 3492   0.092   0.603   7.131 -0.4288 -1.2203  0.8836
   10MOL   H235 3493   0.164   0.505   6.998  0.4368 -0.0183  1.2178
   10MOL   C236 3494   0.037   0.776   6.947  0.4981 -0.2640  0.3260
   10MOL   O237 3495   0.085   0.841   7.042 -0.1945 -0.1228  0.4695
   10MOL   C238 3496   7.812   0.843   6.834  1.1052 -0.4224 -0.5161
   10MOL   C239 3497   7.661   0.849   6.863 -0.1400  0.6036  0.3715
   10MOL   C240 3498   7.585   0.925   6.756 -0.1487  0.0301 -0.8208
   10MOL   C241 3499   7.432   0.957   6.783 -0.2490  0.2195 -0.1659
   10MOL   C242 3500   7.369   1.038   6.666  0.1037 -0.7643  0.2687
   10MOL   O243 3501   7.407   1.176   6.699 -0.1510 -0.4432 -0.0777
   10MOL   H244 3502   7.828   0.778   6.749  1.8404 -0.8705 -0.0453
   10MOL   H245 3503   0.003   0.944   6.812 -1.3940  0.5215 -0.3196
   10MOL   H246 3504   7.638   0.906   6.953  3.6323  3.6475 -0.4353
   10MOL   H247 3505   7.613   0.752   6.870 -2.7164  1.9503  1.8640
   10MOL   H248 3506   7.602   0.866   6.666  1.0067 -3.2938  1.4689
   10MOL   H249 3507   7.638   1.017   6.733 -0.1627  0.3425  0.3614
   10MOL   H250 3508   7.404   0.998   6.880  0.4113 -0.5679  0.3694
   10MOL   H251 3509   7.379   0.861   6.785 -1.8939  1.0881 -0.7941
   10MOL   H252 3510   7.385   1.013   6.561 -1.8302  1.0164 -0.5005
   10MOL   H253 3511   7.262   1.055   6.678  0.2637  1.9477 -1.7299
   10MOL   C254 3512   7.371   1.271   6.607 -0.3099 -0.1059 -0.5154
   10MOL   O255 3513   7.336   1.255   6.494 -0.2174  0.1636  0.6414
   10MOL   C256 3514   7.382   1.414   6.666  0.4402  0.0325  0.1399
   10MOL   C257 3515   7.278   1.456   6.775  0.1219  0.7317 -0.1677
   10MOL   C258 3516   7.273   1.374   6.903  0.6585 -0.3821  0.5741
   10MOL   C259 3517   7.150   1.388   6.993  0.2978 -0.0751 -0.4427
   10MOL   C260 3518   7.151   1.291   7.108  0.1545  0.3983  1.1706
   10MOL   O261 3519   7.252   1.326   7.197  0.1373 -0.2569 -0.5634
   10MOL   H262 3520   7.397   1.475   6.577 -0.9587 -0.8274 -0.7225
   10MOL   H263 3521   7.481   1.407   6.710  0.6243 -1.8123 -0.5038
   10MOL   H264 3522   7.175   1.460   6.741  0.1980  1.3752 -0.3123
   10MOL   H265 3523   7.306   1.557   6.803 -0.1012  1.0787 -1.2081
   10MOL   H266 3524   7.353   1.404   6.971  0.8962  0.6464 -0.1615
   10MOL   H267 3525   7.292   1.269   6.882  1.4678 -0.0259 -0.4789
   10MOL   H268 3526   7.058   1.363   6.939 -0.4284  2.2024 -0.3075
   10MOL   H269 3527   7.142   1.490   7.030  0.4123 -0.8512  1.7912
   10MOL   H270 3528   7.051   1.280   7.151  0.1654  1.5170  1.4999
   10MOL   H271 3529   7.174   1.195   7.062 -0.6050  1.8106 -2.3071
   10MOL   C272 3530   7.229   1.331   7.330 -0.4858 -0.1639  0.1459
   10MOL   O273 3531   7.125   1.295   7.381  0.2321  0.4250 -0.3766
   10MOL   C274 3532   7.348   1.372   7.408  0.5033 -0.0045 -0.5260
   10MOL   C275 3533   7.345   1.523   7.442 -0.7919 -0.3645  0.1342
   10MOL   C276 3534   7.316   1.611   7.323  0.0222 -0.1349 -0.4632
   10MOL   C277 3535   7.426   1.623   7.218 -0.0471 -0.2261 -0.1763
   10MOL   C278 3536   7.393   1.733   7.115  0.2115 -0.0012  0.1045
   10MOL   O279 3537   7.285   1.705   7.026 -0.0873  0.3767 -0.2967
   10MOL   H280 3538   7.436   1.352   7.347  1.3583  0.5366  0.5026
   10MOL   H281 3539   7.357   1.323   7.505 -0.6556 -0.3468 -0.5831
   10MOL   H282 3540   7.435   1.554   7.496 -1.1330 -1.5643  1.4094
   10MOL   H283 3541   7.264   1.535   7.514 -0.7650  0.9491 -0.0367
   10MOL   H284 3542   7.295   1.712   7.357 -2.8062 -1.2126  1.1227
   10MOL   H285 3543   7.219   1.591   7.278 -0.3018  0.3769  0.0064
   10MOL   H286 3544   7.438   1.526   7.169  1.1868 -0.6352  0.9052
   10MOL   H287 3545   7.522   1.645   7.266  1.6728 -2.1975 -2.5489
   10MOL   H288 3546   7.386   1.823   7.175 -1.0465 -0.2591  0.3572
   10MOL   H289 3547   7.473   1.750   7.043  0.3610  1.1685  0.5415
   10MOL   C290 3548   7.218   1.806   6.967  0.0215 -0.4267 -0.2050
   10MOL   O291 3549   7.247   1.922   6.977 -0.8379  0.0203 -0.2472
   10MOL   C292 3550   7.120   1.759   6.864  0.0973  0.1299  0.4783
   10MOL   C293 3551   7.024   1.865   6.792  0.0682 -0.1541  0.6686
   10MOL   C294 3552   7.081   1.951   6.684 -0.1555  0.1131 -0.2198
   10MOL   C295 3553   6.975   2.050   6.626  0.1415  0.1164 -0.0570
   10MOL   C296 3554   7.014   2.116   6.491  0.5515 -0.4632  0.1947
   10MOL   O297 3555   7.126   2.195   6.512 -0.7911  0.8572  0.2730
   10MOL   H298 3556   7.061   1.679   6.909  0.5914  0.5580  1.9182
   10MOL   H299 3557   7.170   1.719   6.776 -0.3085  0.0815  0.2668
   10MOL   H300 3558   6.984   1.928   6.871 -2.1154 -0.8497  0.1796
   10MOL   H301 3559   6.931   1.816   6.762 -0.3117 -0.1412  1.8195
   10MOL   H302 3560   7.113   1.888   6.601  1.1742  1.0457 -0.4357
   10MOL   H303 3561   7.179   1.990   6.711 -0.2585  1.4874 -1.7346
   10MOL   H304 3562   6.952   2.139   6.686  1.2750 -0.0920  0.7242
   10MOL   H305 3563   6.879   2.002   6.613  0.2279 -0.8223  2.4217
   10MOL   H306 3564   7.011   2.050   6.404  0.6864  1.1805 -1.0733
   10MOL   H307 3565   6.929   2.181   6.474 -1.3907 -2.7555  0.8274
   10MOL   C308 3566   7.243   2.153   6.454  0.2380 -0.5749 -0.5523
   10MOL   O309 3567   7.253   2.041   6.405 -0.7819  0.7846  0.3757
   10MOL   C310 3568   7.359   2.249   6.452 -0.2557  0.3236  1.2153
   10MOL   C311 3569   7.389   2.305   6.592 -0.7316 -0.2447 -0.1618
   10MOL   C312 3570   7.414   2.207   6.708  0.1630  0.0400 -0.0993
   10MOL   C313 3571   7.466   2.279   6.832  0.6423 -0.6963  0.0310
   10MOL   C314 3572   7.511   2.182   6.941 -0.0448 -0.4860 -0.4813
   10MOL   O315 3573   7.627   2.114   6.890  0.5043 -0.2749  0.0109
   10MOL   H316 3574   7.346   2.320   6.371  0.0419  0.5558  1.3692
   10MOL   H317 3575   7.444   2.186   6.425  0.4363  2.0537 -0.7368
   10MOL   H318 3576   7.320   2.383   6.626  2.0646  3.3806 -2.4012
   10MOL   H319 3577   7.482   2.359   6.577 -0.8081 -0.2397 -0.6240
   10MOL   H320 3578   7.489   2.136   6.673  0.0224 -0.7717  1.2104
   10MOL   H321 3579   7.322   2.152   6.728  0.8064 -1.4376 -1.1386
   10MOL   H322 3580   7.398   2.344   6.887  2.2067  2.3931 -1.6107
   10MOL   H323 3581   7.556   2.337   6.813  0.5091 -0.3689  0.4013
   10MOL   H324 3582   7.537   2.234   7.033  0.2989 -0.6879 -0.4642
   10MOL   H325 3583   7.431   2.116   6.976  1.1248 -2.5741 -1.6135
   10MOL   C326 3584   7.694   2.038   6.975 -0.2161 -1.1741 -0.3301
   10MOL   O327 3585   7.685   2.035   7.096 -0.8752  0.4232  0.0904
   10MOL   C328 3586   7.797   1.955   6.901 -0.1887  0.1675  0.1539
   10MOL   C329 3587   7.737   1.821   6.843  0.1906 -0.5488 -0.1493
   10MOL   C330 3588   7.650   1.851   6.712 -0.4592  0.2834 -0.3632
   10MOL   C331 3589   7.593   1.726   6.636 -0.1985  0.4655 -0.0271
   10MOL   C332 3590   7.513   1.757   6.511 -0.3321  0.2028 -0.3635
   10MOL   O333 3591   7.595   1.812   6.408 -0.1961 -0.3376  0.3288
   10MOL   H334 3592   0.010   1.919   6.986 -3.3524  0.6243  2.5557
   10MOL   H335 3593   0.008   2.020   6.833  2.1296  0.5559  2.3617
   10MOL   H336 3594   7.669   1.781   6.919 -2.0260  0.6716 -1.4406
   10MOL   H337 3595   7.815   1.747   6.825  0.6017  0.0090 -0.6515
   10MOL   H338 3596   7.719   1.903   6.645 -0.9241 -0.0275 -1.0870
   10MOL   H339 3597   7.568   1.922   6.723 -0.7797 -0.3393  1.4661
   10MOL   H340 3598   7.524   1.672   6.701 -1.1124  0.1540 -1.2410
   10MOL   H341 3599   7.668   1.649   6.618  0.2741  0.6493  1.1069
   10MOL   H342 3600   7.479   1.663   6.466 -1.0379  0.2015  0.1793
   10MOL   H343 3601   7.423   1.813   6.535 -0.7435 -0.8083  0.4997
   10MOL   C344 3602   7.645   1.744   6.303  0.0122  0.4350  0.3162
   10MOL   O345 3603   7.657   1.620   6.295  0.0818 -0.4719 -0.0864
   10MOL   C346 3604   7.711   1.831   6.195  0.3782 -0.7950  0.0721
   10MOL   C347 3605   7.618   1.953   6.162  0.4644 -0.2006 -0.4781
   10MOL   C348 3606   7.466   1.922   6.121 -0.4390 -0.4409 -0.4267
   10MOL   C349 3607   7.396   2.035   6.051 -0.2344 -0.6522 -0.6798
   10MOL   C350 3608   7.258   1.992   6.020  0.4457 -0.1655 -0.7764
   10MOL   O351 3609   7.163   2.048   6.117 -0.5755  0.5747 -0.0151
   10MOL   H352 3610   7.724   1.762   6.112 -0.9340 -0.6823 -0.2330
   10MOL   H353 3611   7.811   1.851   6.233  0.6689 -1.0448 -0.5594
   10MOL   H354 3612   7.671   2.006   6.083  1.3146 -0.3915 -0.0430
   10MOL   H355 3613   7.615   2.029   6.241 -0.9001 -0.4046 -0.3240
   10MOL   H356 3614   7.408   1.889   6.207 -0.4822 -2.1790 -1.1059
   10MOL   H357 3615   7.466   1.837   6.053  0.1049  0.2542 -1.3126
   10MOL   H358 3616   7.454   2.035   5.959  3.2027  1.8142  1.3532
   10MOL   H359 3617   7.399   2.128   6.109  0.6229 -0.6985 -0.6441
   10MOL   H360 3618   7.237   2.047   5.928  2.1554  1.7691 -0.0340
   10MOL   H361 3619   7.243   1.884   6.021 -0.3085 -0.0637 -0.6291
   10MOL   H362 3620   7.173   1.998   6.197 -0.7597  0.3088 -0.1586
   11MOL     C1 3621   1.428   3.428   0.564  0.6551  0.0998 -0.4286
   11MOL     O2 3622   1.454   3.551   0.572 -0.7363 -0.3114  0.8454
   11MOL     C3 3623   1.538   3.321   0.571  0.0638  0.4066 -0.3599
   11MOL     C4 3624   1.682   3.373   0.589 -0.1552 -0.2005  0.4699
   11MOL     C5 3625   1.732   3.432   0.456 -0.3619 -0.7781  0.0098
   11MOL     C6 3626   1.886   3.469   0.478  0.2351  0.0143 -0.4066
   11MOL     C7 3627   1.956   3.546   0.365 -0.4862  0.5167 -0.4822
   11MOL     O8 3628   1.883   3.658   0.318 -0.6089 -0.0866  0.6370
   11MOL     H9 3629   1.528   3.268   0.476 -0.9984 -2.5905  1.3843
   11MOL    H10 3630   1.510   3.249   0.647  0.0495 -0.5476 -1.2541
   11MOL    H11 3631   1.758   3.302   0.621 -0.1878  0.1137  1.2586
   11MOL    H12 3632   1.689   3.453   0.663  0.9943  0.8659 -0.7646
   11MOL    H13 3633   1.675   3.520   0.429  0.8573  0.7260  2.1628
   11MOL    H14 3634   1.732   3.372   0.365 -1.1087 -0.9173  0.0998
   11MOL    H15 3635   1.946   3.380   0.501  0.7542  0.5579  0.3525
   11MOL    H16 3636   1.899   3.529   0.568  5.0104 -0.2272 -0.7958
   11MOL    H17 3637   2.061   3.566   0.385  0.0809 -1.6410 -1.2074
   11MOL    H18 3638   1.958   3.474   0.284  1.3973 -0.2651  0.2219
   11MOL    H19 3639   1.327   3.395   0.538  1.4841 -1.5885 -1.6042
   11MOL    C20 3640   1.909   3.721   0.200 -0.1298 -0.1836 -0.2337
   11MOL    O21 3641   2.005   3.679   0.136  0.1057  0.5354  0.3307
   11MOL    C22 3642   1.836   3.846   0.163  0.2909  0.1742 -0.3324
   11MOL    C23 3643   1.684   3.817   0.158 -0.2972  0.3686  0.8816
   11MOL    C24 3644   1.628   3.736   0.045  0.0462  0.4841  0.3456
   11MOL    C25 3645   1.612   3.795   7.750 -0.5229 -0.5123  1.1027
   11MOL    C26 3646   1.543   3.702   7.653 -0.0232  0.0640  0.4140
   11MOL    O27 3647   1.520   3.759   7.532  0.2029  0.0211  0.0803
   11MOL    H28 3648   1.869   3.904   0.078  0.3662  0.3460 -0.1862
   11MOL    H29 3649   1.837   3.910   0.251 -1.5580 -0.9754  0.5808
   11MOL    H30 3650   1.629   3.911   0.167  1.3212  1.5074 -0.6572
   11MOL    H31 3651   1.651   3.772   0.252  0.3428 -0.0076  0.9312
   11MOL    H32 3652   1.532   3.692   0.073 -0.4285  1.3690  0.1337
   11MOL    H33 3653   1.694   3.650   0.035  0.1353  0.3218  2.1282
   11MOL    H34 3654   1.706   3.827   7.706 -1.7451 -2.7543 -3.4488
   11MOL    H35 3655   1.563   3.892   7.751  0.7493  0.1716 -0.7307
   11MOL    H36 3656   1.595   3.609   7.628 -2.5778 -1.4925  0.6116
   11MOL    H37 3657   1.445   3.676   7.694  0.3381  0.5186  1.5666
   11MOL    C38 3658   1.426   3.703   7.456 -0.1503  0.3505  0.3445
   11MOL    O39 3659   1.383   3.586   7.470 -0.1872  0.0172 -0.3154
   11MOL    C40 3660   1.374   3.786   7.345  0.2243 -0.4641  0.4436
   11MOL    C41 3661   1.242   3.731   7.279 -0.1001  0.0335  0.5546
   11MOL    C42 3662   1.270   3.619   7.173  0.3231 -0.1577  0.1209
   11MOL    C43 3663   1.255   3.679   7.027 -0.2212 -0.0202  0.5956
   11MOL    C44 3664   1.255   3.568   6.926  0.3047  0.3775  0.7936
   11MOL    O45 3665   1.128   3.502   6.919  0.6185 -0.0220  0.0351
   11MOL    H46 3666   1.459   3.798   7.278  0.6409  0.0502  1.0535
   11MOL    H47 3667   1.370   3.886   7.390 -1.7671 -0.6381  0.6857
   11MOL    H48 3668   1.183   3.811   7.234 -1.1673 -0.4761  1.0180
   11MOL    H49 3669   1.168   3.700   7.353  0.7665 -2.2184  0.5358
   11MOL    H50 3670   1.201   3.536   7.186  0.3093 -0.6260 -2.5764
   11MOL    H51 3671   1.374   3.585   7.182  0.5935  1.3065  3.0083
   11MOL    H52 3672   1.343   3.741   7.006 -1.2963  0.8709 -1.4050
   11MOL    H53 3673   1.167   3.739   7.005  0.2513  0.0910 -1.0477
   11MOL    H54 3674   1.282   3.603   6.826  0.3724  0.7523  0.9435
   11MOL    H55 3675   1.329   3.488   6.932  1.3423  1.0608 -2.1567
   11MOL    C56 3676   1.087   3.438   6.809 -0.4159 -0.0241 -0.0296
   11MOL    O57 3677   1.158   3.425   6.705 -0.1964 -0.2578 -0.1725
   11MOL    C58 3678   0.942   3.394   6.827 -0.0859  0.0784 -0.0451
   11MOL    C59 3679   0.875   3.345   6.697 -0.0335  0.1022 -0.4557
   11MOL    C60 3680   0.733   3.288   6.714 -0.1970  0.7321 -0.1282
   11MOL    C61 3681   0.729   3.166   6.808 -0.9273  0.2055 -0.4184
   11MOL    C62 3682   0.594   3.099   6.819 -0.0589  0.7441 -0.0153
   11MOL    O63 3683   0.549   3.038   6.696  0.2524 -0.1760  0.1729
   11MOL    H64 3684   0.891   3.486   6.856 -1.5507 -0.5475 -0.5827
   11MOL    H65 3685   0.927   3.312   6.897 -0.6419 -1.5078 -1.9797
   11MOL    H66 3686   0.944   3.273   6.653 -0.0518  1.3374 -2.5743
   11MOL    H67 3687   0.882   3.432   6.632  0.9565  0.9169  0.7347
   11MOL    H68 3688   0.683   3.258   6.622  0.3293 -0.3425 -0.0766
   11MOL    H69 3689   0.661   3.364   6.744 -2.2062 -0.6099 -1.4757
   11MOL    H70 3690   0.767   3.181   6.909 -0.2812 -2.4413 -0.2308
   11MOL    H71 3691   0.793   3.088   6.767 -1.7279 -0.8240  0.2693
   11MOL    H72 3692   0.600   3.022   6.896 -0.7380 -0.8091 -1.4811
   11MOL    H73 3693   0.518   3.169   6.853 -0.5668  0.0685  0.2670
   11MOL    C74 3694   0.426   2.994   6.682 -0.3256 -0.1528 -0.1371
   11MOL    O75 3695   0.340   2.993   6.769 -0.2416 -0.1546 -0.4309
   11MOL    C76 3696   0.387   2.961   6.541  0.6863 -0.4094 -0.1620
   11MOL    C77 3697   0.342   3.083   6.448 -0.0562  0.7234 -0.3094
   11MOL    C78 3698   0.455   3.179   6.412  0.2220 -0.5122 -0.2953
   11MOL    C79 3699   0.422   3.287   6.307  0.1592  0.2101  0.4098
   11MOL    C80 3700   0.518   3.407   6.288 -0.2625 -0.4500 -0.5373
   11MOL    O81 3701   0.542   3.476   6.413 -0.0890  0.0085 -0.0712
   11MOL    H82 3702   0.310   2.884   6.534  1.1468 -0.9915  0.8866
   11MOL    H83 3703   0.473   2.924   6.485  0.6728  0.7945 -0.9925
   11MOL    H84 3704   0.274   3.139   6.513  0.3229  0.3102  0.4380
   11MOL    H85 3705   0.277   3.049   6.367 -0.9027  1.4441  0.0540
   11MOL    H86 3706   0.550   3.135   6.383  1.0577  1.5044 -0.7059
   11MOL    H87 3707   0.498   3.221   6.503  0.2772  0.7392 -0.8819
   11MOL    H88 3708   0.322   3.324   6.327 -0.2733  0.0417 -1.3714
   11MOL    H89 3709   0.407   3.225   6.219  1.1649  1.7948 -0.9159
   11MOL    H90 3710   0.613   3.381   6.241  0.0980 -0.3462  0.1185
   11MOL    H91 3711   0.484   3.481   6.216  2.4831  2.0186  0.5731
   11MOL    C92 3712   0.510   3.606   6.417  0.1450 -0.5469  0.0763
   11MOL    O93 3713   0.444   3.675   6.334 -0.2360 -0.1178  0.4039
   11MOL    C94 3714   0.554   3.665   6.551  0.4537  0.0972  0.4698
   11MOL    C95 3715   0.704   3.707   6.540 -0.3116 -0.2187  0.1353
   11MOL    C96 3716   0.762   3.753   6.675 -0.5384  0.7455 -0.4095
   11MOL    C97 3717   0.919   3.788   6.681 -0.1028  0.0543 -0.4406
   11MOL    C98 3718   0.973   3.875   6.796  0.3763 -0.0765 -0.2217
   11MOL    O99 3719   1.106   3.927   6.768 -0.4386  0.0619  0.6473
   11MOL   H100 3720   0.533   3.598   6.634 -1.1717  0.1130  0.0839
   11MOL   H101 3721   0.495   3.754   6.574 -0.3195 -0.4985  0.7888
   11MOL   H102 3722   0.705   3.775   6.455 -1.3535 -0.7157 -0.2843
   11MOL   H103 3723   0.748   3.610   6.517 -1.0262 -0.0645 -2.0033
   11MOL   H104 3724   0.751   3.674   6.749  2.0233  0.2165 -0.5578
   11MOL   H105 3725   0.700   3.838   6.705  1.2340  2.1528 -0.6357
   11MOL   H106 3726   0.947   3.844   6.592  0.4269  0.9683  0.2899
   11MOL   H107 3727   0.980   3.697   6.683 -0.0766  0.0951  1.0807
   11MOL   H108 3728   0.904   3.953   6.829  2.9187  2.9250 -1.8050
   11MOL   H109 3729   0.994   3.808   6.879  1.8075 -0.5090 -0.9247
   11MOL   C110 3730   1.177   4.008   6.846  0.8679  0.2717 -1.0633
   11MOL   O111 3731   1.147   4.036   6.961  0.4569 -0.4789  0.5568
   11MOL   C112 3732   1.291   4.079   6.771 -0.0308 -0.2219 -0.0763
   11MOL   C113 3733   1.263   4.214   6.697  0.3178  0.3317  0.3405
   11MOL   C114 3734   1.237   4.317   6.802  0.4519  0.3765  0.3092
   11MOL   C115 3735   1.220   4.461   6.731 -0.3379  0.1747  0.3909
   11MOL   C116 3736   1.076   4.485   6.676  0.4675  0.3036 -0.4257
   11MOL   O117 3737   0.986   4.493   6.783 -0.4188 -0.7343  0.8640
   11MOL   H118 3738   1.343   4.013   6.702  0.6188 -0.3182  0.5039
   11MOL   H119 3739   1.377   4.102   6.834 -0.3384  2.4525 -0.5873
   11MOL   H120 3740   1.175   4.199   6.634  1.1320 -1.1225 -0.4897
   11MOL   H121 3741   1.342   4.249   6.632 -0.0650  0.8168  0.1389
   11MOL   H122 3742   1.323   4.345   6.864  1.0461  2.2897 -1.3136
   11MOL   H123 3743   1.151   4.281   6.858 -0.3785 -1.0025 -1.7816
   11MOL   H124 3744   1.280   4.480   6.643 -1.8801  0.7591 -0.5412
   11MOL   H125 3745   1.249   4.539   6.802  0.0297 -0.4317  0.9253
   11MOL   H126 3746   1.061   4.584   6.633  3.6424 -0.3215 -3.2410
   11MOL   H127 3747   1.043   4.411   6.602 -0.9022  0.6297 -0.1434
   11MOL   C128 3748   0.879   4.414   6.804 -0.4261 -0.6238 -0.1223
   11MOL   O129 3749   0.831   4.337   6.722  0.5928  0.2004  0.6838
   11MOL   C130 3750   0.793   4.454   6.928 -0.0736  0.9238  0.0751
   11MOL   C131 3751   0.870   4.456   7.061 -0.0320 -0.7614  0.8862
   11MOL   C132 3752   0.996   4.551   7.071 -0.2645  0.3424 -0.0590
   11MOL   C133 3753   1.057   4.528   7.211 -0.3380  0.8637  0.5405
   11MOL   C134 3754   1.173   4.624   7.241  1.1701 -0.0056 -0.4675
   11MOL   O135 3755   1.114   4.751   7.278 -0.1832  0.0022  0.2797
   11MOL   H136 3756   0.707   4.388   6.936 -0.4359  0.9364 -3.0497
   11MOL   H137 3757   0.759   4.555   6.902  1.4222  1.3889 -0.1070
   11MOL   H138 3758   0.906   4.353   7.067 -1.4669 -1.2288  1.6352
   11MOL   H139 3759   0.803   4.474   7.145  1.9232 -2.2120  2.8416
   11MOL   H140 3760   0.970   4.655   7.052  0.9233  0.5731 -0.4312
   11MOL   H141 3761   1.071   4.538   6.994  0.6149 -0.3668  0.9023
   11MOL   H142 3762   1.091   4.425   7.199 -1.3167  1.0378 -4.7399
   11MOL   H143 3763   0.975   4.522   7.282 -0.3927  0.5474  0.4523
   11MOL   H144 3764   1.237   4.581   7.318  2.9351  1.5349 -1.0513
   11MOL   H145 3765   1.248   4.643   7.165  0.4665 -2.4462 -1.8225
   11MOL   C146 3766   1.057   4.771   7.390 -0.2550 -0.1281 -0.1294
   11MOL   O147 3767   1.047   4.691   7.479 -0.3565 -0.3288 -0.0610
   11MOL   C148 3768   0.991   4.908   7.399  0.0973  0.2554  0.2214
   11MOL   C149 3769   1.080   5.005   7.474 -0.6703  0.1839  0.8099
   11MOL   C150 3770   1.058   5.149   7.419  0.6767  0.2788  0.5888
   11MOL   C151 3771   1.139   5.252   7.490 -0.1307  0.0438 -0.1097
   11MOL   C152 3772   1.119   5.397   7.440  0.0210 -0.8790 -1.1218
   11MOL   O153 3773   1.236   5.479   7.463  0.4034  0.2491 -0.2394
   11MOL   H154 3774   0.896   4.897   7.452 -0.5974 -1.7568 -1.3853
   11MOL   H155 3775   0.965   4.950   7.302  0.1475 -1.2952 -0.4867
   11MOL   H156 3776   1.186   4.983   7.459 -1.0276  0.3340 -2.2121
   11MOL   H157 3777   1.067   4.987   7.581 -0.8186  1.4720  1.0111
   11MOL   H158 3778   0.956   5.181   7.439  0.1537 -0.5763 -0.6227
   11MOL   H159 3779   1.084   5.155   7.313 -1.7336 -1.0716 -0.1289
   11MOL   H160 3780   1.242   5.218   7.480  0.6724  1.5354  2.5576
   11MOL   H161 3781   1.101   5.242   7.592 -3.5122 -0.5350 -1.3624
   11MOL   H162 3782   1.086   5.400   7.336 -2.9358 -2.0192 -0.2630
   11MOL   H163 3783   1.044   5.438   7.507  0.0810  1.8315 -2.6135
   11MOL   C164 3784   1.230   5.604   7.489 -0.2326  0.5484 -0.1955
   11MOL   O165 3785   1.129   5.674   7.476 -0.0843  0.4012  0.1101
   11MOL   C166 3786   1.362   5.659   7.546  0.1236 -0.6699 -0.1348
   11MOL   C167 3787   1.484   5.644   7.446 -0.2210  0.0076 -0.5596
   11MOL   C168 3788   1.499   5.758   7.351  0.1137 -0.2565 -0.2279
   11MOL   C169 3789   1.610   5.749   7.244 -0.3842  0.1262  0.2423
   11MOL   C170 3790   1.596   5.842   7.122 -0.2956 -0.3602 -0.1123
   11MOL   O171 3791   1.716   5.839   7.044 -0.0943  0.7775  0.3330
   11MOL   H172 3792   1.380   5.601   7.636 -2.0468  2.5333  2.4875
   11MOL   H173 3793   1.358   5.760   7.587 -0.1845 -0.4899 -0.6000
   11MOL   H174 3794   1.464   5.553   7.390 -0.4742 -1.0323  1.1894
   11MOL   H175 3795   1.586   5.639   7.485  0.5832 -1.0574 -2.7115
   11MOL   H176 3796   1.516   5.847   7.412 -0.9685 -0.0017 -0.2740
   11MOL   H177 3797   1.399   5.778   7.313 -0.1960 -0.4945  0.4442
   11MOL   H178 3798   1.633   5.648   7.210 -1.4738 -1.0653  2.8353
   11MOL   H179 3799   1.699   5.784   7.296 -1.0146 -2.1121  3.0003
   11MOL   H180 3800   1.503   5.829   7.066 -1.6583 -0.6480  2.1402
   11MOL   H181 3801   1.581   5.943   7.162  0.1384  0.3890 -1.7980
   11MOL   C182 3802   1.709   5.885   6.921  0.2982  0.5702 -0.1625
   11MOL   O183 3803   1.607   5.928   6.863  1.1479  0.2400  0.0918
   11MOL   C184 3804   1.848   5.883   6.856 -0.3712  0.2344 -0.2639
   11MOL   C185 3805   1.918   6.016   6.872 -0.7611 -0.4611  0.6479
   11MOL   C186 3806   1.837   6.130   6.807  0.4286  0.2448  0.4630
   11MOL   C187 3807   1.921   6.258   6.827  0.6005  0.1992  0.1340
   11MOL   C188 3808   2.020   6.294   6.720  0.3136 -0.4099  0.1533
   11MOL   O189 3809   2.107   6.192   6.689 -0.4619  0.4639 -0.5100
   11MOL   H190 3810   1.827   5.856   6.752 -2.5480  0.2962  0.1310
   11MOL   H191 3811   1.910   5.801   6.891  2.1617  1.6571 -1.2770
   11MOL   H192 3812   2.014   6.002   6.823 -1.7832 -1.3009 -1.1651
   11MOL   H193 3813   1.951   6.044   6.972 -1.3189  1.4693  0.3132
   11MOL   H194 3814   1.735   6.149   6.843 -0.3770 -0.0827 -1.5699
   11MOL   H195 3815   1.818   6.108   6.702 -2.5643 -1.0952  1.2196
   11MOL   H196 3816   1.967   6.266   6.926  0.9497  1.4560 -0.1283
   11MOL   H197 3817   1.844   6.336   6.829 -1.4575 -1.7903  0.6997
   11MOL   H198 3818   1.967   6.325   6.630  0.1153 -2.2089 -0.3706
   11MOL   H199 3819   2.069   6.384   6.758 -1.3461  0.7853 -0.4857
   11MOL   C200 3820   2.233   6.222   6.646  0.2083  0.4992  0.7478
   11MOL   O201 3821   2.291   6.328   6.673  0.4663  0.1327 -0.2098
   11MOL   C202 3822   2.300   6.107   6.575 -0.7199  0.6723 -0.3478
   11MOL   C203 3823   2.396   6.015   6.661 -0.6553  0.3941 -0.3894
   11MOL   C204 3824   2.321   5.953   6.785 -0.3109  0.1524 -0.5487
   11MOL   C205 3825   2.405   5.840   6.862 -0.5753 -0.3210  0.4801
   11MOL   C206 3826   2.344   5.796   6.995  0.2633 -0.2298  0.1562
   11MOL   O207 3827   2.217   5.733   6.972  0.3057  0.0508 -0.0051
   11MOL   H208 3828   2.351   6.146   6.487 -1.4314 -2.1943 -2.0918
   11MOL   H209 3829   2.216   6.049   6.537 -0.9654  0.3542  0.6635
   11MOL   H210 3830   2.472   6.078   6.707 -0.6747 -2.8247  4.4144
   11MOL   H211 3831   2.442   5.940   6.597  2.3308 -0.2607  2.3943
   11MOL   H212 3832   2.232   5.897   6.759 -0.2028 -0.7011  0.8362
   11MOL   H213 3833   2.293   6.033   6.853  0.6193 -0.0671  0.1067
   11MOL   H214 3834   2.504   5.882   6.878 -1.5338  1.9440  0.7237
   11MOL   H215 3835   2.416   5.750   6.802  0.4272  0.6384 -0.8112
   11MOL   H216 3836   2.411   5.723   7.040 -0.2913 -0.1521  1.1437
   11MOL   H217 3837   2.330   5.880   7.063 -0.8720 -0.2719 -0.0050
   11MOL   C218 3838   2.168   5.642   7.063  0.6299  0.0178  0.6631
   11MOL   O219 3839   2.235   5.606   7.158  0.3397  0.4080  0.1678
   11MOL   C220 3840   2.039   5.576   7.022  0.1901 -0.0190  0.0755
   11MOL   C221 3841   1.920   5.582   7.121  0.2652 -0.0196 -0.1811
   11MOL   C222 3842   1.936   5.473   7.229  0.0221 -0.1122  0.1925
   11MOL   C223 3843   1.820   5.470   7.333  0.2025 -0.8225 -0.4703
   11MOL   C224 3844   1.825   5.345   7.428 -0.0828  0.4361 -0.3141
   11MOL   O225 3845   1.709   5.332   7.516  0.4161  0.3177  0.9768
   11MOL   H226 3846   2.054   5.468   7.009  1.4407  0.2198 -0.5193
   11MOL   H227 3847   2.012   5.618   6.925 -2.0883 -0.2990  0.5558
   11MOL   H228 3848   1.819   5.574   7.083 -0.5441  1.1960  1.6371
   11MOL   H229 3849   1.912   5.670   7.185 -2.4435  0.4608 -1.1193
   11MOL   H230 3850   2.031   5.489   7.280  1.7721 -2.0604 -2.3408
   11MOL   H231 3851   1.933   5.380   7.173 -1.5760  1.1231 -1.8495
   11MOL   H232 3852   1.727   5.463   7.276 -0.4228  0.6446  0.3363
   11MOL   H233 3853   1.805   5.563   7.388 -0.1837 -0.8891 -0.4648
   11MOL   H234 3854   1.840   5.255   7.368 -0.4427  1.1449 -1.4670
   11MOL   H235 3855   1.914   5.349   7.491 -0.0066  0.9434 -0.4585
   11MOL   C236 3856   1.614   5.239   7.474 -0.1345  0.1059  0.1176
   11MOL   O237 3857   1.619   5.176   7.369  0.1128 -0.1867 -0.7066
   11MOL   C238 3858   1.496   5.237   7.567 -0.5415 -0.3352  0.4774
   11MOL   C239 3859   1.534   5.224   7.721  0.5581  0.0802  0.1756
   11MOL   C240 3860   1.408   5.224   7.815 -0.8116 -0.4224 -0.1454
   11MOL   C241 3861   1.331   5.086   7.815 -0.7684  0.7944 -0.2789
   11MOL   C242 3862   1.217   5.083   0.074 -0.0881  0.2657 -0.4296
   11MOL   O243 3863   1.161   4.953   0.085  0.0241  0.4789 -0.3210
   11MOL   H244 3864   1.430   5.157   7.531  1.0583 -0.7840 -1.5495
   11MOL   H245 3865   1.448   5.335   7.562 -1.2772 -0.6783  0.7363
   11MOL   H246 3866   1.606   5.298   7.754  1.8164 -0.2961 -1.6260
   11MOL   H247 3867   1.569   5.123   7.741  0.7640 -0.6679 -3.5146
   11MOL   H248 3868   1.341   5.308   7.797 -0.5555  0.2402  1.7872
   11MOL   H249 3869   1.451   5.228   0.071 -1.4755  2.0124  0.0944
   11MOL   H250 3870   1.399   5.004   7.841 -0.3851  1.6515  1.5173
   11MOL   H251 3871   1.296   5.053   7.717  0.3590 -0.2137 -0.3538
   11MOL   H252 3872   1.265   5.094   0.171  0.9415  0.6232 -0.9757
   11MOL   H253 3873   1.154   5.171   0.063  0.1218  0.5320  0.4890
   11MOL   C254 3874   1.036   4.937   0.032 -0.3932  0.2130 -0.0669
   11MOL   O255 3875   0.973   5.020   7.818 -0.0970 -0.1989  0.3004
   11MOL   C256 3876   0.986   4.795   0.045  0.1631  0.5644  0.3066
   11MOL   C257 3877   1.086   4.692   7.834  0.1712 -0.4618 -0.8009
   11MOL   C258 3878   1.064   4.547   0.036 -0.8896 -0.1635  0.4142
   11MOL   C259 3879   1.128   4.439   7.785 -0.3690 -0.5497 -0.1156
   11MOL   C260 3880   1.275   4.446   7.777  0.1007 -0.0076 -0.6176
   11MOL   O261 3881   1.334   4.394   0.053 -0.3376 -0.3562  0.1163
   11MOL   H262 3882   0.892   4.779   7.836  0.3748  1.3650 -0.3288
   11MOL   H263 3883   0.975   4.773   0.151 -1.9661 -0.9080 -0.1974
   11MOL   H264 3884   1.189   4.718   0.014  0.8780 -0.7099 -3.3766
   11MOL   H265 3885   1.084   4.691   7.725  0.9816 -1.3731 -0.8113
   11MOL   H266 3886   0.958   4.520   0.035 -1.1282  0.4514 -4.2330
   11MOL   H267 3887   1.105   4.524   0.134  1.3864 -0.0338 -0.4626
   11MOL   H268 3888   1.083   4.434   7.686  0.3018 -1.3996 -0.3789
   11MOL   H269 3889   1.096   4.345   7.830 -3.7760  0.8883  0.6705
   11MOL   H270 3890   1.317   4.405   7.685  1.5336  0.2014 -0.0700
   11MOL   H271 3891   1.304   4.550   7.766  0.4419 -0.1094 -0.6975
   11MOL   C272 3892   1.393   4.480   0.144 -0.3064 -0.1098  0.3448
   11MOL   O273 3893   1.391   4.600   0.135  0.3195  0.3831 -0.5093
   11MOL   C274 3894   1.443   4.390   0.264 -0.4978 -0.3397  0.8810
   11MOL   C275 3895   1.513   4.468   0.382 -0.1255 -0.3908  0.3529
   11MOL   C276 3896   1.532   4.373   0.497 -0.2614 -0.3077 -0.0246
   11MOL   C277 3897   1.573   4.452   0.619  0.4753  0.4749  0.2043
   11MOL   C278 3898   1.725   4.465   0.631  0.3800 -0.2971 -0.0533
   11MOL   O279 3899   1.777   4.354   0.711  0.3926  0.2110 -0.2533
   11MOL   H280 3900   1.511   4.315   0.223 -1.2994  0.6670 -2.4478
   11MOL   H281 3901   1.353   4.333   0.288 -0.1370 -1.8017 -1.1268
   11MOL   H282 3902   1.440   4.541   0.418  2.2072  2.4643 -0.5387
   11MOL   H283 3903   1.602   4.521   0.348 -1.9924  2.4227 -0.4184
   11MOL   H284 3904   1.606   4.295   0.479  0.4113  0.4838 -0.7733
   11MOL   H285 3905   1.444   4.314   0.523  0.1426 -1.0904 -0.4395
   11MOL   H286 3906   1.531   4.391   0.699  0.9801 -2.1575 -1.4604
   11MOL   H287 3907   1.529   4.551   0.619  0.1370  0.3415 -1.7917
   11MOL   H288 3908   1.772   4.444   0.535  1.3038  0.3530  0.2475
   11MOL   H289 3909   1.754   4.567   0.658 -0.5372 -0.0237 -0.1070
   11MOL   C290 3910   1.831   4.379   0.832 -0.3623 -0.6536 -1.0189
   11MOL   O291 3911   1.823   4.491   0.888  0.2480 -0.2947 -0.3007
   11MOL   C292 3912   1.907   4.265   0.901 -0.1529  0.3142 -0.2583
   11MOL   C293 3913   2.045   4.232   0.846 -0.1075 -0.9222 -0.4480
   11MOL   C294 3914   2.121   4.132   0.935  0.1659 -0.0926  0.3244
   11MOL   C295 3915   2.233   4.073   0.855  0.2530  0.3410 -0.2842
   11MOL   C296 3916   2.364   4.150   0.834 -0.3062  0.1296  0.2217
   11MOL   O297 3917   2.441   4.061   0.751 -0.1261  0.2458  0.1948
   11MOL   H298 3918   1.842   4.182   0.878  0.7148 -0.2521 -0.6888
   11MOL   H299 3919   1.911   4.287   1.008  0.6476  2.0445 -0.6235
   11MOL   H300 3920   2.110   4.319   0.849  0.8353 -1.4890 -3.3240
   11MOL   H301 3921   2.045   4.194   0.744  1.0559 -0.2957 -0.6847
   11MOL   H302 3922   2.052   4.054   0.966 -0.0460  0.0163  0.1296
   11MOL   H303 3923   2.150   4.182   1.027 -0.4427 -0.4237  0.6957
   11MOL   H304 3924   2.196   4.038   0.759  1.4298  0.6707 -0.8754
   11MOL   H305 3925   2.263   3.983   0.909 -1.1595  0.9016  1.4725
   11MOL   H306 3926   2.349   4.240   0.773 -1.7935  1.2437  2.2072
   11MOL   H307 3927   2.417   4.182   0.923 -0.1252  0.2802  0.0629
   11MOL   C308 3928   2.538   3.986   0.802 -0.3267  0.6660  0.2057
   11MOL   O309 3929   2.549   3.954   0.919  0.8929  0.2073 -0.4529
   11MOL   C310 3930   2.641   3.929   0.694  0.0449  0.4700  0.9250
   11MOL   C311 3931   2.676   4.027   0.592 -0.4624  0.3464  0.0523
   11MOL   C312 3932   2.801   3.994   0.506  0.5380 -0.0864  1.0504
   11MOL   C313 3933   2.866   4.111   0.427 -0.9832  0.7406  0.2534
   11MOL   C314 3934   3.006   4.074   0.387 -0.0840  0.2131 -0.1261
   11MOL   O315 3935   3.102   4.088   0.483  0.3840 -0.2138 -0.3967
   11MOL   H316 3936   2.587   3.850   0.641 -2.2830  0.7923  2.7241
   11MOL   H317 3937   2.736   3.891   0.731 -0.0769 -0.6883  0.0953
   11MOL   H318 3938   2.703   4.120   0.641 -1.8527  0.0192  1.4492
   11MOL   H319 3939   2.595   4.050   0.523  0.8750  0.8172 -1.3970
   11MOL   H320 3940   2.784   3.909   0.439  1.2458  1.4381 -1.1082
   11MOL   H321 3941   2.870   3.957   0.582  0.8320 -1.4232  0.1565
   11MOL   H322 3942   2.861   4.207   0.478 -0.2681  0.5063  0.7767
   11MOL   H323 3943   2.809   4.111   0.334 -0.2773 -2.1400 -0.2369
   11MOL   H324 3944   3.003   3.978   0.335  1.2591 -0.9974  1.9957
   11MOL   H325 3945   3.032   4.144   0.307  0.3394  0.2437  0.0395
   11MOL   C326 3946   3.209   4.006   0.477 -0.4266 -0.7658 -0.0008
   11MOL   O327 3947   3.224   3.915   0.405  0.4945  0.4727  0.2493
   11MOL   C328 3948   3.315   4.038   0.580  0.1659  0.4018  0.4749
   11MOL   C329 3949   3.391   4.160   0.546  1.0745 -0.2927 -0.1735
   11MOL   C330 3950   3.536   4.131   0.507 -0.6823 -0.1037  0.4554
   11MOL   C331 3951   3.617   4.262   0.502 -0.4557 -0.3776  0.4271
   11MOL   C332 3952   3.763   4.233   0.457 -0.0960 -0.1135 -0.3755
   11MOL   O333 3953   3.810   4.134   0.543  0.4291  0.2403 -0.3758
   11MOL   H334 3954   3.376   3.953   0.609 -0.7976 -0.2512  0.6047
   11MOL   H335 3955   3.250   4.064   0.663  0.9501  2.4294  0.4876
   11MOL   H336 3956   3.390   4.220   0.637  0.2937 -2.3682  1.2345
   11MOL   H337 3957   3.352   4.238   0.482  2.6026 -1.2092 -2.2790
   11MOL   H338 3958   3.542   4.080   0.411 -0.6620 -1.0390  0.9526
   11MOL   H339 3959   3.586   4.063   0.576  0.0027 -1.7204 -1.6069
   11MOL   H340 3960   3.620   4.300   0.605 -1.7927  0.7005  0.0838
   11MOL   H341 3961   3.565   4.340   0.446  0.0397 -0.4137 -0.0824
   11MOL   H342 3962   3.745   4.198   0.355 -1.7709  4.1848 -1.6672
   11MOL   H343 3963   3.835   4.314   0.449 -0.5502  0.1678 -1.7418
   11MOL   C344 3964   3.940   4.098   0.529 -0.0927  0.2328 -0.1624
   11MOL   O345 3965   4.019   4.143   0.443  0.2463 -0.0262  0.4796
   11MOL   C346 3966   3.981   3.988   0.623 -0.2749  0.0866 -0.1709
   11MOL   C347 3967   3.943   3.852   0.581  0.0658 -0.2267  0.9407
   11MOL   C348 3968   3.976   3.753   0.691  0.3939 -0.4985 -0.2163
   11MOL   C349 3969   3.926   3.616   0.656  0.2493  0.0383  0.1941
   11MOL   C350 3970   3.916   3.524   0.783  0.0897 -0.2636  0.1946
   11MOL   O351 3971   3.994   3.406   0.783 -0.0621 -0.2947  0.1451
   11MOL   H352 3972   3.934   4.001   0.720  0.4081 -0.8950  0.3086
   11MOL   H353 3973   4.089   3.996   0.639 -0.5382  0.1232  1.7419
   11MOL   H354 3974   3.997   3.828   0.489 -0.0785 -0.3867  0.8969
   11MOL   H355 3975   3.843   3.849   0.539  0.4251  1.0023 -0.0534
   11MOL   H356 3976   3.923   3.791   0.778  0.5813  0.6009 -0.5728
   11MOL   H357 3977   4.081   3.751   0.721 -1.0258 -0.4612  5.1115
   11MOL   H358 3978   3.976   3.565   0.573 -0.2581 -3.0492  1.7173
   11MOL   H359 3979   3.830   3.630   0.607  0.0328  0.2017  0.6688
   11MOL   H360 3980   3.925   3.584   0.873 -1.3060 -0.7133  0.6530
   11MOL   H361 3981   3.816   3.480   0.790  0.3255 -0.6647  1.1380
   11MOL   H362 3982   4.084   3.435   0.779 -0.9283  2.9475  1.9633
   12MOL     C1 3983   3.692   3.157   0.729  0.3124 -0.3068  0.0683
   12MOL     O2 3984   3.607   3.155   0.644  0.1567  0.0338 -0.1413
   12MOL     C3 3985   3.651   3.192   0.873 -0.1582  0.2981 -0.5139
   12MOL     C4 3986   3.511   3.252   0.893 -0.0962  0.4292 -0.1941
   12MOL     C5 3987   3.472   3.323   1.022 -0.0626  0.0448  0.5507
   12MOL     C6 3988   3.567   3.442   1.054  0.1866  0.8028  0.4321
   12MOL     C7 3989   3.546   3.502   1.194  0.1962 -0.4053  0.5129
   12MOL     O8 3990   3.593   3.635   1.194 -0.1099 -0.5280  0.5857
   12MOL     H9 3991   3.726   3.269   0.890  0.8824 -0.9412  0.5909
   12MOL    H10 3992   3.668   3.114   0.947 -2.8110  2.5314  2.6185
   12MOL    H11 3993   3.445   3.167   0.877  0.8014 -0.3913  0.4326
   12MOL    H12 3994   3.494   3.321   0.810  1.0658  3.0623  1.6647
   12MOL    H13 3995   3.470   3.249   1.102 -1.0064 -0.8664 -0.2941
   12MOL    H14 3996   3.370   3.358   1.012 -0.2268 -0.0682  1.8277
   12MOL    H15 3997   3.550   3.526   0.986 -1.2514 -0.3699 -0.6644
   12MOL    H16 3998   3.671   3.414   1.039 -0.4215 -0.9894 -0.5108
   12MOL    H17 3999   3.441   3.498   1.223 -0.5133 -1.0000 -2.0361
   12MOL    H18 4000   3.593   3.432   1.263  0.9435 -1.0436 -0.6284
   12MOL    H19 4001   3.798   3.141   0.715  0.4436  1.7263 -1.4898
   12MOL    C20 4002   3.568   3.717   1.297  0.3931  1.0158  0.0628
   12MOL    O21 4003   3.510   3.689   1.401 -0.6177  0.3101 -0.5501
   12MOL    C22 4004   3.615   3.859   1.269 -0.1247  0.1099  0.0959
   12MOL    C23 4005   3.572   3.951   1.378 -0.3280 -0.0726 -0.6549
   12MOL    C24 4006   3.622   4.099   1.345  0.1620  0.9037  0.3389
   12MOL    C25 4007   3.581   4.190   1.464  0.2444  0.3053 -0.4094
   12MOL    C26 4008   3.623   4.332   1.444 -0.1244  0.4941 -0.5098
   12MOL    O27 4009   3.766   4.336   1.419  0.0892 -0.6796  0.5901
   12MOL    H28 4010   3.561   3.888   1.179 -1.7998  0.1129  1.0774
   12MOL    H29 4011   3.720   3.857   1.243 -0.3951 -1.9825 -0.9010
   12MOL    H30 4012   3.595   3.919   1.480 -1.7786  0.1765 -0.2425
   12MOL    H31 4013   3.464   3.947   1.395  0.0133  1.3421  2.0646
   12MOL    H32 4014   3.579   4.159   1.265 -3.4187  1.9212  2.8885
   12MOL    H33 4015   3.730   4.094   1.336  0.1255 -0.5863  0.4648
   12MOL    H34 4016   3.622   4.149   1.556 -2.0332  3.3183  2.0276
   12MOL    H35 4017   3.474   4.169   1.459  0.1615  0.2626  1.2095
   12MOL    H36 4018   3.577   4.361   1.349 -0.3937  1.5430 -0.0594
   12MOL    H37 4019   3.593   4.397   1.526  0.3178 -0.8168  0.7140
   12MOL    C38 4020   3.827   4.455   1.405  0.1693  0.2860  0.0752
   12MOL    O39 4021   3.766   4.561   1.411 -0.3456  0.1094 -0.4209
   12MOL    C40 4022   3.979   4.444   1.372 -0.6635 -0.2523  0.0261
   12MOL    C41 4023   4.056   4.570   1.420 -0.7004 -0.4759 -0.1257
   12MOL    C42 4024   4.204   4.570   1.401  0.1863 -0.2331 -0.2866
   12MOL    C43 4025   4.271   4.690   1.478  0.3835 -0.4800 -0.9026
   12MOL    C44 4026   4.413   4.705   1.424 -0.6973 -0.1898 -0.0829
   12MOL    O45 4027   4.465   4.840   1.441 -0.9958 -0.3742 -0.6073
   12MOL    H46 4028   3.997   4.416   1.268  0.2888  0.1357  0.0808
   12MOL    H47 4029   4.009   4.351   1.422 -1.0713 -0.6068 -0.3827
   12MOL    H48 4030   4.038   4.586   1.526 -0.3472 -1.0625  0.0302
   12MOL    H49 4031   4.017   4.649   1.356 -0.7335  0.1218  0.6273
   12MOL    H50 4032   4.213   4.582   1.293 -2.5677  1.1168 -0.3951
   12MOL    H51 4033   4.257   4.479   1.429 -0.7833 -1.0984 -1.2159
   12MOL    H52 4034   4.291   4.673   1.584  0.5349 -0.2498 -0.8941
   12MOL    H53 4035   4.212   4.780   1.462 -0.3932 -0.5081  1.6256
   12MOL    H54 4036   4.465   4.631   1.485 -0.5985 -0.3401 -0.3504
   12MOL    H55 4037   4.419   4.673   1.320  0.7705 -3.1047  0.8353
   12MOL    C56 4038   4.610   4.851   1.440  0.3464 -0.6600 -0.6576
   12MOL    O57 4039   4.692   4.759   1.430  0.1919 -0.5781  0.0664
   12MOL    C58 4040   4.647   4.997   1.451 -0.2204  0.4884 -0.0700
   12MOL    C59 4041   4.607   5.092   1.331 -0.8258  0.5248 -0.0854
   12MOL    C60 4042   4.626   5.246   1.356 -0.9773  0.4394 -0.0159
   12MOL    C61 4043   4.519   5.297   1.446 -0.1624  0.3581 -0.4627
   12MOL    C62 4044   4.524   5.448   1.471 -0.1279  0.3231 -0.0056
   12MOL    O63 4045   4.399   5.505   1.449  0.1011 -1.0222 -0.2102
   12MOL    H64 4046   4.752   5.012   1.477 -0.1536 -3.4966  2.5654
   12MOL    H65 4047   4.589   5.034   1.535  0.0020  1.3377 -0.2928
   12MOL    H66 4048   4.507   5.079   1.290 -0.6731 -1.9614  0.2913
   12MOL    H67 4049   4.669   5.054   1.251 -2.7638  0.1926 -1.4561
   12MOL    H68 4050   4.633   5.296   1.259  1.1616 -0.4028 -0.3292
   12MOL    H69 4051   4.723   5.259   1.406  1.4764 -0.6933 -4.2104
   12MOL    H70 4052   4.520   5.234   1.535 -0.3377 -1.3257 -1.6220
   12MOL    H71 4053   4.424   5.268   1.401  1.7317 -0.2600 -4.3291
   12MOL    H72 4054   4.563   5.474   1.569 -1.4352  1.4585  0.2190
   12MOL    H73 4055   4.596   5.501   1.408  0.5469 -0.9658 -0.3284
   12MOL    C74 4056   4.375   5.566   1.328  0.3100  0.0429 -0.8462
   12MOL    O75 4057   4.446   5.557   1.232  0.0284 -0.0884 -0.5604
   12MOL    C76 4058   4.240   5.641   1.330  0.0417  0.6621 -0.1237
   12MOL    C77 4059   4.114   5.554   1.321  0.0881  0.0444  0.0543
   12MOL    C78 4060   4.078   5.505   1.180  0.2449  0.6065 -0.0974
   12MOL    C79 4061   4.026   5.604   1.081 -0.0700  0.3778 -0.2960
   12MOL    C80 4062   4.005   5.546   0.944 -0.1127 -0.1296  0.0139
   12MOL    O81 4063   4.128   5.540   0.876 -0.4842  0.1728  0.1789
   12MOL    H82 4064   4.242   5.721   1.257  1.5872  1.8978  1.2276
   12MOL    H83 4065   4.246   5.693   1.425  1.8550 -0.1864  0.2452
   12MOL    H84 4066   4.032   5.615   1.358  1.7994  1.3294  1.7851
   12MOL    H85 4067   4.130   5.469   1.388  0.5657  1.9443  2.4220
   12MOL    H86 4068   4.016   5.417   1.193  0.9053  0.2864  0.9566
   12MOL    H87 4069   4.162   5.449   1.138 -1.1256 -0.7351 -1.0846
   12MOL    H88 4070   4.103   5.680   1.076  0.8001 -0.3626  1.5576
   12MOL    H89 4071   3.939   5.650   1.127  0.3927  2.6335 -1.6288
   12MOL    H90 4072   3.964   5.448   0.967 -0.0259 -0.3121 -0.5956
   12MOL    H91 4073   3.927   5.582   0.876  1.3087  1.4779 -0.8147
   12MOL    C92 4074   4.169   5.635   0.788 -0.3997  0.5781  0.5210
   12MOL    O93 4075   4.100   5.718   0.737 -0.0115 -0.3054  0.1981
   12MOL    C94 4076   4.311   5.622   0.736 -0.4886 -0.2516 -0.2786
   12MOL    C95 4077   4.382   5.755   0.752 -0.2271 -0.1905 -0.2092
   12MOL    C96 4078   4.373   5.861   0.632 -0.2205 -1.2149  0.7315
   12MOL    C97 4079   4.443   6.000   0.651 -0.1381  0.0149  0.3113
   12MOL    C98 4080   4.385   6.109   0.563 -0.1854 -0.7101 -1.0040
   12MOL    O99 4081   4.251   6.135   0.605  0.6130  0.2172  0.0753
   12MOL   H100 4082   4.321   5.590   0.632  1.5917 -0.2451 -0.0935
   12MOL   H101 4083   4.364   5.545   0.792 -0.6048 -0.3900 -0.3573
   12MOL   H102 4084   4.487   5.732   0.774 -0.4473 -0.1269  0.9834
   12MOL   H103 4085   4.345   5.810   0.838  1.5825  0.9944 -0.1547
   12MOL   H104 4086   4.267   5.885   0.619 -0.1718 -0.7884  1.1041
   12MOL   H105 4087   4.402   5.828   0.532  0.8656 -0.0056  0.6366
   12MOL   H106 4088   4.548   5.992   0.625 -0.1880  3.0120 -0.9544
   12MOL   H107 4089   4.449   6.029   0.756 -1.7273  2.0301 -0.1208
   12MOL   H108 4090   4.445   6.200   0.567  0.3795 -1.1044 -0.3629
   12MOL   H109 4091   4.396   6.068   0.463 -0.4729 -2.2054 -0.4358
   12MOL   C110 4092   4.150   6.126   0.522  0.2569  0.6735  0.3249
   12MOL   O111 4093   4.151   6.093   0.401 -0.0886  0.6687 -0.2898
   12MOL   C112 4094   4.014   6.158   0.583 -0.5712  0.0180 -0.0312
   12MOL   C113 4095   3.975   6.077   0.712  0.0458 -0.1490 -0.0271
   12MOL   C114 4096   3.990   6.148   0.845 -0.4233  0.1391 -0.4057
   12MOL   C115 4097   3.909   6.276   0.863  0.2190 -0.5248 -0.0419
   12MOL   C116 4098   3.928   6.341   1.003 -0.6936 -0.3661 -0.0798
   12MOL   O117 4099   3.871   6.251   1.096 -0.1629 -0.8531 -0.2418
   12MOL   H118 4100   3.934   6.144   0.509  0.8430 -0.9606 -1.4219
   12MOL   H119 4101   4.018   6.263   0.609  0.0172 -0.6295  2.6282
   12MOL   H120 4102   4.038   5.989   0.719 -0.2064 -0.2790  0.6066
   12MOL   H121 4103   3.872   6.042   0.714  0.2839 -1.0361 -1.7665
   12MOL   H122 4104   4.096   6.170   0.858 -0.5679  0.4171  0.3520
   12MOL   H123 4105   3.971   6.079   0.927 -3.6291 -0.2009 -1.3787
   12MOL   H124 4106   3.805   6.250   0.839 -0.1632  0.0733  0.9338
   12MOL   H125 4107   3.939   6.355   0.795  0.1763 -0.3284  0.1688
   12MOL   H126 4108   4.033   6.335   1.032 -0.2934 -2.1394 -1.7674
   12MOL   H127 4109   3.893   6.444   1.004 -0.2301 -0.1817 -1.6586
   12MOL   C128 4110   3.750   6.280   1.148  0.5762  0.1233 -0.3646
   12MOL   O129 4111   3.675   6.377   1.126 -0.7427  0.4184  0.0712
   12MOL   C130 4112   3.716   6.167   1.248  1.1025 -0.6750  0.1167
   12MOL   C131 4113   3.684   6.216   1.392 -0.6423  0.0588  0.2107
   12MOL   C132 4114   3.632   6.106   1.484  0.7400  0.5877 -0.3122
   12MOL   C133 4115   3.681   6.121   1.628 -0.4051 -0.2128  0.1212
   12MOL   C134 4116   3.627   6.028   1.732 -1.0622 -0.7252  0.1578
   12MOL   O135 4117   3.668   6.060   1.862  0.1752  0.7452  0.4920
   12MOL   H136 4118   3.786   6.084   1.245  0.4823 -1.1889 -0.2678
   12MOL   H137 4119   3.622   6.120   1.218 -1.1092  3.3432  0.3546
   12MOL   H138 4120   3.621   6.305   1.385 -2.2765 -1.1258 -0.7667
   12MOL   H139 4121   3.780   6.254   1.426 -0.9363  0.5418  0.5045
   12MOL   H140 4122   3.668   6.010   1.449 -0.3366 -0.1530  0.5762
   12MOL   H141 4123   3.523   6.098   1.478  0.7274  0.6823 -0.2227
   12MOL   H142 4124   3.658   6.224   1.654  3.4584  0.9671 -0.7963
   12MOL   H143 4125   3.790   6.121   1.631 -0.4316 -0.5212  2.0971
   12MOL   H144 4126   3.518   6.023   1.731 -1.2190  1.3674  2.1466
   12MOL   H145 4127   3.663   5.926   1.722  0.6740  0.1589 -3.2657
   12MOL   C146 4128   3.601   6.166   1.926  0.9850  0.1510 -0.0814
   12MOL   O147 4129   3.520   6.241   1.878 -0.6622 -0.4831 -0.2977
   12MOL   C148 4130   3.645   6.172   2.073  0.6471 -0.4830  0.5481
   12MOL   C149 4131   3.538   6.114   2.168 -0.0471 -0.2896  0.2459
   12MOL   C150 4132   3.407   6.193   2.182 -0.1646  0.6201 -0.3154
   12MOL   C151 4133   3.297   6.117   2.272 -0.0515 -0.7929  0.1503
   12MOL   C152 4134   3.306   6.159   2.416 -0.1081 -0.1033  0.6116
   12MOL   O153 4135   3.424   6.105   2.470  0.0920 -0.1766  0.3949
   12MOL   H154 4136   3.660   6.273   2.110 -0.3628 -0.2939  0.4579
   12MOL   H155 4137   3.740   6.123   2.089 -0.0298 -2.4437 -1.1837
   12MOL   H156 4138   3.593   6.122   2.261 -0.7399 -0.6252  0.6830
   12MOL   H157 4139   3.521   6.008   2.150 -1.9257 -0.0355  0.3973
   12MOL   H158 4140   3.360   6.200   2.084 -1.3032  0.5300  0.2058
   12MOL   H159 4141   3.434   6.293   2.217  0.4231 -0.2544  1.8096
   12MOL   H160 4142   3.296   6.012   2.241  0.9962 -0.2769 -1.6945
   12MOL   H161 4143   3.200   6.138   2.229 -0.5475  1.9834  2.4787
   12MOL   H162 4144   3.309   6.268   2.412 -0.7919 -0.0553  1.1776
   12MOL   H163 4145   3.217   6.128   2.472 -0.6195  2.3670  1.2340
   12MOL   C164 4146   3.435   6.109   2.606 -0.0963 -0.3973 -0.1200
   12MOL   O165 4147   3.337   6.137   2.674  0.5470 -0.6411 -0.1063
   12MOL   C166 4148   3.571   6.062   2.670  0.0837 -0.1958 -0.6385
   12MOL   C167 4149   3.698   6.111   2.598  0.1482  0.6918 -0.1108
   12MOL   C168 4150   3.824   6.097   2.681  0.2076  0.1309  0.3102
   12MOL   C169 4151   3.944   6.130   2.594 -0.7266  0.0940  0.9049
   12MOL   C170 4152   4.076   6.149   2.667  0.0981 -0.9450 -0.3848
   12MOL   O171 4153   4.112   6.046   2.752 -0.0860 -0.0681  0.2291
   12MOL   H172 4154   3.573   5.953   2.681 -1.9771 -0.2491 -0.6025
   12MOL   H173 4155   3.574   6.109   2.768  2.0821 -0.2824 -0.6529
   12MOL   H174 4156   3.680   6.217   2.584 -0.1810  0.6541  0.0131
   12MOL   H175 4157   3.695   6.058   2.503 -0.0348 -0.6024  0.5908
   12MOL   H176 4158   3.834   5.994   2.716 -2.0556 -0.7018 -1.3383
   12MOL   H177 4159   3.822   6.154   2.774  0.7222 -0.4954  0.7136
   12MOL   H178 4160   3.922   6.213   2.527 -1.6045  0.5783  1.7909
   12MOL   H179 4161   3.949   6.045   2.526  1.0086  0.3768  0.6411
   12MOL   H180 4162   4.158   6.156   2.595  0.2125 -1.2110 -0.2808
   12MOL   H181 4163   4.070   6.238   2.730  1.3010  0.2712 -1.9405
   12MOL   C182 4164   4.186   6.058   2.862  0.0924 -0.5551  0.1557
   12MOL   O183 4165   4.240   6.164   2.897 -0.1590  0.2016 -0.1096
   12MOL   C184 4166   4.192   5.940   2.960 -0.4860  0.4265  0.3638
   12MOL   C185 4167   4.048   5.873   2.980  0.1532  0.2457 -0.2487
   12MOL   C186 4168   3.945   5.968   3.045 -0.4810 -0.4118  0.7605
   12MOL   C187 4169   3.816   5.889   3.100 -0.8941  1.2967 -0.1060
   12MOL   C188 4170   3.714   5.983   3.167 -0.0134 -0.6642  0.8203
   12MOL   O189 4171   3.618   5.917   3.254  0.0166 -1.0689  0.3736
   12MOL   H190 4172   4.232   5.979   3.054  1.7616  0.5191 -0.5962
   12MOL   H191 4173   4.271   5.869   2.939 -0.1789  1.3528 -1.7739
   12MOL   H192 4174   4.062   5.779   3.034 -2.9557 -0.3890 -0.4787
   12MOL   H193 4175   4.013   5.837   2.883 -0.1964 -0.7930  0.2567
   12MOL   H194 4176   3.899   6.045   2.983  1.5133 -0.4319 -0.8071
   12MOL   H195 4177   3.985   6.006   3.139 -0.0394 -2.4036  1.4191
   12MOL   H196 4178   3.854   5.807   3.161 -1.2552 -0.6219 -2.3612
   12MOL   H197 4179   3.766   5.840   3.016 -0.9625  0.4390  0.4324
   12MOL   H198 4180   3.763   6.063   3.223 -1.4686  0.5661  0.3729
   12MOL   H199 4181   3.664   6.023   3.079 -1.4280 -1.8744  1.0475
   12MOL   C200 4182   3.546   5.988   3.347  0.0139 -0.3863 -0.4505
   12MOL   O201 4183   3.553   6.111   3.362  0.4040 -0.5525 -0.1907
   12MOL   C202 4184   3.452   5.906   3.437  0.2693 -0.5632  0.7387
   12MOL   C203 4185   3.308   5.965   3.445 -0.7223 -0.4556 -0.0257
   12MOL   C204 4186   3.289   6.085   3.542  0.1706 -0.4261  0.2290
   12MOL   C205 4187   3.148   6.139   3.557  0.3343  1.1370 -0.2542
   12MOL   C206 4188   3.150   6.243   3.670 -0.2592 -0.2500 -0.3505
   12MOL   O207 4189   3.033   6.318   3.667  0.5003  0.3847  0.3977
   12MOL   H208 4190   3.502   5.889   3.532  1.5647 -0.2497  0.1186
   12MOL   H209 4191   3.444   5.808   3.391  0.9280 -0.2583 -0.0334
   12MOL   H210 4192   3.247   5.888   3.491  0.0233 -1.5164 -0.7915
   12MOL   H211 4193   3.264   5.991   3.349 -1.4110  0.9938  0.6593
   12MOL   H212 4194   3.355   6.163   3.505  2.1528 -2.4667 -0.6996
   12MOL   H213 4195   3.306   6.052   3.645 -0.0186  1.1359  0.7724
   12MOL   H214 4196   3.084   6.055   3.586  1.3202  0.4969  0.0902
   12MOL   H215 4197   3.110   6.176   3.462  2.0035  2.1642 -0.5415
   12MOL   H216 4198   3.143   6.192   3.766 -1.6955  0.0556 -0.2865
   12MOL   H217 4199   3.243   6.301   3.667  0.2728 -1.0701  0.0007
   12MOL   C218 4200   3.014   6.423   3.592 -0.7133  0.7043  0.9102
   12MOL   O219 4201   3.096   6.462   3.504 -0.3773 -0.0554 -0.3156
   12MOL   C220 4202   2.896   6.507   3.632 -1.5215  0.0246 -0.0947
   12MOL   C221 4203   2.773   6.416   3.639  0.2261 -0.3088 -0.1435
   12MOL   C222 4204   2.709   6.384   3.498  0.1697  0.1341  0.3796
   12MOL   C223 4205   2.652   6.243   3.480  0.0185 -0.3779 -0.5511
   12MOL   C224 4206   2.519   6.225   3.545 -0.6344  0.4830 -0.3583
   12MOL   O225 4207   2.527   6.199   3.684 -0.4079  0.3508  0.3856
   12MOL   H226 4208   2.870   6.594   3.571  0.9328  0.0132 -1.2147
   12MOL   H227 4209   2.916   6.558   3.726 -0.2381  0.8592 -0.8092
   12MOL   H228 4210   2.692   6.469   3.691 -0.0091 -1.8584  1.1176
   12MOL   H229 4211   2.802   6.331   3.701 -0.1487 -0.8920 -0.7611
   12MOL   H230 4212   2.796   6.388   3.433  0.3578 -0.6320  0.5734
   12MOL   H231 4213   2.637   6.461   3.470  1.2759  0.8594 -0.4708
   12MOL   H232 4214   2.725   6.169   3.512 -0.1977 -0.2259  0.2909
   12MOL   H233 4215   2.645   6.228   3.372  2.1440 -0.2161 -0.7272
   12MOL   H234 4216   2.444   6.304   3.539  0.5260  1.8875  2.5560
   12MOL   H235 4217   2.473   6.143   3.490  0.2515 -0.1583 -0.1695
   12MOL   C236 4218   2.544   6.074   3.733 -0.4595 -0.2571  0.0591
   12MOL   O237 4219   2.585   5.979   3.670  0.1033 -0.3219  0.5463
   12MOL   C238 4220   2.529   6.062   3.880  0.3744 -0.4420  0.2393
   12MOL   C239 4221   2.643   6.123   3.960  0.2517 -0.1920 -0.1834
   12MOL   C240 4222   2.625   6.129   4.106  0.3762  0.1249 -0.6429
   12MOL   C241 4223   2.519   6.233   4.144 -0.3099 -0.3935 -0.3432
   12MOL   C242 4224   2.526   6.308   4.268 -0.1390  0.5405 -0.1975
   12MOL   O243 4225   2.530   6.223   4.381  0.3422 -0.5088 -0.1074
   12MOL   H244 4226   2.525   5.958   3.913 -0.8747 -0.7725 -0.9445
   12MOL   H245 4227   2.435   6.104   3.915  0.6059 -1.2470  1.9272
   12MOL   H246 4228   2.667   6.223   3.923 -0.2802  0.5869  1.5444
   12MOL   H247 4229   2.725   6.056   3.935  1.2676  1.5641 -1.7602
   12MOL   H248 4230   2.720   6.175   4.134  0.0293  0.6384 -0.3015
   12MOL   H249 4231   2.617   6.029   4.148  1.4356  0.5904  0.7278
   12MOL   H250 4232   2.416   6.196   4.150 -1.1467  1.7590 -1.0245
   12MOL   H251 4233   2.505   6.301   4.060  0.8821 -1.2932 -1.2833
   12MOL   H252 4234   2.625   6.352   4.254 -0.5096  1.6657  0.6292
   12MOL   H253 4235   2.463   6.397   4.272 -1.2914 -0.3172  1.2986
   12MOL   C254 4236   2.421   6.194   4.447 -0.3492  0.5285  0.1621
   12MOL   O255 4237   2.307   6.223   4.419  0.2801  0.0669 -0.4995
   12MOL   C256 4238   2.451   6.099   4.559 -0.2387 -0.2731 -0.6838
   12MOL   C257 4239   2.338   6.006   4.597  0.6143 -0.7638  0.2165
   12MOL   C258 4240   2.385   5.890   4.689  0.5024 -0.1797 -0.6192
   12MOL   C259 4241   2.268   5.814   4.759 -0.0443 -0.8209  0.8162
   12MOL   C260 4242   2.314   5.699   4.853  0.3221 -0.1884 -0.5174
   12MOL   O261 4243   2.389   5.756   4.959  0.1759  0.1003 -0.3666
   12MOL   H262 4244   2.478   6.164   4.642 -0.8128 -0.7107 -0.1508
   12MOL   H263 4245   2.535   6.034   4.534  1.8116  1.7600  0.7199
   12MOL   H264 4246   2.309   5.965   4.500  3.4411 -0.2751 -0.8760
   12MOL   H265 4247   2.263   6.069   4.645  1.3640  0.6146 -0.3814
   12MOL   H266 4248   2.451   5.924   4.769  0.3071 -1.2600  0.0047
   12MOL   H267 4249   2.446   5.819   4.632  1.7980 -1.0484  1.7914
   12MOL   H268 4250   2.197   5.768   4.691 -1.0947  0.4177  1.0651
   12MOL   H269 4251   2.226   5.892   4.823  2.2304  0.9610  0.2226
   12MOL   H270 4252   2.228   5.657   4.904  0.4677  0.5856  0.3854
   12MOL   H271 4253   2.355   5.610   4.805  0.0145 -0.9535  0.6319
   12MOL   C272 4254   2.399   5.688   5.078 -0.4294 -0.0662 -0.3515
   12MOL   O273 4255   2.352   5.580   5.097  0.5203  0.6160 -0.3423
   12MOL   C274 4256   2.462   5.770   5.190  0.0396 -0.1159 -0.5601
   12MOL   C275 4257   2.419   5.739   5.334  0.6382  0.7343 -0.2598
   12MOL   C276 4258   2.285   5.810   5.356 -0.3403  0.0982 -0.2143
   12MOL   C277 4259   2.205   5.757   5.484 -0.1782 -0.6792  0.2186
   12MOL   C278 4260   2.083   5.835   5.512 -0.5398  0.2380 -0.5153
   12MOL   O279 4261   2.048   5.779   5.640  0.1184  0.4887 -0.0013
   12MOL   H280 4262   2.444   5.877   5.182  2.2729  0.4152  1.1111
   12MOL   H281 4263   2.568   5.752   5.177  0.5092  1.3944  1.0724
   12MOL   H282 4264   2.493   5.757   5.412  0.8936  0.0984 -0.3466
   12MOL   H283 4265   2.396   5.633   5.344 -1.7253  0.7538 -4.1627
   12MOL   H284 4266   2.220   5.802   5.269 -0.2250  0.8651 -0.3765
   12MOL   H285 4267   2.310   5.916   5.366  4.1331 -0.9560  1.1496
   12MOL   H286 4268   2.269   5.761   5.572  0.0973 -1.4058  0.0467
   12MOL   H287 4269   2.183   5.652   5.465 -2.0528 -0.4759  1.1508
   12MOL   H288 4270   2.105   5.941   5.523  1.8150 -0.4779  2.7764
   12MOL   H289 4271   2.002   5.814   5.442  0.2121 -1.7978 -0.8121
   12MOL   C290 4272   1.933   5.806   5.699 -0.3137 -0.3510 -0.6966
   12MOL   O291 4273   1.832   5.868   5.656  0.1834  0.2256  0.2323
   12MOL   C292 4274   1.930   5.746   5.840  0.6075  0.0357  0.4318
   12MOL   C293 4275   2.054   5.784   5.926  0.4064 -0.3991 -0.2772
   12MOL   C294 4276   2.162   5.679   5.945 -0.4239  0.1254  0.1509
   12MOL   C295 4277   2.112   5.578   6.045 -0.2169 -0.1713 -0.3427
   12MOL   C296 4278   2.222   5.475   6.073  0.0305  0.9377  0.1994
   12MOL   O297 4279   2.176   5.396   6.182  0.2515 -0.0600 -0.1852
   12MOL   H298 4280   1.900   5.641   5.839  1.5356 -0.2207 -0.7759
   12MOL   H299 4281   1.843   5.792   5.889  0.3852  0.8013 -0.6566
   12MOL   H300 4282   2.014   5.801   6.026  0.9172 -0.4017 -0.0709
   12MOL   H301 4283   2.111   5.869   5.889  0.8079  0.1619  1.5819
   12MOL   H302 4284   2.248   5.735   5.981 -0.5311  0.5895 -0.3020
   12MOL   H303 4285   2.199   5.639   5.850  1.8124 -0.8340  1.4087
   12MOL   H304 4286   2.024   5.537   5.994 -0.7885  2.0663 -1.2004
   12MOL   H305 4287   2.080   5.623   6.139  1.2868 -1.5172  0.8325
   12MOL   H306 4288   2.234   5.421   5.979 -1.4724  0.0246  0.5115
   12MOL   H307 4289   2.321   5.514   6.100  0.6716  0.3307 -1.2296
   12MOL   C308 4290   2.111   5.284   6.168  0.6551  0.4066 -0.1912
   12MOL   O309 4291   2.059   5.249   6.062 -0.0506  0.6768  0.4170
   12MOL   C310 4292   2.096   5.201   6.296  0.0240  0.5152 -0.2451
   12MOL   C311 4293   2.220   5.118   6.327  0.1484 -0.2182 -0.1968
   12MOL   C312 4294   2.334   5.177   6.410 -0.1596 -0.4793  0.0914
   12MOL   C313 4295   2.452   5.087   6.440 -0.6902  0.0209 -0.3246
   12MOL   C314 4296   2.554   5.169   6.516  0.7671 -0.4784 -0.2233
   12MOL   O315 4297   2.613   5.274   6.437  0.8164 -0.1709  0.0743
   12MOL   H316 4298   2.006   5.141   6.287  1.0424 -1.5213  2.6424
   12MOL   H317 4299   2.059   5.273   6.369  0.1826  0.6531 -0.3005
   12MOL   H318 4300   2.266   5.078   6.237 -1.4708 -2.9989  0.1646
   12MOL   H319 4301   2.179   5.029   6.373  0.1096 -0.5101 -0.7885
   12MOL   H320 4302   2.279   5.191   6.503 -0.3536 -0.2208 -0.0623
   12MOL   H321 4303   2.362   5.277   6.378 -1.5889  0.3099  1.2606
   12MOL   H322 4304   2.508   5.043   6.358 -1.6718 -1.1736 -0.3660
   12MOL   H323 4305   2.427   5.005   6.507 -1.2973  2.6647  2.8404
   12MOL   H324 4306   2.505   5.209   6.604  1.0437  2.8986 -1.5103
   12MOL   H325 4307   2.635   5.113   6.562  1.9478  0.3826 -1.1990
   12MOL   C326 4308   2.702   5.359   6.505 -0.3253  0.3617 -0.0864
   12MOL   O327 4309   2.735   5.348   6.625 -0.0108  0.2727  0.1407
   12MOL   C328 4310   2.745   5.485   6.434  0.5804  0.8825 -0.5886
   12MOL   C329 4311   2.643   5.591   6.468 -0.5424  0.4388 -0.1808
   12MOL   C330 4312   2.520   5.590   6.376 -0.6757  0.0638 -1.0621
   12MOL   C331 4313   2.461   5.732   6.379 -1.0007  0.0826  0.4203
   12MOL   C332 4314   2.343   5.748   6.284 -0.0036 -0.0975 -0.0984
   12MOL   O333 4315   2.310   5.883   6.271  0.2553 -0.6313 -0.2993
   12MOL   H334 4316   2.753   5.479   6.325  0.8523  0.1183 -0.5275
   12MOL   H335 4317   2.843   5.518   6.468  0.4853  0.9605 -0.3907
   12MOL   H336 4318   2.687   5.688   6.443 -2.8550  2.0258  1.6458
   12MOL   H337 4319   2.612   5.591   6.573  1.8429  1.3770  0.5695
   12MOL   H338 4320   2.453   5.510   6.405 -0.9810  0.0473 -1.8128
   12MOL   H339 4321   2.552   5.559   6.276 -0.6569 -0.7136 -0.8183
   12MOL   H340 4322   2.523   5.811   6.338  0.1187  0.6822  3.1863
   12MOL   H341 4323   2.427   5.763   6.478  0.4158  0.1450  0.8967
   12MOL   H342 4324   2.359   5.707   6.184 -1.3535 -0.2834 -0.2465
   12MOL   H343 4325   2.258   5.690   6.321  0.2715 -1.0395 -0.9096
   12MOL   C344 4326   2.186   5.930   6.268  1.0892  0.2904 -0.3623
   12MOL   O345 4327   2.082   5.859   6.286  0.0048 -0.5173  0.2369
   12MOL   C346 4328   2.180   6.076   6.231  0.0452  0.1482 -0.0783
   12MOL   C347 4329   2.036   6.138   6.215  0.9706  0.2866 -0.4174
   12MOL   C348 4330   1.993   6.220   6.339 -0.2450 -0.2801  0.0037
   12MOL   C349 4331   1.843   6.220   6.361  0.0456  0.8211 -0.5709
   12MOL   C350 4332   1.752   6.287   6.255  0.2552  0.1419  0.5641
   12MOL   O351 4333   1.790   6.422   6.242 -0.1700  0.0591 -0.5658
   12MOL   H352 4334   2.252   6.093   6.151  0.6547 -2.4554 -0.1128
   12MOL   H353 4335   2.222   6.125   6.320 -1.1836  0.0262  0.5755
   12MOL   H354 4336   1.963   6.061   6.188  0.3486  0.0992  1.6899
   12MOL   H355 4337   2.048   6.212   6.137  1.8677 -0.7792 -1.3111
   12MOL   H356 4338   2.018   6.325   6.322  0.0533 -0.1396  1.2534
   12MOL   H357 4339   2.028   6.181   6.435 -0.0770  0.3744  0.2136
   12MOL   H358 4340   1.811   6.265   6.455  1.7126  2.6381 -0.8514
   12MOL   H359 4341   1.821   6.115   6.380 -0.1842  0.8370 -0.7317
   12MOL   H360 4342   1.781   6.246   6.159  0.4841  0.5907  0.4431
   12MOL   H361 4343   1.648   6.268   6.279  0.4876 -1.0588  0.6690
   12MOL   H362 4344   1.873   6.431   6.196 -0.6198  0.3119 -1.3481
   13MOL     C1 4345   7.319   3.024   6.540  0.3891 -0.2919  0.2727
   13MOL     O2 4346   7.431   3.031   6.576  0.1352 -0.1002 -0.0091
   13MOL     C3 4347   7.233   2.896   6.559 -0.2188 -0.1606 -0.3431
   13MOL     C4 4348   7.317   2.770   6.551 -0.1135  0.1811  0.4809
   13MOL     C5 4349   7.389   2.742   6.419  0.2769 -0.3663  0.1209
   13MOL     C6 4350   7.462   2.600   6.408  0.6340  0.5218 -0.0177
   13MOL     C7 4351   7.559   2.607   6.292 -0.3102 -0.2633 -0.0620
   13MOL     O8 4352   7.623   2.471   6.279 -0.0470 -0.6178 -0.0662
   13MOL     H9 4353   7.142   2.892   6.500  0.1475 -1.8434 -0.7943
   13MOL    H10 4354   7.196   2.906   6.661  0.9633  1.3911 -0.0401
   13MOL    H11 4355   7.240   2.694   6.559  0.3799 -0.2231  1.5406
   13MOL    H12 4356   7.376   2.762   6.642  1.2515 -1.1754 -0.4979
   13MOL    H13 4357   7.475   2.810   6.415 -0.5268  0.5991 -0.8266
   13MOL    H14 4358   7.332   2.741   6.327 -0.6799 -1.0416  0.7099
   13MOL    H15 4359   7.389   2.521   6.395 -0.6336  2.0107 -2.1497
   13MOL    H16 4360   7.518   2.583   6.500 -0.8798  1.3991  1.0787
   13MOL    H17 4361   7.500   2.633   6.204  0.3875 -0.7133 -0.6695
   13MOL    H18 4362   7.628   2.688   6.315 -0.0966 -0.6554  0.6931
   13MOL    H19 4363   7.279   3.109   6.484  2.7046  1.3427  1.0428
   13MOL    C20 4364   7.688   2.448   6.166  0.0968  0.3092 -0.2048
   13MOL    O21 4365   7.715   2.540   6.088  0.0715  0.1043 -1.1814
   13MOL    C22 4366   7.737   2.303   6.139 -0.0534 -0.1101 -0.2230
   13MOL    C23 4367   7.831   2.291   6.019  0.0130 -0.4126 -0.7305
   13MOL    C24 4368   0.134   2.327   6.056  0.3874 -0.1218  0.0982
   13MOL    C25 4369   0.193   2.205   6.136  0.1113 -0.8779  0.2004
   13MOL    C26 4370   0.348   2.236   6.151  0.3382  0.3038  0.4919
   13MOL    O27 4371   0.421   2.132   6.203  0.3012  0.2916 -0.2034
   13MOL    H28 4372   7.648   2.247   6.110  1.2724 -2.1866 -0.4242
   13MOL    H29 4373   7.774   2.252   6.227  2.5393 -1.3647 -1.9657
   13MOL    H30 4374   7.806   2.361   5.939 -1.3178  1.7430  1.4976
   13MOL    H31 4375   7.822   2.191   5.976  0.3327 -0.7957  0.0849
   13MOL    H32 4376   0.140   2.423   6.107  0.1433 -0.1078  0.1021
   13MOL    H33 4377   0.190   2.336   5.963  1.8752 -0.7965  0.9179
   13MOL    H34 4378   0.193   2.112   6.079 -0.8053  1.1653 -3.2715
   13MOL    H35 4379   0.156   2.193   6.238  1.4218 -2.3826  0.5235
   13MOL    H36 4380   0.399   2.271   6.062  1.8710  0.0320  1.2405
   13MOL    H37 4381   0.354   2.325   6.214  0.9322  0.4581  0.2165
   13MOL    C38 4382   0.479   2.037   6.121 -0.6448 -0.1259 -0.2298
   13MOL    O39 4383   0.485   2.043   5.999  1.2148 -0.6594 -0.8321
   13MOL    C40 4384   0.529   1.915   6.198  0.2994  0.9903  0.4497
   13MOL    C41 4385   0.576   1.792   6.118  0.1129 -0.5823  0.8871
   13MOL    C42 4386   0.556   1.653   6.186 -0.8174  0.0622  0.0746
   13MOL    C43 4387   0.633   1.644   6.319  0.7444 -0.5960 -0.0078
   13MOL    C44 4388   0.619   1.507   6.384  0.0575  0.1498  0.5802
   13MOL    O45 4389   0.704   1.416   6.311  0.3642 -0.3214 -0.1908
   13MOL    H46 4390   0.439   1.880   6.251  0.3892  0.0482 -0.0115
   13MOL    H47 4391   0.603   1.939   6.274  0.6231 -1.4440  0.9446
   13MOL    H48 4392   0.681   1.804   6.089 -0.3896 -1.6112 -1.4444
   13MOL    H49 4393   0.531   1.791   6.019  0.2174 -2.0336  0.8412
   13MOL    H50 4394   0.593   1.567   6.130 -0.9152 -0.6872  1.1419
   13MOL    H51 4395   0.451   1.627   6.206 -0.8567  0.8824  0.9641
   13MOL    H52 4396   0.591   1.717   6.388  1.3436  0.1887 -0.4655
   13MOL    H53 4397   0.737   1.677   6.309  0.3774  0.0199 -1.9836
   13MOL    H54 4398   0.646   1.510   6.489  1.3584  0.7322  0.2457
   13MOL    H55 4399   0.516   1.472   6.377 -1.1081  3.9576 -2.8231
   13MOL    C56 4400   0.717   1.293   6.353 -0.1507 -0.1763 -0.6327
   13MOL    O57 4401   0.656   1.234   6.441  0.2074  0.5042  0.1574
   13MOL    C58 4402   0.842   1.230   6.285 -0.6777  0.1216 -0.3147
   13MOL    C59 4403   0.972   1.250   6.369  0.1908  0.0781 -0.5980
   13MOL    C60 4404   1.096   1.203   6.291  0.2299 -0.0288  0.3984
   13MOL    C61 4405   1.234   1.213   6.361 -0.0252  0.2560 -0.4665
   13MOL    C62 4406   1.246   1.116   6.482  0.0236  0.0168 -0.4315
   13MOL    O63 4407   1.380   1.115   6.526  0.0893 -0.4605  0.0615
   13MOL    H64 4408   0.852   1.277   6.188 -1.7212 -0.4265 -0.6979
   13MOL    H65 4409   0.829   1.122   6.274 -2.6398  0.2143  0.8568
   13MOL    H66 4410   0.962   1.205   6.467  1.5335 -0.3946 -0.6629
   13MOL    H67 4411   0.978   1.358   6.386  0.1122  0.1501 -1.0171
   13MOL    H68 4412   1.104   1.254   6.195  1.0884  1.4251  1.2201
   13MOL    H69 4413   1.074   1.100   6.266 -0.1947  0.4906 -1.4165
   13MOL    H70 4414   1.256   1.316   6.389 -0.2243 -0.3487  2.0743
   13MOL    H71 4415   1.318   1.204   6.293  1.1901 -1.6169  1.2082
   13MOL    H72 4416   1.176   1.137   6.563 -0.0242 -0.7299 -0.2758
   13MOL    H73 4417   1.227   1.015   6.443 -0.6070  0.2457 -0.7303
   13MOL    C74 4418   1.424   1.189   6.630  0.3899 -0.5093  0.6699
   13MOL    O75 4419   1.360   1.281   6.679 -0.1417  0.1510  0.3677
   13MOL    C76 4420   1.572   1.162   6.673  0.1651 -1.1020 -0.1543
   13MOL    C77 4421   1.666   1.277   6.627 -0.1185 -0.7489  0.0399
   13MOL    C78 4422   1.779   1.318   6.728 -0.0129  0.6994  0.4057
   13MOL    C79 4423   1.852   1.203   6.805  0.5889 -0.2122 -0.5049
   13MOL    C80 4424   1.964   1.249   6.897 -0.0316 -0.5239  0.0680
   13MOL    O81 4425   2.058   1.317   6.816 -0.0458 -0.2960 -0.0213
   13MOL    H82 4426   1.605   1.064   6.639  1.4763 -0.4736 -0.7194
   13MOL    H83 4427   1.561   1.148   6.781 -1.8384 -0.7965 -0.3000
   13MOL    H84 4428   1.608   1.366   6.602 -0.5204 -1.1822 -0.5995
   13MOL    H85 4429   1.713   1.233   6.539  1.0551  2.0938 -0.7913
   13MOL    H86 4430   1.727   1.371   6.808 -0.0754 -2.1435  2.3212
   13MOL    H87 4431   1.853   1.388   6.688  1.5791 -0.5755  1.1019
   13MOL    H88 4432   1.903   1.157   6.720 -1.2680  0.4676 -2.0369
   13MOL    H89 4433   1.790   1.121   6.841 -0.0982  1.0989  1.3495
   13MOL    H90 4434   1.914   1.322   6.961  0.2089 -1.1745  1.0131
   13MOL    H91 4435   2.013   1.176   6.960 -0.9043 -0.1724  1.1686
   13MOL    C92 4436   2.106   1.431   6.863  0.9214 -0.1311  0.5836
   13MOL    O93 4437   2.099   1.465   6.979 -0.5182  0.0517  0.4018
   13MOL    C94 4438   2.188   1.510   6.759 -0.0208 -0.8081 -0.2472
   13MOL    C95 4439   2.107   1.566   6.631  0.2319  0.3047 -0.6583
   13MOL    C96 4440   2.092   1.470   6.513 -0.4663 -0.5221 -0.8139
   13MOL    C97 4441   1.967   1.499   6.434  0.3230  0.5490  0.2407
   13MOL    C98 4442   1.935   1.398   6.322 -0.3480 -0.7882  0.1658
   13MOL    O99 4443   1.800   1.424   6.272 -0.3905  0.2349  0.0742
   13MOL   H100 4444   2.267   1.441   6.729  0.1004 -0.4791 -0.6963
   13MOL   H101 4445   2.229   1.594   6.815 -0.9516 -0.1708 -0.4913
   13MOL   H102 4446   2.158   1.656   6.594  1.3450 -0.7301 -1.6821
   13MOL   H103 4447   2.013   1.612   6.663  0.1634  1.0904 -1.9418
   13MOL   H104 4448   2.089   1.368   6.554 -0.8122 -0.3819 -0.4851
   13MOL   H105 4449   2.180   1.475   6.449  0.3382 -0.5739  0.2721
   13MOL   H106 4450   1.973   1.596   6.384  1.8081 -0.7115 -2.1157
   13MOL   H107 4451   1.890   1.506   6.511 -0.3879  1.3556 -0.5306
   13MOL   H108 4452   2.014   1.393   6.247  0.0380  0.3414  0.4892
   13MOL   H109 4453   1.926   1.299   6.368 -2.0848 -0.9922 -0.5843
   13MOL   C110 4454   1.755   1.360   6.169  0.8152 -0.0573  0.2393
   13MOL   O111 4455   1.815   1.275   6.105 -0.0518  0.0378 -0.0253
   13MOL   C112 4456   1.607   1.385   6.145 -0.2192  0.0948 -0.0933
   13MOL   C113 4457   1.544   1.298   6.039  0.3627  1.0867  0.2963
   13MOL   C114 4458   1.393   1.324   6.024 -0.0326 -0.8037  0.0662
   13MOL   C115 4459   1.326   1.279   5.894  0.0911  0.1885  0.3736
   13MOL   C116 4460   1.169   1.283   5.895  0.8647  0.1292  0.8991
   13MOL   O117 4461   1.108   1.407   5.890 -0.5335 -0.1070 -0.6403
   13MOL   H118 4462   1.596   1.493   6.131 -2.3091 -0.2405 -1.2787
   13MOL   H119 4463   1.556   1.362   6.238  1.7094 -1.2688  0.6429
   13MOL   H120 4464   1.577   1.200   6.072  1.9939  2.2625  2.3588
   13MOL   H121 4465   1.591   1.319   5.943  1.6491 -0.5938  0.5397
   13MOL   H122 4466   1.371   1.431   6.031 -1.2444 -0.9178 -1.7801
   13MOL   H123 4467   1.333   1.287   6.108 -0.7140  0.2118  0.0400
   13MOL   H124 4468   1.364   1.178   5.879  3.3558  1.1047  2.0117
   13MOL   H125 4469   1.375   1.334   5.813 -1.0186  0.9251  0.1878
   13MOL   H126 4470   1.117   1.224   5.820 -3.4387  2.0430  2.2237
   13MOL   H127 4471   1.142   1.245   5.994 -0.6509 -3.3747 -0.7522
   13MOL   C128 4472   0.976   1.415   5.925  0.0075  0.7614 -0.7973
   13MOL   O129 4473   0.896   1.324   5.944 -0.6108  0.1729 -0.9744
   13MOL   C130 4474   0.929   1.561   5.916 -0.0629 -0.0724  0.1019
   13MOL   C131 4475   0.945   1.623   6.054 -0.8711 -0.1021  0.1384
   13MOL   C132 4476   1.093   1.664   6.094 -1.0363 -0.0562  0.3675
   13MOL   C133 4477   1.094   1.739   6.223  0.3841  0.5419 -0.0440
   13MOL   C134 4478   1.232   1.788   6.258  0.2739  0.1022  0.2392
   13MOL   O135 4479   1.229   1.893   6.354  0.7479  0.4451 -0.0310
   13MOL   H136 4480   0.822   1.561   5.897 -0.3483  2.2169  1.4814
   13MOL   H137 4481   0.991   1.608   5.840  0.8905 -0.0775  0.8577
   13MOL   H138 4482   0.896   1.564   6.132 -1.0456  1.2719  1.0872
   13MOL   H139 4483   0.886   1.714   6.053  1.4296  1.4227 -0.4497
   13MOL   H140 4484   1.150   1.715   6.016 -0.3107  0.5210  1.2700
   13MOL   H141 4485   1.148   1.570   6.106  0.4745  0.8417  0.5210
   13MOL   H142 4486   1.060   1.669   6.299  1.2456 -0.2382 -0.3755
   13MOL   H143 4487   1.024   1.821   6.238  0.6725  0.8124 -0.1460
   13MOL   H144 4488   1.295   1.706   6.294 -1.6809 -1.5228  0.0377
   13MOL   H145 4489   1.279   1.827   6.168 -0.2764 -0.1219 -0.1483
   13MOL   C146 4490   1.207   2.018   6.318 -0.4102  0.4048  0.0509
   13MOL   O147 4491   1.158   2.056   6.211 -0.5777 -0.3181  0.0090
   13MOL   C148 4492   1.236   2.122   6.425 -0.1779 -0.6335 -0.3676
   13MOL   C149 4493   1.379   2.099   6.475  0.0014 -0.7316 -0.4836
   13MOL   C150 4494   1.423   2.220   6.564  0.6056 -0.0563  0.0118
   13MOL   C151 4495   1.545   2.198   6.657  0.4254 -0.2118  0.0570
   13MOL   C152 4496   1.606   2.334   6.704 -0.4708  0.3771 -0.6291
   13MOL   O153 4497   1.715   2.326   6.793  0.0406 -0.4372  0.2697
   13MOL   H154 4498   1.168   2.119   6.510  0.7074 -0.1485  0.3632
   13MOL   H155 4499   1.213   2.222   6.387 -0.0504 -0.4283  0.0816
   13MOL   H156 4500   1.443   2.099   6.387  0.7853 -0.6980  0.0751
   13MOL   H157 4501   1.375   2.001   6.522  0.9576 -0.3787  0.3523
   13MOL   H158 4502   1.334   2.270   6.604  0.5647  0.7733 -1.0811
   13MOL   H159 4503   1.444   2.296   6.488 -1.8200 -2.1804 -2.8703
   13MOL   H160 4504   1.608   2.127   6.602 -2.0729 -2.9506  0.5573
   13MOL   H161 4505   1.504   2.145   6.743 -0.5840 -1.9278 -1.4357
   13MOL   H162 4506   1.628   2.400   6.621 -0.6986  1.6306  0.2853
   13MOL   H163 4507   1.522   2.381   6.757 -1.6654 -0.1414 -2.0296
   13MOL   C164 4508   1.837   2.347   6.742  0.5486  0.0973  0.4643
   13MOL   O165 4509   1.866   2.383   6.630 -0.1418 -0.6556 -0.2556
   13MOL   C166 4510   1.941   2.321   6.850  1.5272 -0.2342  0.7813
   13MOL   C167 4511   1.956   2.423   6.961 -0.2029  0.6031 -0.0390
   13MOL   C168 4512   2.084   2.389   7.040 -0.1550 -0.6407 -0.0044
   13MOL   C169 4513   2.086   2.255   7.117 -0.0971 -0.0391  0.2120
   13MOL   C170 4514   2.217   2.250   7.189  0.4542 -0.2103 -0.3431
   13MOL   O171 4515   2.205   2.149   7.287 -0.2096 -0.7002 -0.2445
   13MOL   H172 4516   2.034   2.317   6.794  1.3340  0.4497  0.4089
   13MOL   H173 4517   1.927   2.219   6.885 -3.4578  0.3058  0.7559
   13MOL   H174 4518   1.869   2.422   7.026  0.3860 -1.1609  0.7652
   13MOL   H175 4519   1.955   2.517   6.906  1.9780  0.1968 -0.8521
   13MOL   H176 4520   2.104   2.466   7.114  0.9024 -1.7053  0.8358
   13MOL   H177 4521   2.171   2.388   6.973  0.4526  1.4806  0.6969
   13MOL   H178 4522   2.074   2.167   7.054 -2.9128  0.8794 -0.5934
   13MOL   H179 4523   2.009   2.248   7.194 -2.7324  0.9171 -2.2532
   13MOL   H180 4524   2.301   2.236   7.120  1.0068  0.1699  0.2406
   13MOL   H181 4525   2.245   2.344   7.236 -0.2295 -0.9750  1.6299
   13MOL   C182 4526   2.318   2.082   7.328 -0.4763  0.3488 -0.0237
   13MOL   O183 4527   2.430   2.113   7.279  0.0757 -0.1774  0.6305
   13MOL   C184 4528   2.295   1.984   7.447  0.2369 -0.1558  0.0746
   13MOL   C185 4529   2.332   2.035   7.586 -0.4718  0.5328 -0.4049
   13MOL   C186 4530   2.482   2.024   7.621  1.0298 -0.4612  0.1798
   13MOL   C187 4531   2.536   2.102   7.746 -0.0593  0.0043 -0.5079
   13MOL   C188 4532   2.689   2.104   7.766 -0.2055 -0.1347 -0.0702
   13MOL   O189 4533   2.737   2.195   7.670 -0.3734  0.7208 -0.2046
   13MOL   H190 4534   2.350   1.891   7.433 -0.7215 -0.3500 -2.5754
   13MOL   H191 4535   2.189   1.959   7.446  0.2427 -0.2977  1.5510
   13MOL   H192 4536   2.280   1.985   7.667  0.2162  1.5598  0.6846
   13MOL   H193 4537   2.292   2.137   7.588  1.8252  1.5395 -2.5665
   13MOL   H194 4538   2.555   2.041   7.541  1.8922  0.4014  1.1348
   13MOL   H195 4539   2.501   1.918   7.635  0.0219 -0.6328  0.2226
   13MOL   H196 4540   2.496   2.059   7.837  2.2571  0.4508  0.7584
   13MOL   H197 4541   2.485   2.198   7.741 -0.0564 -0.0047 -0.7448
   13MOL   H198 4542   2.718   2.142   0.019 -0.7235 -0.2846  0.1413
   13MOL   H199 4543   2.731   2.004   7.756 -1.6021 -0.5109 -2.6863
   13MOL   C200 4544   2.760   2.333   7.690 -0.3137  0.3993  0.2973
   13MOL   O201 4545   2.787   2.382   7.800 -0.2670  0.6949  0.3843
   13MOL   C202 4546   2.764   2.421   7.563  0.5455  0.1724  1.0451
   13MOL   C203 4547   2.661   2.373   7.458 -0.4918  0.1711 -0.0413
   13MOL   C204 4548   2.670   2.473   7.337 -0.2057  0.3424 -0.5369
   13MOL   C205 4549   2.557   2.445   7.231  0.2724 -0.0683 -0.6376
   13MOL   C206 4550   2.550   2.538   7.114 -0.3593  0.2162 -0.2228
   13MOL   O207 4551   2.492   2.666   7.151  0.6604 -0.6037 -0.3751
   13MOL   H208 4552   2.867   2.420   7.527  0.3592 -1.4324  0.4903
   13MOL   H209 4553   2.731   2.519   7.597  0.9053  0.7986 -0.4220
   13MOL   H210 4554   2.556   2.357   7.485 -0.5805  1.7340  0.6244
   13MOL   H211 4555   2.695   2.276   7.423  1.8090  1.2076 -0.7720
   13MOL   H212 4556   2.771   2.467   7.296 -0.2382 -2.7865 -0.3384
   13MOL   H213 4557   2.655   2.569   7.386  1.0914  0.3737 -0.1816
   13MOL   H214 4558   2.461   2.440   7.283  1.0183 -3.1946  0.5592
   13MOL   H215 4559   2.556   2.340   7.199 -3.9301 -0.5410  0.7409
   13MOL   H216 4560   2.649   2.546   7.069  0.3272 -1.3745  0.9526
   13MOL   H217 4561   2.483   2.497   7.039 -1.4472  1.9628 -0.2271
   13MOL   C218 4562   2.469   2.768   7.072  0.1494  0.6225  0.0815
   13MOL   O219 4563   2.500   2.772   6.959  0.0001  0.0129  0.2752
   13MOL   C220 4564   2.417   2.891   7.149 -0.3897 -0.3485  0.5448
   13MOL   C221 4565   2.313   2.877   7.252 -0.0347  0.0116  0.2473
   13MOL   C222 4566   2.186   2.817   7.195  0.7375  0.0694  0.9239
   13MOL   C223 4567   2.062   2.815   7.300  0.0236  0.1189  0.2431
   13MOL   C224 4568   1.944   2.730   7.252  0.1358  0.5564  0.1397
   13MOL   O225 4569   1.880   2.772   7.133  0.0623 -0.2682  0.7206
   13MOL   H226 4570   2.373   2.953   7.071  0.9688 -1.9370 -1.5114
   13MOL   H227 4571   2.505   2.943   7.188 -0.8344  0.7726  0.0824
   13MOL   H228 4572   2.283   2.974   7.292  0.3341  0.4169 -0.4607
   13MOL   H229 4573   2.342   2.812   7.335  0.3525 -1.2786 -0.8977
   13MOL   H230 4574   2.211   2.721   7.149  3.2448  0.8615  0.5256
   13MOL   H231 4575   2.163   2.877   7.108  1.7080 -0.2796  0.4180
   13MOL   H232 4576   2.026   2.917   7.294  0.0343  0.2256  1.9088
   13MOL   H233 4577   2.102   2.795   7.400 -1.1216  1.3743  0.9565
   13MOL   H234 4578   1.969   2.627   7.228 -1.3730 -0.2153  1.8317
   13MOL   H235 4579   1.866   2.726   7.328 -1.7117  0.8382 -1.7141
   13MOL   C236 4580   1.744   2.746   7.111 -0.3259 -0.3547  0.4370
   13MOL   O237 4581   1.675   2.659   7.167  0.0971  0.9856 -0.0589
   13MOL   C238 4582   1.686   2.850   7.007 -1.0312  0.0945  0.0379
   13MOL   C239 4583   1.533   2.847   7.002  0.1140 -0.8419  0.3641
   13MOL   C240 4584   1.463   2.983   6.951  0.0692  0.4421 -0.2115
   13MOL   C241 4585   1.314   2.991   6.987  0.1029  0.1456  0.3448
   13MOL   C242 4586   1.251   3.121   6.928  0.2405  0.6687 -0.4853
   13MOL   O243 4587   1.266   3.125   6.787 -0.7936 -0.4214 -0.2618
   13MOL   H244 4588   1.739   2.832   6.914 -1.3186 -0.8964  0.0586
   13MOL   H245 4589   1.725   2.949   7.032  0.1764 -0.2281 -0.5403
   13MOL   H246 4590   1.494   2.830   7.103 -0.7486  0.8883  0.3395
   13MOL   H247 4591   1.498   2.767   6.938 -1.0245 -1.7171  2.0456
   13MOL   H248 4592   1.491   2.989   6.846  1.8486 -1.6738  0.1075
   13MOL   H249 4593   1.513   3.070   6.994  4.1588 -0.3919 -3.0489
   13MOL   H250 4594   1.303   2.976   7.094 -0.5229 -2.0377  0.0124
   13MOL   H251 4595   1.260   2.904   6.948 -0.0271  0.2549  0.2773
   13MOL   H252 4596   1.147   3.119   6.960  0.7850  1.8097  1.4155
   13MOL   H253 4597   1.308   3.207   6.962  2.3231 -0.8132 -0.1197
   13MOL   C254 4598   1.167   3.091   6.709 -0.4281  0.1100 -0.2053
   13MOL   O255 4599   1.066   3.033   6.743 -0.5698 -0.2952 -0.2391
   13MOL   C256 4600   1.195   3.126   6.564 -0.3584 -0.1915  0.5118
   13MOL   C257 4601   1.288   3.029   6.504 -0.3026 -0.0911  0.1856
   13MOL   C258 4602   1.310   3.065   6.359  0.1562 -0.0277  1.1634
   13MOL   C259 4603   1.411   3.179   6.336  0.4460 -0.2644 -0.4814
   13MOL   C260 4604   1.430   3.221   6.188 -0.4100 -0.2460  0.0047
   13MOL   O261 4605   1.428   3.099   6.108  0.4602 -0.2051  0.1814
   13MOL   H262 4606   1.223   3.232   6.559 -0.3756 -0.2621 -1.8210
   13MOL   H263 4607   1.095   3.128   6.519 -0.6852 -1.8199  1.1258
   13MOL   H264 4608   1.241   2.931   6.517 -2.2640  0.5999 -1.3713
   13MOL   H265 4609   1.382   3.031   6.558 -0.4036 -1.2283  0.4231
   13MOL   H266 4610   1.214   3.094   6.316  2.4820  2.9034 -2.3690
   13MOL   H267 4611   1.352   2.976   6.312  1.6409  1.1909  0.1428
   13MOL   H268 4612   1.509   3.165   6.382 -0.8381 -0.1128  2.3485
   13MOL   H269 4613   1.372   3.258   6.399  1.3734 -0.0281 -0.1941
   13MOL   H270 4614   1.345   3.275   6.146  1.1600  1.9324 -0.4498
   13MOL   H271 4615   1.514   3.287   6.167 -0.4586 -0.3369 -0.4854
   13MOL   C272 4616   1.523   3.080   6.018  0.0021  0.1930 -0.0785
   13MOL   O273 4617   1.619   3.154   6.003 -0.0633  0.1358 -0.3027
   13MOL   C274 4618   1.504   2.941   5.945 -0.5457 -0.3615  0.2564
   13MOL   C275 4619   1.636   2.878   5.902  0.2105 -0.5219  0.0315
   13MOL   C276 4620   1.589   2.741   5.857 -0.5533 -0.6410  0.4790
   13MOL   C277 4621   1.711   2.656   5.819 -0.3825  0.4959  0.2581
   13MOL   C278 4622   1.662   2.536   5.736 -0.4726 -0.1278 -0.2390
   13MOL   O279 4623   1.635   2.569   5.600  0.0146  0.1405 -0.5042
   13MOL   H280 4624   1.432   2.955   5.864 -0.2696  0.9065  0.2174
   13MOL   H281 4625   1.460   2.881   6.024 -2.2898  2.5616  1.5982
   13MOL   H282 4626   1.708   2.877   5.984 -0.6420  2.5982  0.8875
   13MOL   H283 4627   1.681   2.936   5.821 -1.8555  1.3435  0.1719
   13MOL   H284 4628   1.524   2.756   5.771 -0.9835 -1.9147  0.5700
   13MOL   H285 4629   1.537   2.690   5.937 -2.0625 -2.0494 -1.3535
   13MOL   H286 4630   1.760   2.617   5.908  0.0218  0.8296  0.1813
   13MOL   H287 4631   1.781   2.712   5.757 -0.5069  0.0907 -0.2506
   13MOL   H288 4632   1.732   2.453   5.749 -1.4324 -0.6805  1.5280
   13MOL   H289 4633   1.566   2.512   5.781 -0.4317 -0.7163 -0.4730
   13MOL   C290 4634   1.738   2.586   5.510  0.1098 -0.2084  0.4847
   13MOL   O291 4635   1.856   2.602   5.534 -0.4054 -0.5306  0.2082
   13MOL   C292 4636   1.678   2.591   5.373 -0.5021  0.1205  1.0707
   13MOL   C293 4637   1.774   2.635   5.262  0.3148 -0.6943  0.4251
   13MOL   C294 4638   1.870   2.534   5.203 -0.1128  0.2365  0.0284
   13MOL   C295 4639   1.937   2.593   5.073  1.0963  0.2785  0.5178
   13MOL   C296 4640   2.025   2.486   5.004  0.4809 -1.1626  0.0681
   13MOL   O297 4641   2.068   2.526   4.879 -0.1102 -0.4691  0.3741
   13MOL   H298 4642   1.607   2.674   5.369  0.0330  0.5121 -1.2683
   13MOL   H299 4643   1.634   2.494   5.349 -2.0722  1.4187 -1.6123
   13MOL   H300 4644   1.827   2.723   5.297 -1.8088  0.1887  1.4564
   13MOL   H301 4645   1.733   2.685   5.175  1.4823 -0.3389  0.0724
   13MOL   H302 4646   1.817   2.440   5.186  1.3869 -0.5772 -0.2406
   13MOL   H303 4647   1.956   2.516   5.267 -0.2813 -1.0878 -0.0905
   13MOL   H304 4648   1.975   2.695   5.076  0.2005  0.6375  0.0396
   13MOL   H305 4649   1.858   2.616   5.002  1.1549 -0.5440  0.1757
   13MOL   H306 4650   2.113   2.459   5.063  0.6736 -0.0854  0.2821
   13MOL   H307 4651   1.974   2.390   5.018  0.2873 -0.9239  1.0773
   13MOL   C308 4652   2.067   2.430   4.781  0.1684  0.2621 -0.6299
   13MOL   O309 4653   2.036   2.314   4.793 -0.9653  0.5547 -0.7013
   13MOL   C310 4654   2.095   2.482   4.640  0.6838 -0.0365 -0.9691
   13MOL   C311 4655   2.063   2.385   4.525 -0.5798 -0.1746 -0.5985
   13MOL   C312 4656   2.060   2.447   4.384 -0.4480  0.5988  0.9894
   13MOL   C313 4657   2.004   2.350   4.282  0.3082  0.4689 -0.0772
   13MOL   C314 4658   2.006   2.412   4.145  0.5122  0.2287 -0.1171
   13MOL   O315 4659   1.963   2.320   4.051  0.0863 -0.1256  0.0138
   13MOL   H316 4660   2.195   2.527   4.635  0.6655  0.7583  3.7794
   13MOL   H317 4661   2.023   2.563   4.636 -2.0960 -2.4745 -1.8648
   13MOL   H318 4662   1.964   2.343   4.544 -1.6624  2.3518 -0.4637
   13MOL   H319 4663   2.135   2.303   4.515  0.3379  0.2472  2.0577
   13MOL   H320 4664   2.157   2.486   4.354 -0.8891  2.7749  2.2680
   13MOL   H321 4665   1.982   2.523   4.387 -0.4251  0.7336 -1.1489
   13MOL   H322 4666   1.907   2.319   4.323  0.4041  0.4791  0.1539
   13MOL   H323 4667   2.057   2.255   4.274 -0.4159  0.0123  0.4452
   13MOL   H324 4668   1.933   2.493   4.133  0.6295  0.3660  0.0896
   13MOL   H325 4669   2.108   2.444   4.122  0.1647  0.8779 -0.8080
   13MOL   C326 4670   2.023   2.309   3.926  0.1411  0.3760  0.3140
   13MOL   O327 4671   2.101   2.387   3.882 -0.1682 -0.3988 -0.5516
   13MOL   C328 4672   2.002   2.175   3.850  0.0808 -0.4481  0.3077
   13MOL   C329 4673   1.910   2.184   3.726 -0.4346 -0.0971  0.1962
   13MOL   C330 4674   1.766   2.214   3.768  0.5283  0.3588  0.4162
   13MOL   C331 4675   1.697   2.089   3.833 -0.4133  0.1098 -0.2028
   13MOL   C332 4676   1.532   2.086   3.829 -0.4754 -0.1087 -0.4031
   13MOL   O333 4677   1.483   2.195   3.901 -0.3471 -0.3978 -0.2596
   13MOL   H334 4678   1.966   2.099   3.920  0.7210  1.8267  3.2116
   13MOL   H335 4679   2.098   2.140   3.813  0.8253 -1.0448  2.6897
   13MOL   H336 4680   1.920   2.087   3.679  0.8156  0.0754  0.0871
   13MOL   H337 4681   1.950   2.264   3.663  0.6910  0.2454  1.3326
   13MOL   H338 4682   1.711   2.242   3.678 -1.7773 -0.5111  1.5163
   13MOL   H339 4683   1.760   2.301   3.833  1.2571  0.3592  0.4875
   13MOL   H340 4684   1.722   2.078   3.939  1.9283  0.5186 -0.6881
   13MOL   H341 4685   1.741   1.999   3.790 -2.8726 -1.3332  0.2393
   13MOL   H342 4686   1.501   2.090   3.725 -0.0419  2.9949 -0.4566
   13MOL   H343 4687   1.509   1.984   3.858  1.3607  0.0464  1.7603
   13MOL   C344 4688   1.347   2.215   3.932 -0.0197  0.5725 -0.2646
   13MOL   O345 4689   1.251   2.164   3.872 -0.4801 -0.5023 -0.3577
   13MOL   C346 4690   1.323   2.310   4.050  0.3846 -0.2267 -0.2684
   13MOL   C347 4691   1.188   2.374   4.043 -0.1318 -0.6862 -0.0553
   13MOL   C348 4692   1.175   2.481   3.935  0.3861 -0.2333  0.2512
   13MOL   C349 4693   1.051   2.567   3.954  0.6376 -0.0544  0.2900
   13MOL   C350 4694   1.031   2.672   3.852 -0.2009  0.1370  0.3483
   13MOL   O351 4695   1.116   2.785   3.885  0.5894  0.2031 -0.2524
   13MOL   H352 4696   1.402   2.385   4.040 -0.0376  0.5139  1.6877
   13MOL   H353 4697   1.335   2.257   4.144  1.9959  0.5579 -0.0058
   13MOL   H354 4698   1.190   2.433   4.135  0.9968 -0.0065 -0.5177
   13MOL   H355 4699   1.111   2.297   4.050 -0.7233 -0.2531 -1.5637
   13MOL   H356 4700   1.174   2.434   3.837  1.0429 -0.0969  0.1776
   13MOL   H357 4701   1.264   2.544   3.929 -0.5667  0.9985 -1.1742
   13MOL   H358 4702   1.052   2.616   4.052 -1.3536  0.3899  0.1144
   13MOL   H359 4703   0.963   2.504   3.949  1.6350 -1.3574 -0.9911
   13MOL   H360 4704   1.046   2.622   3.757 -0.2291 -2.9231  1.9173
   13MOL   H361 4705   0.928   2.706   3.863 -0.7662 -0.8451 -1.6860
   13MOL   H362 4706   1.083   2.860   3.839  0.1411  0.0272 -0.2231
   14MOL     C1 4707   4.670   5.133   3.325  0.4455 -0.1917 -0.8408
   14MOL     O2 4708   4.721   5.029   3.371 -0.2909  0.3151  0.3480
   14MOL     C3 4709   4.711   5.180   3.192  0.1544  0.3401  0.0902
   14MOL     C4 4710   4.849   5.247   3.179 -0.1523  0.6993  0.2433
   14MOL     C5 4711   4.975   5.161   3.182 -0.0549  0.0038  0.1602
   14MOL     C6 4712   5.107   5.247   3.158 -0.0440  0.2389 -0.2407
   14MOL     C7 4713   5.233   5.169   3.137 -0.3533  0.1779 -0.2238
   14MOL     O8 4714   5.340   5.260   3.136 -0.1482 -0.0638 -0.7540
   14MOL     H9 4715   4.635   5.245   3.148  1.5309  2.8478  1.3160
   14MOL    H10 4716   4.702   5.088   3.135 -0.1178  1.1933 -1.2853
   14MOL    H11 4717   4.849   5.318   3.262  1.3981 -0.3023  1.1432
   14MOL    H12 4718   4.861   5.292   3.080 -1.2971 -0.1761 -0.2993
   14MOL    H13 4719   4.963   5.084   3.105 -1.7853 -1.1331  1.5428
   14MOL    H14 4720   4.988   5.105   3.274  4.3460 -1.3550 -1.1287
   14MOL    H15 4721   5.116   5.318   3.241  0.1866  0.6213 -0.5879
   14MOL    H16 4722   5.106   5.323   3.079 -0.4744  1.5326  0.9807
   14MOL    H17 4723   5.250   5.105   3.224 -2.0015 -2.0251 -1.4772
   14MOL    H18 4724   5.235   5.104   3.049 -0.3919  0.1964 -0.2376
   14MOL    H19 4725   4.598   5.195   3.378 -0.4049 -2.1781  0.3913
   14MOL    C20 4726   5.459   5.221   3.178 -0.1852 -0.0320 -0.0593
   14MOL    O21 4727   5.501   5.106   3.191  0.4947  0.2041 -0.1091
   14MOL    C22 4728   5.552   5.332   3.199 -0.2789 -0.2937 -0.6323
   14MOL    C23 4729   5.697   5.309   3.241 -0.3556  0.0695  0.3269
   14MOL    C24 4730   5.705   5.264   3.391  0.9527  0.1032 -0.9692
   14MOL    C25 4731   5.619   5.352   3.484  0.1956 -0.3688 -0.0073
   14MOL    C26 4732   5.632   5.320   3.637  0.3085  0.1472  0.3173
   14MOL    O27 4733   5.560   5.405   3.721 -0.5823 -0.1048 -0.1393
   14MOL    H28 4734   5.504   5.406   3.262  0.1500  0.0116 -0.6623
   14MOL    H29 4735   5.545   5.380   3.101  0.1930 -0.6766 -0.8565
   14MOL    H30 4736   5.751   5.403   3.229  0.1667 -0.3325 -0.5423
   14MOL    H31 4737   5.750   5.241   3.175 -1.4800 -0.6523  0.1588
   14MOL    H32 4738   5.803   5.271   3.438  0.2473  1.2136  0.3590
   14MOL    H33 4739   5.681   5.158   3.406  0.1744  0.5687  1.2531
   14MOL    H34 4740   5.515   5.352   3.453  0.5898  0.4974 -1.3626
   14MOL    H35 4741   5.652   5.455   3.473  0.5862 -0.3812  0.9776
   14MOL    H36 4742   5.588   5.223   3.657  1.1836 -0.1137  1.0251
   14MOL    H37 4743   5.735   5.313   3.673  0.4014 -2.5289 -0.3729
   14MOL    C38 4744   5.629   5.507   3.778 -0.2525 -0.0099  0.6197
   14MOL    O39 4745   5.753   5.521   3.759 -0.5260 -0.4357  0.0303
   14MOL    C40 4746   5.540   5.610   3.856 -0.3507  0.2010  0.0471
   14MOL    C41 4747   5.468   5.718   3.766 -0.4249 -0.6361  0.0070
   14MOL    C42 4748   5.420   5.841   3.850  0.7510 -0.3531 -0.1407
   14MOL    C43 4749   5.319   5.809   3.962  0.2369  0.6858 -0.2375
   14MOL    C44 4750   5.296   5.933   4.045 -0.7136 -0.1066 -0.2465
   14MOL    O45 4751   5.237   5.899   4.174 -0.6789 -0.5641  0.3371
   14MOL    H46 4752   5.592   5.664   3.936 -0.9338  1.9247 -0.6986
   14MOL    H47 4753   5.464   5.550   3.905 -0.3066  0.4659  0.4429
   14MOL    H48 4754   5.382   5.669   3.721 -0.8698  0.2876 -0.1349
   14MOL    H49 4755   5.534   5.748   3.685  0.2562 -0.6192  0.5619
   14MOL    H50 4756   5.383   5.919   3.783  1.0191 -0.5702 -0.5492
   14MOL    H51 4757   5.504   5.887   3.902 -0.3562 -0.4647  1.7757
   14MOL    H52 4758   5.358   5.724   4.019  1.6773  0.4345 -1.5273
   14MOL    H53 4759   5.228   5.769   3.917 -0.4266  0.7864  1.0051
   14MOL    H54 4760   5.387   5.987   4.071 -0.0827 -0.7124 -1.1693
   14MOL    H55 4761   5.238   5.999   3.980  1.2917  1.0141 -0.9467
   14MOL    C56 4762   5.104   5.876   4.184 -0.2071 -0.3255  0.5253
   14MOL    O57 4763   5.023   5.885   4.086 -0.0510  0.0016 -0.0909
   14MOL    C58 4764   5.061   5.853   4.331  0.0061 -0.4838  0.5463
   14MOL    C59 4765   5.144   5.750   4.407 -1.0289 -0.1776 -0.0556
   14MOL    C60 4766   5.279   5.795   4.465 -0.1372 -0.0641 -0.5634
   14MOL    C61 4767   5.275   5.873   4.597 -0.1282 -0.0953  0.3104
   14MOL    C62 4768   5.329   5.804   4.726  0.3440  0.1334  0.4001
   14MOL    O63 4769   5.471   5.779   4.719  0.3656 -0.0861 -0.3422
   14MOL    H64 4770   4.956   5.827   4.322 -0.1084  0.2072 -0.1137
   14MOL    H65 4771   5.076   5.948   4.383 -0.4222 -0.7864  1.2292
   14MOL    H66 4772   5.165   5.661   4.346 -0.9452  0.4242 -0.9172
   14MOL    H67 4773   5.084   5.718   4.492 -0.6424  0.9068  0.6373
   14MOL    H68 4774   5.338   5.855   4.395  0.1326 -0.2831 -0.5279
   14MOL    H69 4775   5.346   5.709   4.470 -3.0718 -2.3614  0.3373
   14MOL    H70 4776   5.175   5.908   4.622  0.8340  1.1303  2.5525
   14MOL    H71 4777   5.331   5.964   4.577  0.7134 -0.2783  1.7001
   14MOL    H72 4778   5.301   5.870   4.809  1.9494  1.5365 -0.1261
   14MOL    H73 4779   5.286   5.705   4.740  3.4609 -1.3897 -0.2175
   14MOL    C74 4780   5.539   5.775   4.834 -0.0505  0.2935 -0.7991
   14MOL    O75 4781   5.495   5.798   4.944  0.2236  0.5727 -0.7328
   14MOL    C76 4782   5.684   5.741   4.824 -0.1135 -0.4043 -0.1274
   14MOL    C77 4783   5.754   5.815   4.709 -0.4224 -0.6300 -0.1170
   14MOL    C78 4784   5.904   5.827   4.713  0.2472 -0.0048 -0.9582
   14MOL    C79 4785   5.960   5.882   4.588 -0.2334  0.2065 -0.4320
   14MOL    C80 4786   6.110   5.859   4.578 -0.3830 -0.3449 -0.2388
   14MOL    O81 4787   6.152   5.841   4.446  0.0902  0.0460  0.3655
   14MOL    H82 4788   5.693   5.635   4.802 -2.1599 -1.0173  1.7783
   14MOL    H83 4789   5.729   5.753   4.923 -1.7120 -0.3341  0.6092
   14MOL    H84 4790   5.709   5.912   4.688  1.2339 -0.0249 -0.9407
   14MOL    H85 4791   5.730   5.766   4.615  0.2994 -0.3505 -0.4491
   14MOL    H86 4792   5.938   5.724   4.722 -0.6640 -0.1919  0.6056
   14MOL    H87 4793   5.943   5.874   4.803 -0.1960 -0.6580 -0.4095
   14MOL    H88 4794   5.945   5.989   4.573  2.1458  1.0795  2.8157
   14MOL    H89 4795   5.912   5.829   4.505 -0.7999 -0.5756  0.3847
   14MOL    H90 4796   6.159   5.932   4.642 -1.6754  0.2116  0.1279
   14MOL    H91 4797   6.129   5.757   4.613 -0.5736  0.4149  2.1760
   14MOL    C92 4798   6.279   5.851   4.409 -0.2928  0.2067  0.6167
   14MOL    O93 4799   6.373   5.898   4.474 -0.8406  0.3566  0.1021
   14MOL    C94 4800   6.312   5.823   4.269 -0.3493  0.4188 -0.2637
   14MOL    C95 4801   6.219   5.897   4.173 -0.1680  0.0654  0.3580
   14MOL    C96 4802   6.211   6.047   4.189 -1.2921 -0.3876  0.0814
   14MOL    C97 4803   6.104   6.103   4.102  0.8154  0.4346  0.0309
   14MOL    C98 4804   6.126   6.251   4.085 -0.3188 -0.8561  0.0531
   14MOL    O99 4805   6.066   6.302   4.198 -0.4293 -0.1845  0.4775
   14MOL   H100 4806   6.315   5.716   4.250  1.2532  0.4361 -0.1898
   14MOL   H101 4807   6.410   5.868   4.252  0.4623 -0.9059  0.8638
   14MOL   H102 4808   6.119   5.855   4.180  0.3829 -1.3031  0.1256
   14MOL   H103 4809   6.254   5.870   4.073 -0.2805 -0.2658  0.4068
   14MOL   H104 4810   6.309   6.090   4.167 -0.5491 -2.1217 -0.0094
   14MOL   H105 4811   6.186   6.081   4.290  0.9202 -0.2834  0.6409
   14MOL   H106 4812   6.005   6.079   4.140  1.1754 -0.7962  0.2121
   14MOL   H107 4813   6.101   6.051   4.006 -1.4210 -0.7479  0.7183
   14MOL   H108 4814   6.233   6.269   4.074 -0.4458 -0.4341 -0.4972
   14MOL   H109 4815   6.080   6.293   3.996 -2.6970 -1.3847  1.0114
   14MOL   C110 4816   6.015   6.427   4.188  0.2356 -0.0811  0.1500
   14MOL   O111 4817   5.999   6.492   4.081  0.3778 -0.1069 -0.4103
   14MOL   C112 4818   5.974   6.487   4.320 -0.0616  0.0970  0.6730
   14MOL   C113 4819   6.063   6.598   4.360 -0.1981 -0.7816  0.5617
   14MOL   C114 4820   6.047   6.643   4.507 -0.0734  0.3757  0.1817
   14MOL   C115 4821   6.144   6.747   4.567 -0.4693  0.1472 -0.1082
   14MOL   C116 4822   6.086   6.809   4.690  0.0392 -0.3294  0.6988
   14MOL   O117 4823   6.156   6.926   4.726  0.4599  0.5353  0.1133
   14MOL   H118 4824   5.968   6.407   4.393 -2.9470  0.5204  0.9668
   14MOL   H119 4825   5.876   6.535   4.309 -0.9295 -1.7396  0.1522
   14MOL   H120 4826   6.052   6.682   4.291 -0.6915 -0.2698  1.2638
   14MOL   H121 4827   6.166   6.564   4.345  0.1795  0.7616 -0.4185
   14MOL   H122 4828   6.063   6.549   4.559 -0.0123 -0.3062 -1.0352
   14MOL   H123 4829   5.947   6.685   4.514  0.0953  1.1623 -1.7272
   14MOL   H124 4830   6.159   6.826   4.493 -0.2418 -0.7435 -1.0213
   14MOL   H125 4831   6.242   6.711   4.598  0.2072  2.9465  1.1687
   14MOL   H126 4832   5.985   6.847   4.679  0.2341  0.5412  1.8000
   14MOL   H127 4833   6.078   6.733   4.767  1.5280  0.4413  1.6390
   14MOL   C128 4834   6.124   6.987   4.846  0.4915  0.3629  0.0872
   14MOL   O129 4835   6.050   6.944   4.940  0.3109  0.0060  0.7159
   14MOL   C130 4836   6.190   7.120   4.857 -0.1043  0.2011  0.1513
   14MOL   C131 4837   6.136   7.224   4.757  0.9831 -0.9644  0.2752
   14MOL   C132 4838   6.218   7.356   4.756  0.4871 -0.2962 -0.7152
   14MOL   C133 4839   6.172   7.465   4.656 -0.4609  0.3156  0.8526
   14MOL   C134 4840   6.247   7.599   4.682  0.1107  0.6171 -0.1748
   14MOL   O135 4841   6.202   7.660   4.798  0.3173 -0.6549  0.2648
   14MOL   H136 4842   6.298   7.105   4.849  0.2470  1.1372  2.5777
   14MOL   H137 4843   6.174   7.149   4.961  1.4565 -0.2107  0.5153
   14MOL   H138 4844   6.029   7.236   4.772  1.0123 -0.9778  0.4893
   14MOL   H139 4845   6.147   7.195   4.652 -1.6516 -2.0636  0.2607
   14MOL   H140 4846   6.322   7.329   4.741  0.9563  1.2041 -0.1965
   14MOL   H141 4847   6.217   7.400   4.856  1.0361 -1.7879 -0.0268
   14MOL   H142 4848   6.064   7.472   4.667 -0.5965 -1.4938  0.7367
   14MOL   H143 4849   6.191   7.433   4.554 -1.3199  1.3551  0.3613
   14MOL   H144 4850   6.354   7.583   4.677  0.1652  0.6168  0.9380
   14MOL   H145 4851   6.224   7.671   4.603 -3.5080  2.3775  2.3196
   14MOL   C146 4852   6.092   7.737   4.786 -0.0239 -0.3822  0.0309
   14MOL   O147 4853   6.012   7.729   4.689  0.5815  0.0011 -0.3747
   14MOL   C148 4854   6.071   7.835   4.901 -1.1252  0.4406 -0.0360
   14MOL   C149 4855   5.971   0.105   4.873  0.3300  0.0662  0.5721
   14MOL   C150 4856   6.005   0.228   4.948  0.1672  0.0144  0.3545
   14MOL   C151 4857   6.123   0.306   4.902  1.2363  0.1190  0.5256
   14MOL   C152 4858   6.100   0.434   4.810  0.5684 -0.0785  0.6760
   14MOL   O153 4859   6.053   0.547   4.893  0.3532  0.0836  0.0094
   14MOL   H154 4860   6.173   0.027   4.908 -1.2333  0.8848 -0.7071
   14MOL   H155 4861   6.051   7.777   4.991  2.1368  0.9284  1.0664
   14MOL   H156 4862   5.873   0.067   4.903 -0.4213  2.7408  1.6460
   14MOL   H157 4863   5.947   0.129   4.769  2.0071  0.2908  0.2287
   14MOL   H158 4864   6.000   0.216   5.057  1.5390  0.0861  0.4255
   14MOL   H159 4865   5.927   0.298   4.918 -0.1681 -0.8433 -0.7969
   14MOL   H160 4866   6.204   0.241   4.867  0.1555 -0.6268 -0.6132
   14MOL   H161 4867   6.153   0.351   4.997  1.3690  1.2234 -0.0402
   14MOL   H162 4868   6.196   0.469   4.772 -0.5997  1.1483 -1.2047
   14MOL   H163 4869   6.024   0.417   4.734 -0.3772  0.3634  1.5103
   14MOL   C164 4870   6.140   0.640   4.923  0.2491  0.4589  0.4904
   14MOL   O165 4871   6.248   0.663   4.867  0.2831 -0.8205 -0.5404
   14MOL   C166 4872   6.079   0.739   5.028 -0.0093  0.3705 -0.3795
   14MOL   C167 4873   6.033   0.666   5.161  0.3499  0.5410  0.3088
   14MOL   C168 4874   5.896   0.606   5.152  0.3673 -0.1131 -0.7210
   14MOL   C169 4875   5.837   0.577   5.292  0.3421 -0.5869 -0.1332
   14MOL   C170 4876   5.697   0.504   5.289  0.5336  0.2966  0.1721
   14MOL   O171 4877   5.714   0.375   5.229 -0.6173 -0.4397 -0.1254
   14MOL   H172 4878   5.987   0.783   4.989 -0.4892  1.1430  1.5195
   14MOL   H173 4879   6.146   0.823   5.049  0.6807 -0.0159 -1.0413
   14MOL   H174 4880   6.025   0.744   5.238  1.4365 -0.0990  1.0901
   14MOL   H175 4881   6.110   0.593   5.187 -0.9798 -0.3345  1.9575
   14MOL   H176 4882   5.897   0.517   5.089  1.8275 -1.6664  1.4090
   14MOL   H177 4883   5.836   0.682   5.103 -1.0890 -0.7619  0.0245
   14MOL   H178 4884   5.820   0.673   5.341 -0.5553 -1.0606  0.4957
   14MOL   H179 4885   5.906   0.524   5.356 -1.1017  2.1274  3.8640
   14MOL   H180 4886   5.651   0.503   5.387  1.4335  0.5261  0.6012
   14MOL   H181 4887   5.622   0.554   5.227 -0.3813 -1.1720  0.0684
   14MOL   C182 4888   5.721   0.266   5.307  0.1495 -0.0304 -0.1939
   14MOL   O183 4889   5.714   0.268   5.433  0.4860 -0.4161 -0.2284
   14MOL   C184 4890   5.714   0.145   5.218  0.3324 -0.4597  0.0407
   14MOL   C185 4891   5.697   0.016   5.301 -0.1779 -0.5684  0.1402
   14MOL   C186 4892   5.561   7.822   5.361 -0.2888 -0.5156  1.0806
   14MOL   C187 4893   5.587   7.725   5.482  0.2816 -0.5535 -0.1849
   14MOL   C188 4894   5.457   7.666   5.540  0.6452 -0.1008 -0.0258
   14MOL   O189 4895   5.490   7.556   5.629 -0.8918  0.4987  0.0175
   14MOL   H190 4896   5.810   0.139   5.167 -0.6666  1.0437 -2.0456
   14MOL   H191 4897   5.632   0.140   5.146  0.2670  1.8602 -0.0635
   14MOL   H192 4898   5.771   0.016   5.382 -0.6221  0.6898  0.5512
   14MOL   H193 4899   5.722   7.774   5.239  1.5855  0.3640 -0.4757
   14MOL   H194 4900   5.500   7.768   5.288 -0.0874 -2.1794  2.1432
   14MOL   H195 4901   5.507   0.062   5.404 -0.4552 -0.9917  1.8109
   14MOL   H196 4902   5.646   7.777   5.558  1.1770 -1.6786 -0.1000
   14MOL   H197 4903   5.648   7.641   5.449  0.3279 -0.4945 -0.2499
   14MOL   H198 4904   5.394   7.733   5.597  3.4146  2.9751 -0.4172
   14MOL   H199 4905   5.390   7.618   5.469  0.7906 -1.8296  0.9729
   14MOL   C200 4906   5.477   7.574   5.762  0.3882  0.3865  0.2850
   14MOL   O201 4907   5.443   7.676   5.819  0.3737  1.1819 -0.3790
   14MOL   C202 4908   5.512   7.449   5.844 -0.4277  0.4116 -0.0658
   14MOL   C203 4909   5.396   7.362   5.889  0.7981 -0.3332  0.5486
   14MOL   C204 4910   5.329   7.280   5.776 -0.2534 -0.3506 -0.0635
   14MOL   C205 4911   5.202   7.208   5.815 -0.1784  0.0681 -0.3780
   14MOL   C206 4912   5.123   7.156   5.691 -0.0300  0.1305  0.1131
   14MOL   O207 4913   5.199   7.064   5.613 -0.3045 -0.3113 -0.6658
   14MOL   H208 4914   5.565   7.492   5.929  1.6559 -1.1535 -0.5300
   14MOL   H209 4915   5.592   7.394   5.793  0.1473  0.6020  0.6220
   14MOL   H210 4916   5.327   7.438   5.923  1.2830  0.3588  0.0111
   14MOL   H211 4917   5.434   7.309   5.977 -2.4745  0.6858  2.6315
   14MOL   H212 4918   5.398   7.200   5.749 -1.9258 -1.9161  0.1959
   14MOL   H213 4919   5.303   7.348   5.695 -0.9892 -1.4069 -0.7232
   14MOL   H214 4920   5.131   7.279   5.858 -1.7942 -1.5574 -0.2645
   14MOL   H215 4921   5.215   7.122   5.881 -1.0932 -0.7624 -1.2563
   14MOL   H216 4922   5.031   7.108   5.723  0.3896 -0.3825  0.5780
   14MOL   H217 4923   5.106   7.243   5.629 -0.0852  0.4594  0.5894
   14MOL   C218 4924   5.136   6.951   5.570 -0.0023  0.7887 -0.5422
   14MOL   O219 4925   5.022   6.915   5.603  0.3055 -0.0486  0.5419
   14MOL   C220 4926   5.223   6.871   5.481  0.2955  0.0519  0.3795
   14MOL   C221 4927   5.369   6.845   5.519  0.0048  0.5383  0.7797
   14MOL   C222 4928   5.449   6.778   5.411  0.4097  0.3491  0.6142
   14MOL   C223 4929   5.598   6.774   5.429  0.4428 -0.0990 -0.4456
   14MOL   C224 4930   5.661   6.689   5.321  0.7707 -0.1273 -0.0250
   14MOL   O225 4931   5.610   6.555   5.317  0.0901 -0.0357 -0.0751
   14MOL   H226 4932   5.220   6.924   5.385  2.8415  0.1689  0.3497
   14MOL   H227 4933   5.172   6.775   5.473 -1.5303  0.7079  3.3541
   14MOL   H228 4934   5.368   6.773   5.601 -1.6823  1.1204  1.2971
   14MOL   H229 4935   5.412   6.940   5.548  1.7232 -0.6547  2.2662
   14MOL   H230 4936   5.420   6.824   5.316 -1.1412  0.4571  1.1176
   14MOL   H231 4937   5.408   6.678   5.398 -1.7836  1.3551 -0.5402
   14MOL   H232 4938   5.615   6.746   5.533 -0.6331  2.6734  0.5242
   14MOL   H233 4939   5.631   6.878   5.433  1.2712 -0.3191 -1.4914
   14MOL   H234 4940   5.662   6.740   5.225 -0.3928  1.3222  0.7289
   14MOL   H235 4941   5.768   6.678   5.341  1.2423 -0.9258 -2.7390
   14MOL   C236 4942   5.557   6.509   5.211 -0.5029  0.0620  0.2737
   14MOL   O237 4943   5.539   6.573   5.113 -0.0718 -0.0698  0.5618
   14MOL   C238 4944   5.540   6.356   5.218 -0.3281  0.3162 -0.5545
   14MOL   C239 4945   5.414   6.308   5.147 -0.0789 -0.3442  0.0661
   14MOL   C240 4946   5.431   6.290   4.991  0.0016  0.1140  0.8798
   14MOL   C241 4947   5.508   6.161   4.948 -0.3480 -0.6388  0.0853
   14MOL   C242 4948   5.534   6.148   4.796 -0.0976 -0.6978  0.2004
   14MOL   O243 4949   5.589   6.269   4.741  0.0476 -0.0594  0.6169
   14MOL   H244 4950   5.541   6.327   5.323  3.2001  0.2918 -0.5353
   14MOL   H245 4951   5.624   6.296   5.181 -0.2818 -0.5404  0.8707
   14MOL   H246 4952   5.337   6.383   5.167 -1.4848 -1.6374 -0.3441
   14MOL   H247 4953   5.366   6.221   5.192 -1.9784  0.8037  0.3035
   14MOL   H248 4954   5.487   6.376   4.953 -0.4558 -0.3241 -0.7943
   14MOL   H249 4955   5.333   6.280   4.945 -0.0919  0.3954  1.0165
   14MOL   H250 4956   5.481   6.062   4.986  1.0426 -2.3155 -3.1333
   14MOL   H251 4957   5.605   6.180   4.996 -1.3841  1.8001  1.2940
   14MOL   H252 4958   5.600   6.065   4.772  3.3557  1.7442  0.8493
   14MOL   H253 4959   5.437   6.129   4.749 -0.3709 -1.1927  0.9647
   14MOL   C254 4960   5.714   6.275   4.707 -1.0138 -0.3928  0.0094
   14MOL   O255 4961   5.798   6.191   4.737  0.7846  0.0809  0.1637
   14MOL   C256 4962   5.744   6.408   4.642 -0.5030 -0.1248  0.0325
   14MOL   C257 4963   5.735   6.521   4.756 -0.5744  0.4746  0.1128
   14MOL   C258 4964   5.853   6.532   4.859  0.8752  0.7831  0.6548
   14MOL   C259 4965   5.848   6.657   4.947  0.0202 -0.0797  0.8814
   14MOL   C260 4966   5.958   6.671   5.055 -0.8644 -0.1758  0.0630
   14MOL   O261 4967   5.936   6.561   5.137 -0.3325  0.5188 -0.7336
   14MOL   H262 4968   5.667   6.423   4.565 -2.2770 -0.5758  1.6826
   14MOL   H263 4969   5.844   6.405   4.600  0.5392 -0.9656  2.5104
   14MOL   H264 4970   5.643   6.507   4.814 -1.1031  0.2530 -0.7672
   14MOL   H265 4971   5.727   6.618   4.706 -3.7138  0.8807  1.2978
   14MOL   H266 4972   5.954   6.524   4.820 -0.0683  0.9685 -1.8628
   14MOL   H267 4973   5.836   6.455   4.935 -1.9948  1.9146  1.2603
   14MOL   H268 4974   5.753   6.655   5.000  0.1531 -1.0612  1.0938
   14MOL   H269 4975   5.845   6.744   4.882 -1.9185 -0.3762  0.5336
   14MOL   H270 4976   6.053   6.673   5.002 -1.0215 -0.4509 -0.2341
   14MOL   H271 4977   5.933   6.761   5.111  2.3438 -0.6651  2.4033
   14MOL   C272 4978   6.036   6.533   5.228 -0.0421  0.5983  0.9874
   14MOL   O273 4979   6.145   6.596   5.240  0.1386 -0.0417  0.6255
   14MOL   C274 4980   5.998   6.412   5.318  0.1227 -0.9002  0.3506
   14MOL   C275 4981   6.121   6.357   5.393 -0.1748  0.4831 -0.3363
   14MOL   C276 4982   6.206   6.258   5.315 -0.2849 -0.3725 -0.3255
   14MOL   C277 4983   6.299   6.169   5.404 -0.6118 -0.8470 -0.7531
   14MOL   C278 4984   6.380   6.071   5.317 -0.4614  0.4594 -0.2361
   14MOL   O279 4985   6.462   6.129   5.208 -0.3216  0.5946 -0.5444
   14MOL   H280 4986   5.974   6.330   5.250  0.0234 -1.1202  0.6502
   14MOL   H281 4987   5.913   6.426   5.386  0.0251 -1.1916  0.2901
   14MOL   H282 4988   6.084   6.306   5.481 -1.0482 -2.3847 -2.2911
   14MOL   H283 4989   6.190   6.437   5.418 -0.2009  0.9729 -1.7790
   14MOL   H284 4990   6.258   6.300   5.228 -0.6613 -2.7031 -1.7280
   14MOL   H285 4991   6.138   6.180   5.281 -2.3379 -0.0457  2.8287
   14MOL   H286 4992   6.242   6.117   5.480 -0.8557  0.3497 -0.1025
   14MOL   H287 4993   6.366   6.229   5.466 -1.6119  0.1750 -0.6583
   14MOL   H288 4994   6.428   6.006   5.391 -2.1573 -2.9149 -1.9906
   14MOL   H289 4995   6.303   6.009   5.272 -1.5169  1.9800 -0.5538
   14MOL   C290 4996   6.586   6.090   5.197 -0.0148  0.0227  0.4300
   14MOL   O291 4997   6.653   6.023   5.277 -0.4514 -0.2125  0.3678
   14MOL   C292 4998   6.644   6.137   5.065 -0.3487 -0.0154 -0.6234
   14MOL   C293 4999   6.557   6.105   4.939 -0.0843 -0.1880  0.3926
   14MOL   C294 5000   6.537   5.948   4.924  0.2475  0.1135  0.1222
   14MOL   C295 5001   6.467   5.919   4.793  0.6589 -0.9693  0.4708
   14MOL   C296 5002   6.410   5.778   4.776  0.1918  0.3033  0.8643
   14MOL   O297 5003   6.305   5.738   4.865 -0.1394 -0.3668 -0.3291
   14MOL   H298 5004   6.749   6.109   5.062 -0.9706 -2.2992 -2.5775
   14MOL   H299 5005   6.646   6.246   5.066 -1.1452 -0.0055 -0.2605
   14MOL   H300 5006   6.611   6.145   4.853 -0.4170 -1.5700 -0.4787
   14MOL   H301 5007   6.459   6.151   4.951 -0.7962 -1.7404  0.6297
   14MOL   H302 5008   6.484   5.904   5.008  1.9520  0.2576  1.3120
   14MOL   H303 5009   6.631   5.895   4.910 -1.2529 -2.7349  0.5670
   14MOL   H304 5010   6.531   5.942   4.708  0.5057 -0.8994  0.3742
   14MOL   H305 5011   6.386   5.990   4.776  1.2053 -0.4802 -0.0561
   14MOL   H306 5012   6.367   5.769   4.676 -0.0714 -2.1606  1.1687
   14MOL   H307 5013   6.486   5.700   4.776  0.4982  0.6008  1.0767
   14MOL   C308 5014   6.218   5.643   4.832 -0.3424  0.7234  0.5243
   14MOL   O309 5015   6.210   5.570   4.729 -0.1812 -0.2750  0.8725
   14MOL   C310 5016   6.126   5.627   4.952 -0.0274 -0.6343  0.1303
   14MOL   C311 5017   6.020   5.517   4.939  0.4491  0.2467 -0.3177
   14MOL   C312 5018   6.069   5.376   4.948 -0.2229 -0.3006 -0.7318
   14MOL   C313 5019   5.975   5.264   4.920 -0.1617  0.3022  0.7775
   14MOL   C314 5020   6.034   5.127   4.902 -0.4554 -0.1221 -0.0039
   14MOL   O315 5021   6.077   5.081   5.025  0.6660 -0.2552  0.1420
   14MOL   H316 5022   6.089   5.720   4.995  1.4692 -0.0401  0.1759
   14MOL   H317 5023   6.191   5.608   5.038  1.4265  2.7830 -0.1467
   14MOL   H318 5024   5.963   5.539   4.849 -2.6321 -5.1992  0.1230
   14MOL   H319 5025   5.945   5.536   5.016  1.4645 -0.9868  1.0017
   14MOL   H320 5026   6.118   5.360   5.045  2.1322 -0.0007 -1.8497
   14MOL   H321 5027   6.144   5.367   4.870  0.4511  4.9208 -0.8260
   14MOL   H322 5028   5.918   5.284   4.829  0.8128  3.1107  0.7558
   14MOL   H323 5029   5.902   5.255   5.000 -1.3239 -3.1185 -0.5842
   14MOL   H324 5030   5.946   5.069   4.877 -0.5554 -0.1264  0.3503
   14MOL   H325 5031   6.112   5.123   4.826 -0.5748 -0.1828 -0.1228
   14MOL   C326 5032   6.111   4.955   5.041 -0.4197 -0.1686 -0.3576
   14MOL   O327 5033   6.126   4.864   4.962  0.4447 -0.1903 -0.3570
   14MOL   C328 5034   6.138   4.929   5.190 -0.8287 -0.0696  1.0183
   14MOL   C329 5035   6.128   4.780   5.226 -0.3547 -0.1137 -0.4644
   14MOL   C330 5036   6.005   4.703   5.191  0.1501 -0.1661 -0.4032
   14MOL   C331 5037   5.991   4.559   5.252  0.3063 -0.1012  0.6012
   14MOL   C332 5038   5.891   4.476   5.168 -0.6865 -0.1267 -0.3296
   14MOL   O333 5039   5.864   4.347   5.235  0.4310  0.1433  0.5529
   14MOL   H334 5040   6.056   4.980   5.242 -0.7627 -0.5446  1.6020
   14MOL   H335 5041   6.236   4.968   5.215 -0.3206  0.6829 -2.0666
   14MOL   H336 5042   6.153   4.766   5.331 -1.9872  0.7511  0.0630
   14MOL   H337 5043   6.202   4.730   5.164 -1.2737 -0.6950 -1.1069
   14MOL   H338 5044   5.987   4.693   5.084  0.8586  0.6136 -0.5981
   14MOL   H339 5045   5.930   4.768   5.236  0.8695  0.5868 -0.2808
   14MOL   H340 5046   5.954   4.565   5.354  0.0206  0.2309  0.4768
   14MOL   H341 5047   6.089   4.511   5.258  0.2206 -0.1421  1.9077
   14MOL   H342 5048   5.794   4.525   5.157  0.4731  2.2699 -0.1166
   14MOL   H343 5049   5.930   4.460   5.068  3.1952  1.2105  0.9085
   14MOL   C344 5050   5.815   4.247   5.166 -1.0721  0.2348  0.2323
   14MOL   O345 5051   5.786   4.252   5.046  0.0513 -0.4314  0.1527
   14MOL   C346 5052   5.785   4.121   5.239 -0.6990 -0.2919  0.6696
   14MOL   C347 5053   5.654   4.131   5.324 -0.1267  0.4049  0.1090
   14MOL   C348 5054   5.529   4.157   5.238 -0.3368 -0.0005  0.0544
   14MOL   C349 5055   5.506   4.024   5.158 -0.0997  0.0560 -0.2717
   14MOL   C350 5056   5.372   4.031   5.085 -0.5218  0.4442 -0.4179
   14MOL   O351 5057   5.270   4.007   5.178  0.0328 -0.1163 -0.4712
   14MOL   H352 5058   5.866   4.109   5.310 -0.2517  0.2278  0.2576
   14MOL   H353 5059   5.792   4.043   5.163  3.2368 -0.2537  0.8815
   14MOL   H354 5060   5.669   4.217   5.390 -0.0479 -0.1750  0.8552
   14MOL   H355 5061   5.641   4.045   5.390 -0.6478 -0.8219 -1.5813
   14MOL   H356 5062   5.538   4.240   5.168 -0.0587 -3.1763 -3.9246
   14MOL   H357 5063   5.441   4.162   5.301 -0.3113  0.8491  0.0222
   14MOL   H358 5064   5.518   3.940   5.227  0.6474  1.9710  1.9942
   14MOL   H359 5065   5.590   4.014   5.090  1.2033 -1.1555  1.4457
   14MOL   H360 5066   5.362   4.125   5.031 -0.4030  1.1982  0.8408
   14MOL   H361 5067   5.367   3.950   5.012 -1.2122 -0.4913  0.6341
   14MOL   H362 5068   5.260   3.915   5.195 -1.6414  0.3856  1.3469
   15MOL     C1 5069   0.336   0.454   0.187  0.2314 -1.0073  0.4934
   15MOL     O2 5070   0.344   0.390   0.086 -0.2152 -0.1739 -0.5161
   15MOL     C3 5071   0.203   0.523   0.225 -0.4011 -0.3032  0.2781
   15MOL     C4 5072   0.193   0.663   0.162 -0.0813  0.6203  0.2573
   15MOL     C5 5073   0.057   0.727   0.188 -0.0958  0.5323  0.7288
   15MOL     C6 5074   0.028   0.735   0.343  0.0933 -0.2801 -0.1951
   15MOL     C7 5075   7.736   0.791   0.394 -0.5608 -0.3867 -0.3322
   15MOL     O8 5076   7.714   0.915   0.338 -0.6519 -0.1821 -0.3460
   15MOL     H9 5077   0.194   0.526   0.334  1.8245  0.0588  0.4689
   15MOL    H10 5078   0.121   0.463   0.185  0.3592 -2.7059  2.1766
   15MOL    H11 5079   0.209   0.652   0.054 -1.6633 -0.2665  0.0953
   15MOL    H12 5080   0.272   0.723   0.206  0.7040  0.1739 -0.5251
   15MOL    H13 5081   7.817   0.675   0.143 -2.2894  2.4834  2.4610
   15MOL    H14 5082   0.041   0.830   0.154 -0.3612  0.3527  0.3131
   15MOL    H15 5083   0.108   0.794   0.387  0.9218 -1.1412 -0.5147
   15MOL    H16 5084   0.032   0.636   0.388  3.0991 -0.2169 -0.2076
   15MOL    H17 5085   7.661   0.718   0.362 -1.8883  0.1596  1.4612
   15MOL    H18 5086   7.739   0.801   0.503  0.7090 -1.0730 -0.3042
   15MOL    H19 5087   0.422   0.470   0.252  1.1843  0.7407 -1.1259
   15MOL    C20 5088   7.600   0.947   0.282 -0.0609 -0.2061 -0.2003
   15MOL    O21 5089   7.499   0.874   0.266 -0.6818 -0.3695 -0.3176
   15MOL    C22 5090   7.603   1.085   0.229 -0.9139 -0.3724 -0.4803
   15MOL    C23 5091   7.676   1.103   0.100 -0.1236 -1.0116  0.3979
   15MOL    C24 5092   7.658   1.244   0.047 -0.8004 -0.0639 -0.7778
   15MOL    C25 5093   7.727   1.268   7.757 -0.1483  0.8286  0.4060
   15MOL    C26 5094   7.686   1.398   7.679 -0.7857  0.0567  0.4878
   15MOL    O27 5095   7.763   1.407   7.556  0.2846  0.0389  0.3285
   15MOL    H28 5096   7.658   1.133   0.310  1.6433 -2.4486 -0.9288
   15MOL    H29 5097   7.505   1.132   0.239 -1.1882 -0.8876 -0.7563
   15MOL    H30 5098   7.634   1.038   0.022  0.4188 -1.1271  0.1986
   15MOL    H31 5099   7.779   1.071   0.114  0.4471 -0.5511 -2.4226
   15MOL    H32 5100   7.712   1.303   0.121  3.2968 -3.0007 -1.2279
   15MOL    H33 5101   7.553   1.273   0.045 -0.5363  0.8760 -4.1066
   15MOL    H34 5102   7.729   1.176   7.698  0.0584  0.1087  1.4972
   15MOL    H35 5103   7.834   1.283   7.774  0.0351  2.0943 -1.7288
   15MOL    H36 5104   7.579   1.392   7.661 -0.9515  2.8524  0.3108
   15MOL    H37 5105   7.700   1.483   7.745  0.1113 -0.2268  0.6669
   15MOL    C38 5106   7.758   1.520   7.490 -0.0188  0.3216 -0.5590
   15MOL    O39 5107   7.706   1.622   7.527 -0.4117  0.1755  0.1656
   15MOL    C40 5108   7.837   1.519   7.359 -0.1310  0.6565 -0.8897
   15MOL    C41 5109   0.013   1.652   7.298 -0.8556 -0.3195  0.4850
   15MOL    C42 5110   0.096   1.632   7.168  0.5075  0.7101  0.1879
   15MOL    C43 5111   0.193   1.746   7.131 -0.1540 -0.1669 -0.4804
   15MOL    C44 5112   0.287   1.725   7.011  0.9911 -0.3343  0.2260
   15MOL    O45 5113   0.365   1.848   7.009  0.0002 -0.4208 -0.3278
   15MOL    H46 5114   7.790   1.454   7.286 -0.2323  0.4076 -0.6077
   15MOL    H47 5115   0.090   1.481   7.389 -0.3126 -0.0962 -1.2440
   15MOL    H48 5116   0.050   1.723   7.372  0.2993  0.5046 -0.8601
   15MOL    H49 5117   7.762   1.696   7.268  0.1107  2.0585  0.7908
   15MOL    H50 5118   0.019   1.630   7.091  0.4133  0.8652  0.2779
   15MOL    H51 5119   0.148   1.539   7.148 -1.0255 -0.0895 -0.1589
   15MOL    H52 5120   0.266   1.750   7.212  1.7472 -1.3142 -2.0862
   15MOL    H53 5121   0.134   1.837   7.121  0.9019  0.5815  0.0608
   15MOL    H54 5122   0.351   1.637   7.021  1.4088 -0.1429 -0.7765
   15MOL    H55 5123   0.225   1.720   6.922 -1.2966 -3.3211  1.8855
   15MOL    C56 5124   0.467   1.860   6.921 -0.0563  0.6942 -0.4472
   15MOL    O57 5125   0.496   1.781   6.834 -0.1695  0.0265  0.6118
   15MOL    C58 5126   0.545   1.993   6.934  0.0546 -0.2300 -0.4140
   15MOL    C59 5127   0.482   2.099   7.018 -0.1511 -0.0414  0.3811
   15MOL    C60 5128   0.353   2.169   6.955 -0.7808 -0.0035  0.0965
   15MOL    C61 5129   0.270   2.227   7.068  0.3357  0.0415 -0.2506
   15MOL    C62 5130   0.148   2.317   7.033 -0.4126 -0.0868  0.2785
   15MOL    O63 5131   0.185   2.455   7.009  0.5580  0.5359  0.2827
   15MOL    H64 5132   0.557   2.022   6.829 -0.4138 -2.2571 -1.0578
   15MOL    H65 5133   0.645   1.972   6.970  0.3384  1.1374 -0.3950
   15MOL    H66 5134   0.558   2.177   7.022 -0.8877  0.7329 -0.5179
   15MOL    H67 5135   0.474   2.072   7.123 -0.3083  0.9042  0.6154
   15MOL    H68 5136   0.290   2.108   6.890  0.4529 -1.0680 -0.1088
   15MOL    H69 5137   0.376   2.247   6.882 -3.0809  0.6907  0.0583
   15MOL    H70 5138   0.335   2.271   7.143 -0.3233  2.0305 -0.8232
   15MOL    H71 5139   0.219   2.143   7.115  0.9638 -1.2606 -1.8603
   15MOL    H72 5140   0.098   2.286   6.941  0.1889  0.3575 -0.2075
   15MOL    H73 5141   0.068   2.311   7.107  0.8049 -0.7261  1.5503
   15MOL    C74 5142   0.213   2.525   7.111  0.1445 -0.5203  0.0009
   15MOL    O75 5143   0.211   2.486   7.228 -0.6109  0.3007  0.2501
   15MOL    C76 5144   0.232   2.666   7.072 -0.5632 -0.0478 -0.3288
   15MOL    C77 5145   0.304   2.757   7.178 -0.4604  0.3155 -0.5886
   15MOL    C78 5146   0.339   2.903   7.126 -0.1504 -0.1876  0.3001
   15MOL    C79 5147   0.410   2.982   7.236  0.2664  0.3110  0.2983
   15MOL    C80 5148   0.452   3.121   7.188  0.0274  0.0356  0.6991
   15MOL    O81 5149   0.485   3.184   7.308  0.3386  0.1247 -0.1369
   15MOL    H82 5150   0.142   2.720   7.042 -0.5280  0.9532  1.2577
   15MOL    H83 5151   0.298   2.658   6.986  1.1694  0.3248  0.9358
   15MOL    H84 5152   0.392   2.711   7.224 -1.5818 -0.9958  0.3268
   15MOL    H85 5153   0.234   2.777   7.260 -0.7500  3.8398 -1.6072
   15MOL    H86 5154   0.249   2.958   7.099 -0.4745  0.1184  1.9469
   15MOL    H87 5155   0.396   2.884   7.035 -1.3887 -0.0537 -0.5101
   15MOL    H88 5156   0.502   2.929   7.263 -0.7244 -1.4228  0.3704
   15MOL    H89 5157   0.351   2.987   7.327 -0.1470 -1.1694  0.1228
   15MOL    H90 5158   0.530   3.127   7.112  0.2514  2.2388  1.0603
   15MOL    H91 5159   0.360   3.161   7.145 -0.0172 -1.2153 -0.4133
   15MOL    C92 5160   0.485   3.316   7.321 -1.3476 -0.2477  0.2282
   15MOL    O93 5161   0.488   3.400   7.229 -0.0032 -0.1589 -0.0114
   15MOL    C94 5162   0.503   3.357   7.470 -0.3104  0.3649  0.0206
   15MOL    C95 5163   0.381   3.324   7.559  0.3214  0.2647 -0.2138
   15MOL    C96 5164   0.339   3.168   7.567  0.4708  0.4101  0.0224
   15MOL    C97 5165   0.262   3.146   7.698  0.4139  0.4893  0.0086
   15MOL    C98 5166   0.148   3.032   7.669  0.4789  0.2566  0.4122
   15MOL    O99 5167   0.201   2.922   7.605  0.1888  0.1517 -0.2447
   15MOL   H100 5168   0.504   3.466   7.470  0.8134  0.3910 -2.3080
   15MOL   H101 5169   0.596   3.313   7.503 -1.5727 -1.0137  1.8078
   15MOL   H102 5170   0.293   3.385   7.540 -0.1039 -0.1526  0.4164
   15MOL   H103 5171   0.405   3.350   7.662 -0.1741 -1.5534  0.3646
   15MOL   H104 5172   0.423   3.100   7.582 -2.4108 -2.7130  2.5171
   15MOL   H105 5173   0.286   3.129   7.481  2.4060 -2.7438  0.1678
   15MOL   H106 5174   0.219   3.231   7.750 -0.9456  0.2144 -0.6250
   15MOL   H107 5175   0.323   3.112   7.781 -0.5159 -1.1843  0.0246
   15MOL   H108 5176   0.091   3.007   7.759  1.1737  1.9706  1.3649
   15MOL   H109 5177   0.078   3.079   7.600  0.7508  3.4546  2.2147
   15MOL   C110 5178   0.257   2.824   7.669  0.4496 -0.1714  0.0278
   15MOL   O111 5179   0.277   2.812   7.790 -0.0484 -0.3292 -0.1549
   15MOL   C112 5180   0.313   2.722   7.573  0.0045 -0.1794  0.3580
   15MOL   C113 5181   0.387   2.598   7.621  0.3485  0.9284 -0.3276
   15MOL   C114 5182   0.305   2.507   7.721  0.2451  0.9958 -0.0202
   15MOL   C115 5183   0.388   2.380   7.758  0.5285  0.3736 -0.0455
   15MOL   C116 5184   0.314   2.267   7.827  0.0651 -0.9816 -0.1025
   15MOL   O117 5185   0.399   2.152   7.842  0.4053  0.1789 -0.5035
   15MOL   H118 5186   0.378   2.770   7.499  1.1098  0.0481  1.4586
   15MOL   H119 5187   0.228   2.687   7.515  0.5050 -1.1244  0.1717
   15MOL   H120 5188   0.483   2.620   7.669  0.3681 -0.4753  0.3017
   15MOL   H121 5189   0.400   2.540   7.530  1.4628  0.6596 -0.0007
   15MOL   H122 5190   0.213   2.480   7.669  2.0512 -0.0839 -2.7804
   15MOL   H123 5191   0.284   2.560   7.814 -0.9607 -2.3104  1.6528
   15MOL   H124 5192   0.475   2.424   7.807  1.2158  1.7944 -2.4303
   15MOL   H125 5193   0.439   2.344   7.668  2.0028  1.5306  0.2962
   15MOL   H126 5194   0.287   2.292   0.086  0.6526  0.1565 -0.2162
   15MOL   H127 5195   0.224   2.241   7.771  0.7052 -0.2864 -1.4538
   15MOL   C128 5196   0.346   2.027   0.010  0.4884  0.4503  0.0400
   15MOL   O129 5197   0.234   1.992   7.811  0.1198  0.4193  0.6110
   15MOL   C130 5198   0.442   1.930   0.075  0.3717  0.1291  0.0027
   15MOL   C131 5199   0.498   1.975   0.207  0.3948 -0.4786 -0.4187
   15MOL   C132 5200   0.587   1.868   0.277 -0.3827 -0.4651 -0.6137
   15MOL   C133 5201   0.625   1.924   0.416  0.8016  0.2260 -0.5045
   15MOL   C134 5202   0.742   1.843   0.471 -0.2649  0.4078  0.3619
   15MOL   O135 5203   0.765   1.897   0.598  0.2636 -0.7879  0.4268
   15MOL   H136 5204   0.505   1.891   7.840  0.1099 -0.1533 -0.0684
   15MOL   H137 5205   0.379   1.843   0.095 -0.0449  0.1011 -1.3822
   15MOL   H138 5206   0.413   2.010   0.266  0.0532 -0.0622 -1.1526
   15MOL   H139 5207   0.555   2.068   0.199 -0.1669  0.1696  2.5911
   15MOL   H140 5208   0.670   1.861   0.206 -0.8512  0.0139 -1.2182
   15MOL   H141 5209   0.534   1.773   0.287 -1.2318  0.0773  0.0638
   15MOL   H142 5210   0.541   1.903   0.483  0.3648  0.7969 -0.8694
   15MOL   H143 5211   0.658   2.027   0.414  1.0784  0.1537  0.4417
   15MOL   H144 5212   0.719   1.740   0.495 -0.3266  0.2329 -0.4306
   15MOL   H145 5213   0.833   1.836   0.411  0.0656  3.2074  0.4401
   15MOL   C146 5214   0.856   1.993   0.622 -0.2757 -0.8239  0.0464
   15MOL   O147 5215   0.905   2.066   0.533 -0.6994 -0.2352  0.3196
   15MOL   C148 5216   0.880   2.033   0.768 -0.2382  0.3534  0.2723
   15MOL   C149 5217   0.795   2.159   0.802  0.5386  0.6546  0.5049
   15MOL   C150 5218   0.817   2.196   0.951 -0.2702 -0.0906 -0.6019
   15MOL   C151 5219   0.768   2.097   1.062  0.0883  0.4911 -0.5131
   15MOL   C152 5220   0.613   2.076   1.067 -0.6301  0.6724  0.2617
   15MOL   O153 5221   0.586   1.981   1.169 -0.0316 -0.0482  0.5987
   15MOL   H154 5222   0.987   2.051   0.767  0.1297 -1.7381 -0.3083
   15MOL   H155 5223   0.868   1.950   0.838 -0.1588  1.3477  1.4842
   15MOL   H156 5224   0.690   2.142   0.782  1.3609 -1.2245 -2.4995
   15MOL   H157 5225   0.825   2.241   0.737 -1.9793  1.2754  0.0719
   15MOL   H158 5226   0.767   2.293   0.962  0.6982  0.3622 -0.1694
   15MOL   H159 5227   0.919   2.228   0.971 -0.2496 -1.7842  2.1309
   15MOL   H160 5228   0.797   2.137   1.160 -1.6599 -1.6650  0.9243
   15MOL   H161 5229   0.816   2.001   1.045  1.4394  0.5998  2.3906
   15MOL   H162 5230   0.561   2.171   1.070 -2.1975 -0.1298 -0.7100
   15MOL   H163 5231   0.580   2.031   0.973 -3.1977 -0.6227  1.7366
   15MOL   C164 5232   0.527   2.023   1.288  0.4752 -0.1094  0.5570
   15MOL   O165 5233   0.486   2.137   1.313  0.5755 -0.1250 -0.5673
   15MOL   C166 5234   0.523   1.901   1.386  0.4452  0.5296  0.8264
   15MOL   C167 5235   0.436   1.779   1.351 -0.4605  0.0273  0.4981
   15MOL   C168 5236   0.443   1.657   1.444 -0.4679 -0.1580  0.0146
   15MOL   C169 5237   0.397   1.532   1.377  0.3022 -0.4832  0.0492
   15MOL   C170 5238   0.392   1.409   1.468  0.0031 -0.4852  0.2042
   15MOL   O171 5239   0.361   1.295   1.385  0.1352  0.1196  0.3405
   15MOL   H172 5240   0.487   1.937   1.483  0.7339 -0.9550  1.5059
   15MOL   H173 5241   0.625   1.867   1.402  0.3379 -0.8030 -1.1696
   15MOL   H174 5242   0.467   1.756   1.249  0.7142  2.2179  0.3208
   15MOL   H175 5243   0.333   1.815   1.353 -1.3423 -2.2495 -1.1876
   15MOL   H176 5244   0.380   1.685   1.528 -0.3479 -2.2701  0.8471
   15MOL   H177 5245   0.543   1.629   1.476 -0.1810 -2.5535 -2.7544
   15MOL   H178 5246   0.471   1.517   1.299  1.2160  1.4002  0.5120
   15MOL   H179 5247   0.309   1.561   1.321  0.0012 -0.1939  0.6607
   15MOL   H180 5248   0.495   1.408   1.504 -0.6037  0.5648  2.0732
   15MOL   H181 5249   0.325   1.427   1.552 -1.6020 -3.0631 -0.4800
   15MOL   C182 5250   0.303   1.191   1.437  0.1559 -0.9548  0.2407
   15MOL   O183 5251   0.261   1.190   1.554 -0.2088 -0.1550 -0.7644
   15MOL   C184 5252   0.316   1.065   1.348  0.4472  0.1266  0.3538
   15MOL   C185 5253   0.251   0.933   1.413 -0.9972  0.2695  0.7963
   15MOL   C186 5254   0.354   0.859   1.497 -0.2667 -0.1215  0.5934
   15MOL   C187 5255   0.292   0.738   1.552  0.4149  0.0528  0.2780
   15MOL   C188 5256   0.398   0.663   1.640  0.2595  0.0813  0.3631
   15MOL   O189 5257   0.518   0.631   1.562 -0.2483 -0.1342  0.2575
   15MOL   H190 5258   0.419   1.050   1.313 -0.0812 -0.9629 -0.7580
   15MOL   H191 5259   0.265   1.093   1.256  2.2893 -0.7444 -0.9691
   15MOL   H192 5260   0.226   0.864   1.333  1.3670 -0.0929  0.3483
   15MOL   H193 5261   0.158   0.957   1.465 -0.7607  2.4944  0.2828
   15MOL   H194 5262   0.388   0.926   1.576  2.7216 -0.7797 -0.0746
   15MOL   H195 5263   0.441   0.836   1.435 -0.1198  1.7278  0.0917
   15MOL   H196 5264   0.264   0.680   1.464  2.1184 -0.2176 -0.0870
   15MOL   H197 5265   0.203   0.746   1.615  0.0455 -0.4819 -0.1619
   15MOL   H198 5266   0.428   0.728   1.722 -0.7310  0.0415  0.7689
   15MOL   H199 5267   0.346   0.572   1.671 -2.2235  1.0800 -0.7514
   15MOL   C200 5268   0.626   0.581   1.627 -0.1601  0.2132 -0.1609
   15MOL   O201 5269   0.633   0.567   1.753  0.4946  0.3100 -0.1305
   15MOL   C202 5270   0.749   0.556   1.537  0.3598  0.7794  0.0258
   15MOL   C203 5271   0.864   0.478   1.601  0.1988 -0.1410 -0.1375
   15MOL   C204 5272   0.832   0.337   1.634 -0.1808 -0.1393 -0.9704
   15MOL   C205 5273   0.957   0.272   1.692 -0.0782  0.3248 -0.4632
   15MOL   C206 5274   0.925   0.127   1.724  0.3505 -0.4300  0.1461
   15MOL   O207 5275   0.878   0.057   1.607 -0.0377 -0.4038 -0.7225
   15MOL   H208 5276   0.782   0.657   1.513  0.9259  0.2545 -1.4398
   15MOL   H209 5277   0.716   0.500   1.450  0.5165  0.4660  0.1642
   15MOL   H210 5278   0.895   0.526   1.694  0.1439  2.6588 -1.5063
   15MOL   H211 5279   0.955   0.492   1.542  0.2100 -2.5590 -0.7150
   15MOL   H212 5280   0.799   0.284   1.545 -2.9326 -0.5933  0.2423
   15MOL   H213 5281   0.754   0.334   1.711  1.0299 -0.9631  0.2485
   15MOL   H214 5282   0.995   0.339   1.769  2.1815 -0.3029 -0.9980
   15MOL   H215 5283   1.038   0.283   1.620 -0.7781  1.1553 -1.1412
   15MOL   H216 5284   1.014   0.079   1.767  0.3080 -0.2032  0.4879
   15MOL   H217 5285   0.853   0.104   1.802 -0.9592 -0.3813 -1.0256
   15MOL   C218 5286   0.961   0.019   1.520 -0.2103  0.2168 -0.7771
   15MOL   O219 5287   1.084   0.036   1.525  0.6772 -0.0870  0.2307
   15MOL   C220 5288   0.910   7.758   1.419 -0.4812 -0.2194 -0.9172
   15MOL   C221 5289   0.795   7.810   1.339 -0.1561  0.1081  1.5756
   15MOL   C222 5290   0.845   0.054   1.224  0.5137  0.0650 -0.3538
   15MOL   C223 5291   0.750   0.066   1.105 -0.0610  0.0456 -0.0544
   15MOL   C224 5292   0.795   0.170   0.998 -0.1860  0.5516  0.0040
   15MOL   O225 5293   0.812   0.302   1.056  0.3154  0.0004  0.0872
   15MOL   H226 5294   0.873   7.673   1.477 -1.5296  0.7276 -0.1638
   15MOL   H227 5295   0.979   7.713   1.349 -0.7398 -3.1888  0.6497
   15MOL   H228 5296   0.735   0.036   1.397  0.1454  0.3389  1.6042
   15MOL   H229 5297   0.734   7.724   1.309  0.8040  0.0781 -0.3557
   15MOL   H230 5298   0.940   0.016   1.186  0.6006  0.3570 -0.4259
   15MOL   H231 5299   0.860   0.155   1.262 -1.0082  0.3856 -0.5608
   15MOL   H232 5300   0.649   0.090   1.139 -0.6512 -1.4174 -0.7392
   15MOL   H233 5301   0.727   7.819   1.051  1.2404  0.1410 -0.7970
   15MOL   H234 5302   0.889   0.129   0.963 -0.6686 -2.1527  1.6764
   15MOL   H235 5303   0.720   0.166   0.919  0.0101  0.7106 -0.1901
   15MOL   C236 5304   0.756   0.418   1.009  0.3669 -0.0463  0.3722
   15MOL   O237 5305   0.695   0.432   0.900  0.5716  0.6267  0.1460
   15MOL   C238 5306   0.772   0.542   1.098  0.2788  0.3437 -0.0804
   15MOL   C239 5307   0.649   0.621   1.138  0.0525  1.0317  0.2510
   15MOL   C240 5308   0.585   0.714   1.037  0.4160 -0.7967 -0.5188
   15MOL   C241 5309   0.454   0.777   1.099 -0.6180 -0.6376  0.5401
   15MOL   C242 5310   0.399   0.887   1.010 -0.2552 -0.2849 -0.2396
   15MOL   O243 5311   0.497   0.990   1.004  0.0627 -0.0445 -0.3447
   15MOL   H244 5312   0.846   0.607   1.050 -0.6826  0.4758 -1.3954
   15MOL   H245 5313   0.821   0.506   1.189  0.2590  0.4720 -0.0184
   15MOL   H246 5314   0.676   0.686   1.221  0.5890  2.3103 -0.9004
   15MOL   H247 5315   0.575   0.558   1.187  1.5656 -1.7162 -0.8918
   15MOL   H248 5316   0.562   0.652   0.951  1.8252 -3.2912  0.8675
   15MOL   H249 5317   0.665   0.781   1.007 -0.0344 -0.6157 -1.3437
   15MOL   H250 5318   0.465   0.814   1.201  1.4141  2.7647 -0.8132
   15MOL   H251 5319   0.378   0.699   1.104  0.2003 -1.5347 -0.6712
   15MOL   H252 5320   0.379   0.835   0.916  2.1561 -3.1718  0.7487
   15MOL   H253 5321   0.300   0.918   1.042  0.7692  1.7993  1.0393
   15MOL   C254 5322   0.482   1.098   0.924 -1.0645 -0.1372  0.2520
   15MOL   O255 5323   0.385   1.102   0.846 -0.0316 -0.0104  0.1615
   15MOL   C256 5324   0.601   1.197   0.920 -0.7009  1.4445 -0.0786
   15MOL   C257 5325   0.628   1.275   1.049  0.1964  0.4482  0.3716
   15MOL   C258 5326   0.703   1.205   1.154 -0.4161  0.1189  0.3322
   15MOL   C259 5327   0.707   1.274   1.291  0.9539  0.3689 -0.1857
   15MOL   C260 5328   0.758   1.183   1.397  0.1224  0.2529  0.2346
   15MOL   O261 5329   0.790   1.262   1.509  0.5791 -0.4436  0.5534
   15MOL   H262 5330   0.589   1.264   0.834  2.0085  1.8549 -0.1722
   15MOL   H263 5331   0.688   1.139   0.890 -2.6040 -1.1016 -0.8716
   15MOL   H264 5332   0.532   1.315   1.080  0.4377  0.5208  1.0399
   15MOL   H265 5333   0.685   1.366   1.028  1.0528  0.5384  2.9125
   15MOL   H266 5334   0.802   1.194   1.110 -1.1418  0.1820 -1.3383
   15MOL   H267 5335   0.667   1.104   1.175 -0.1514  0.3957  2.2108
   15MOL   H268 5336   0.609   1.317   1.313  0.3092 -0.8034 -0.7644
   15MOL   H269 5337   0.777   1.358   1.294  2.1215 -0.5477 -1.2908
   15MOL   H270 5338   0.677   1.116   1.425 -1.1395  1.8580  0.4847
   15MOL   H271 5339   0.843   1.127   1.357  1.1324  2.4054 -0.7296
   15MOL   C272 5340   0.863   1.221   1.606 -0.7077 -0.0949  0.5011
   15MOL   O273 5341   0.887   1.101   1.627  0.0841 -0.0128 -0.3218
   15MOL   C274 5342   0.921   1.337   1.693  0.1445 -0.3382  0.0666
   15MOL   C275 5343   0.827   1.417   1.783 -0.0510 -0.5255  0.1428
   15MOL   C276 5344   0.783   1.328   1.899  0.0631  0.0721  0.1511
   15MOL   C277 5345   0.703   1.395   2.018  0.4390  0.5719 -0.4616
   15MOL   C278 5346   0.641   1.298   2.119  0.0653 -0.4320  0.5954
   15MOL   O279 5347   0.537   1.233   2.055  0.5346 -0.0969  0.0556
   15MOL   H280 5348   0.955   1.399   1.610  0.7729  1.0375  1.3106
   15MOL   H281 5349   1.005   1.300   1.752 -0.3854  0.9374  1.6561
   15MOL   H282 5350   0.745   1.458   1.724  0.6770  1.0822  0.2186
   15MOL   H283 5351   0.890   1.499   1.818 -0.5428  0.3390 -0.9774
   15MOL   H284 5352   0.866   1.272   1.941 -0.7451  0.0049  1.6772
   15MOL   H285 5353   0.725   1.250   1.851  1.0973 -1.1961  0.9427
   15MOL   H286 5354   0.623   1.456   1.976  2.4132  2.8908 -0.9362
   15MOL   H287 5355   0.770   1.469   2.062  1.0712  1.4198 -2.7821
   15MOL   H288 5356   0.721   1.230   2.148  0.3847 -0.9874 -1.5200
   15MOL   H289 5357   0.608   1.357   2.205  0.8909 -2.3375  2.2656
   15MOL   C290 5358   0.407   1.266   2.091 -0.0308  0.8936  0.2424
   15MOL   O291 5359   0.387   1.330   2.193  0.1404 -0.0584 -0.1066
   15MOL   C292 5360   0.304   1.201   2.008  0.2479  0.5331 -0.4033
   15MOL   C293 5361   0.210   1.310   1.945 -0.8006  0.4096 -0.5489
   15MOL   C294 5362   0.279   1.420   1.856 -0.3316  0.0320  0.7029
   15MOL   C295 5363   0.174   1.512   1.794 -0.1758  0.1718 -0.0753
   15MOL   C296 5364   0.093   1.447   1.680 -0.6057  0.4388  0.5798
   15MOL   O297 5365   0.019   1.543   1.601  0.0355 -0.3270 -0.1379
   15MOL   H298 5366   0.250   1.126   2.065  2.8489 -2.9155 -2.2698
   15MOL   H299 5367   0.350   1.147   1.925 -0.2139 -0.9017  0.2621
   15MOL   H300 5368   0.162   1.367   2.025  1.6372  1.3554  0.2820
   15MOL   H301 5369   0.133   1.253   1.894  0.3008 -0.7288 -0.9674
   15MOL   H302 5370   0.351   1.366   1.794  0.0917  0.3809  0.8908
   15MOL   H303 5371   0.345   1.481   1.916 -1.0174 -0.5048  2.0169
   15MOL   H304 5372   0.215   1.604   1.753 -1.5396  0.0582 -1.7194
   15MOL   H305 5373   0.099   1.528   1.871 -0.8731 -2.2829 -0.2132
   15MOL   H306 5374   0.146   1.372   1.620 -1.6170  0.1128  0.0778
   15MOL   H307 5375   0.026   1.382   1.737  2.1245 -2.6460  0.4405
   15MOL   C308 5376   7.832   1.531   1.473  0.0518 -0.0688  0.1833
   15MOL   O309 5377   0.029   1.454   1.386  0.2029  0.3316  0.1668
   15MOL   C310 5378   7.745   1.649   1.433  0.0074  1.2269 -0.4164
   15MOL   C311 5379   7.806   1.774   1.380  0.1826 -0.5498  0.9680
   15MOL   C312 5380   0.002   1.768   1.223  0.7289  0.8520 -0.0542
   15MOL   C313 5381   0.044   1.904   1.171  0.4115 -0.5542 -0.0074
   15MOL   C314 5382   0.073   1.900   1.025  0.4462 -0.0673 -0.1820
   15MOL   O315 5383   0.071   2.040   0.991  0.0086 -0.3739  0.3593
   15MOL   H316 5384   7.699   1.680   1.527 -4.2618  0.7267 -2.2305
   15MOL   H317 5385   7.663   1.598   1.382  1.6714 -2.0439  0.0159
   15MOL   H318 5386   0.047   1.810   1.439  0.1944 -0.2651  0.7757
   15MOL   H319 5387   7.736   1.854   1.402  1.3089  0.0550  2.4815
   15MOL   H320 5388   7.758   1.736   1.168  1.0370  1.1165 -0.6979
   15MOL   H321 5389   0.086   1.699   1.212  0.3964  0.1682  1.5122
   15MOL   H322 5390   0.115   1.939   1.246 -1.4528  1.0376  1.0613
   15MOL   H323 5391   7.808   1.976   1.184 -1.1278 -2.2238 -0.1311
   15MOL   H324 5392   0.163   1.848   0.992  1.7124  0.6683  2.0245
   15MOL   H325 5393   7.824   1.853   0.993 -0.7555  1.4459  1.0232
   15MOL   C326 5394   0.177   2.109   0.951  0.0269  0.8789  0.5488
   15MOL   O327 5395   0.289   2.066   0.952  0.0573  0.0423  0.3429
   15MOL   C328 5396   0.144   2.250   0.912 -0.8971 -0.2133 -0.3600
   15MOL   C329 5397   0.264   2.320   0.839  0.0912  0.3162  0.4654
   15MOL   C330 5398   0.329   2.255   0.715 -0.6959 -0.5465  0.0595
   15MOL   C331 5399   0.244   2.252   0.589 -0.5668 -0.0964 -0.3767
   15MOL   C332 5400   0.294   2.158   0.482 -0.6094  0.3988  0.3763
   15MOL   O333 5401   0.431   2.194   0.454  0.3098 -0.5024 -0.5145
   15MOL   H334 5402   0.104   2.297   1.002 -0.0311  1.2752 -0.7510
   15MOL   H335 5403   0.057   2.260   0.847 -1.2907  3.3784  0.6382
   15MOL   H336 5404   0.346   2.325   0.910  2.4610  1.7261 -2.2575
   15MOL   H337 5405   0.239   2.423   0.815 -0.5517 -0.2150 -1.2540
   15MOL   H338 5406   0.346   2.148   0.726 -0.6709 -0.4864  0.6251
   15MOL   H339 5407   0.423   2.302   0.688 -1.6628  0.6709 -1.3025
   15MOL   H340 5408   0.231   2.354   0.554 -1.6359  0.4938  1.6592
   15MOL   H341 5409   0.143   2.221   0.616  0.0160 -0.4723  1.4390
   15MOL   H342 5410   0.298   2.051   0.504 -0.7087  0.3505  0.1630
   15MOL   H343 5411   0.236   2.160   0.390  1.2007  0.6519 -0.7746
   15MOL   C344 5412   0.466   2.291   0.366 -0.3436 -1.4959 -0.2414
   15MOL   O345 5413   0.393   2.363   0.294  0.1836 -0.4969 -0.0741
   15MOL   C346 5414   0.619   2.324   0.364  0.0266 -0.0040 -0.3744
   15MOL   C347 5415   0.668   2.363   0.504  0.0709 -0.2762  0.3192
   15MOL   C348 5416   0.595   2.484   0.574  0.1530  0.2907  0.1449
   15MOL   C349 5417   0.656   2.626   0.545 -0.2205 -0.3002 -0.4410
   15MOL   C350 5418   0.567   2.738   0.615 -0.4349  0.2356  0.1008
   15MOL   O351 5419   0.584   2.714   0.756  1.0593  0.2321 -0.2198
   15MOL   H352 5420   0.647   2.402   0.293 -0.3442 -0.4364 -1.0031
   15MOL   H353 5421   0.680   2.238   0.338  0.2287  0.7545 -2.5118
   15MOL   H354 5422   0.776   2.370   0.490 -0.3002 -0.0160 -2.7298
   15MOL   H355 5423   0.650   2.280   0.573 -1.1705  0.7832  1.3029
   15MOL   H356 5424   0.612   2.477   0.682 -0.4942  2.0856  0.3838
   15MOL   H357 5425   0.487   2.496   0.561 -0.1294 -1.5385  0.7263
   15MOL   H358 5426   0.671   2.640   0.438 -1.6321  2.8029 -0.2925
   15MOL   H359 5427   0.759   2.629   0.579  0.1127  1.7857 -1.5527
   15MOL   H360 5428   0.604   2.837   0.588  0.7874 -0.4992 -0.9492
   15MOL   H361 5429   0.463   2.714   0.593 -0.4600 -0.0741  0.5482
   15MOL   H362 5430   0.591   2.798   0.798  2.5793 -0.8556  1.7543
   16MOL     C1 5431   7.571   3.232   1.137 -0.2852 -0.4120 -0.4627
   16MOL     O2 5432   7.586   3.141   1.213 -0.7603 -0.3346 -0.4228
   16MOL     C3 5433   7.694   3.320   1.096 -0.0612 -0.0122 -0.5866
   16MOL     C4 5434   7.731   3.433   1.196  0.0976 -0.1017  0.4972
   16MOL     C5 5435   7.839   3.401   1.309 -0.2632  0.5303 -0.1073
   16MOL     C6 5436   0.006   3.517   1.406  0.6130 -0.3417 -0.1987
   16MOL     C7 5437   0.116   3.519   1.518 -0.0617  0.2557 -0.0281
   16MOL     O8 5438   0.091   3.416   1.610  0.4529  0.2148  0.3956
   16MOL     H9 5439   7.677   3.374   1.004  1.1434  3.0723  0.9171
   16MOL    H10 5440   7.779   3.252   1.091  0.4544  0.3599  2.1674
   16MOL    H11 5441   7.638   3.468   1.240  0.0131 -1.7104  1.6398
   16MOL    H12 5442   7.768   3.516   1.136 -0.4945 -0.8055 -0.8709
   16MOL    H13 5443   0.088   3.372   1.260 -0.9242 -1.7500 -0.0639
   16MOL    H14 5444   7.816   3.308   1.361 -0.7810  0.9301  0.3878
   16MOL    H15 5445   7.755   3.534   1.455  0.4671 -1.0227 -0.2433
   16MOL    H16 5446   0.021   3.604   1.341 -2.6732  1.6114  1.5292
   16MOL    H17 5447   0.216   3.505   1.478 -0.1809 -2.4044  0.5169
   16MOL    H18 5448   0.114   3.614   1.570  0.4905 -1.1657  2.6573
   16MOL    H19 5449   7.473   3.257   1.097 -0.4504 -0.6161 -0.1876
   16MOL    C20 5450   0.164   3.303   1.616 -0.7061 -0.0225 -0.8415
   16MOL    O21 5451   0.269   3.275   1.550  0.3700  0.2168  0.1749
   16MOL    C22 5452   0.103   3.207   1.712 -0.5678 -0.1533 -0.6222
   16MOL    C23 5453   0.185   3.076   1.739  0.3918  0.3459 -0.5376
   16MOL    C24 5454   0.270   3.092   1.857 -1.5898 -0.1291  0.7969
   16MOL    C25 5455   0.360   2.967   1.880 -0.0038 -0.0745 -0.5100
   16MOL    C26 5456   0.471   2.984   1.994 -0.7137 -0.2553 -0.5556
   16MOL    O27 5457   0.538   2.868   2.029 -0.2591  0.5241 -0.6778
   16MOL    H28 5458   0.010   3.177   1.664 -2.0079  2.8173  0.1921
   16MOL    H29 5459   0.084   3.266   1.802  1.2778 -2.3578  1.2502
   16MOL    H30 5460   0.247   3.050   1.654 -1.0052 -1.8931 -0.9260
   16MOL    H31 5461   0.121   2.988   1.748 -0.7930  0.9141 -2.9086
   16MOL    H32 5462   0.204   3.111   1.942 -0.6265  0.8779  1.3408
   16MOL    H33 5463   0.340   3.173   1.837  0.6195 -1.7241  1.8296
   16MOL    H34 5464   0.413   2.934   1.790 -0.6686 -0.9749 -0.5795
   16MOL    H35 5465   0.288   2.890   1.907 -0.1563 -0.0259 -0.7701
   16MOL    H36 5466   0.544   3.061   1.970  0.5555 -1.0348  0.6849
   16MOL    H37 5467   0.427   3.023   2.086  1.0934  2.9229 -0.9581
   16MOL    C38 5468   0.495   2.789   2.125  0.3254  0.3980  1.1319
   16MOL    O39 5469   0.418   2.821   2.216  0.2478  0.1998  0.2960
   16MOL    C40 5470   0.569   2.653   2.124 -0.0717 -0.0543 -0.1389
   16MOL    C41 5471   0.536   2.564   2.248  0.8152  0.5485  0.3360
   16MOL    C42 5472   0.604   2.612   2.376  0.1824  0.4351  0.2858
   16MOL    C43 5473   0.567   2.530   2.504 -0.1973 -0.2767  0.2769
   16MOL    C44 5474   0.599   2.617   2.623  0.1507  0.1778 -0.2358
   16MOL    O45 5475   0.734   2.654   2.619  0.1574 -0.0887  0.1393
   16MOL    H46 5476   0.675   2.679   2.116 -0.1808  0.2585 -0.5463
   16MOL    H47 5477   0.537   2.614   2.028 -0.7340 -1.3472  0.5989
   16MOL    H48 5478   0.571   2.466   2.215  0.1874 -0.0954  1.5477
   16MOL    H49 5479   0.429   2.549   2.263  1.5321 -3.8679  1.6882
   16MOL    H50 5480   0.578   2.718   2.383  2.8475  1.0271  1.7922
   16MOL    H51 5481   0.713   2.614   2.368  0.2351 -0.7862  0.5890
   16MOL    H52 5482   0.625   2.437   2.497 -1.1980 -0.7584 -1.7728
   16MOL    H53 5483   0.468   2.485   2.497  0.7413 -1.8723 -3.9448
   16MOL    H54 5484   0.532   2.703   2.627  0.1372  0.3264 -2.8778
   16MOL    H55 5485   0.578   2.559   2.713  3.1061 -0.3404  0.1616
   16MOL    C56 5486   0.797   2.704   2.724 -0.7392  0.1919 -0.3258
   16MOL    O57 5487   0.748   2.706   2.837  0.3573 -0.0043  0.4358
   16MOL    C58 5488   0.945   2.721   2.701  0.3298  0.2108 -0.4050
   16MOL    C59 5489   0.976   2.815   2.584 -0.2346 -0.4078  0.8079
   16MOL    C60 5490   0.965   2.966   2.620  0.3728 -0.2493 -1.0622
   16MOL    C61 5491   1.026   3.050   2.510  1.0001 -0.2760 -0.2987
   16MOL    C62 5492   1.016   3.199   2.545 -0.1468 -0.2092 -0.7654
   16MOL    O63 5493   1.134   3.232   2.620  0.2178 -0.7888 -0.1675
   16MOL    H64 5494   0.971   2.621   2.669 -0.9641 -0.8278  1.6845
   16MOL    H65 5495   1.004   2.743   2.791  1.4777 -0.5374 -0.9663
   16MOL    H66 5496   0.907   2.810   2.501  1.0646  0.4038 -0.3528
   16MOL    H67 5497   1.074   2.796   2.539  1.0036  5.4203  0.5518
   16MOL    H68 5498   1.030   2.987   2.704 -0.7467 -1.8806  0.2413
   16MOL    H69 5499   0.866   3.007   2.641  0.0423 -1.5545 -0.0471
   16MOL    H70 5500   0.984   3.046   2.409  0.8079  1.5242 -0.3104
   16MOL    H71 5501   1.132   3.027   2.501  1.3122  0.2841  1.7808
   16MOL    H72 5502   1.017   3.262   2.456  1.0609  0.8473 -0.0132
   16MOL    H73 5503   0.925   3.226   2.598  1.1488  0.8407  0.9762
   16MOL    C74 5504   1.132   3.340   2.707 -0.4693  0.5364 -0.2284
   16MOL    O75 5505   1.035   3.408   2.731  0.5557 -0.0422  0.2620
   16MOL    C76 5506   1.273   3.363   2.771  0.6854  0.5781 -0.2712
   16MOL    C77 5507   1.345   3.476   2.689 -0.2771 -0.2517 -0.3133
   16MOL    C78 5508   1.433   3.432   2.577  0.3635 -0.7029  0.2124
   16MOL    C79 5509   1.519   3.550   2.527  0.1289  0.4522  0.0798
   16MOL    C80 5510   1.620   3.488   2.426 -0.5175 -0.0230  0.5389
   16MOL    O81 5511   1.736   3.440   2.490  0.5603  0.0124  0.3069
   16MOL    H82 5512   1.321   3.266   2.787 -1.7288 -0.2856  1.9271
   16MOL    H83 5513   1.245   3.393   2.872  0.3835  1.4539 -0.6089
   16MOL    H84 5514   1.409   3.523   2.763  0.3285 -2.2063  0.4244
   16MOL    H85 5515   1.275   3.550   2.649  0.1090  0.4444  0.2866
   16MOL    H86 5516   1.378   3.383   2.497 -0.1153  0.3194 -0.0971
   16MOL    H87 5517   1.495   3.352   2.617  0.7262 -1.4525 -1.7852
   16MOL    H88 5518   1.575   3.596   2.609  0.3442  0.4319 -0.0581
   16MOL    H89 5519   1.460   3.631   2.483 -2.3780 -0.4335  1.7016
   16MOL    H90 5520   1.573   3.415   2.361  1.5272 -1.7936  0.9741
   16MOL    H91 5521   1.654   3.567   2.359 -2.4698  0.9403  0.6530
   16MOL    C92 5522   1.770   3.313   2.468 -0.3844 -0.4690  0.1249
   16MOL    O93 5523   1.704   3.235   2.394 -0.5339 -0.4096 -0.4178
   16MOL    C94 5524   1.900   3.267   2.538 -0.6342 -0.2971 -0.2411
   16MOL    C95 5525   1.958   3.128   2.520 -0.3282 -0.2852 -0.6619
   16MOL    C96 5526   2.091   3.118   2.606 -0.0902  0.0892 -0.4972
   16MOL    C97 5527   2.150   2.979   2.585  0.2851 -0.1000  0.3069
   16MOL    C98 5528   2.269   2.947   2.679  0.4944 -0.6269 -0.1890
   16MOL    O99 5529   2.302   2.812   2.667  0.1129 -0.5249 -0.3371
   16MOL   H100 5530   1.887   3.289   2.644  2.5727  1.9089 -0.2076
   16MOL   H101 5531   1.981   3.339   2.521 -1.8551  0.6616 -2.1673
   16MOL   H102 5532   1.967   3.099   2.415  1.3711  0.5000 -0.7495
   16MOL   H103 5533   1.893   3.046   2.551 -0.4646 -1.4943 -3.9092
   16MOL   H104 5534   2.063   3.141   2.708  2.2701  2.5454 -0.3571
   16MOL   H105 5535   2.166   3.195   2.587 -1.1833  1.3251  0.1244
   16MOL   H106 5536   2.178   2.963   2.481 -0.4019  1.1552 -0.0825
   16MOL   H107 5537   2.072   2.907   2.607  0.4801  0.1551  1.8332
   16MOL   H108 5538   2.353   3.013   2.658  0.0976 -0.1389 -0.2478
   16MOL   H109 5539   2.243   2.960   2.784 -0.2027  4.0791 -0.8503
   16MOL   C110 5540   2.432   2.772   2.659  0.1057 -0.1387  0.1978
   16MOL   O111 5541   2.533   2.843   2.654  0.4873 -0.0753  0.3977
   16MOL   C112 5542   2.449   2.618   2.664 -0.2345  0.1479  0.4033
   16MOL   C113 5543   2.593   2.572   2.644  0.2255  0.3684  0.1936
   16MOL   C114 5544   2.654   2.606   2.507 -0.1201 -1.1837  0.4875
   16MOL   C115 5545   2.786   2.525   2.478 -0.8214  0.3590  0.1970
   16MOL   C116 5546   2.837   2.546   2.339  0.1250 -0.0439 -0.1135
   16MOL   O117 5547   2.962   2.479   2.308 -0.1356  0.1847 -0.9478
   16MOL   H118 5548   2.386   2.569   2.590  0.0573 -0.6741  0.6974
   16MOL   H119 5549   2.427   2.584   2.765  1.3525  0.4129  0.8612
   16MOL   H120 5550   2.586   2.464   2.660  1.6889 -0.2265 -2.7104
   16MOL   H121 5551   2.654   2.606   2.727  1.4565  0.1764 -0.6073
   16MOL   H122 5552   2.661   2.714   2.490  1.1465 -1.4162 -0.5240
   16MOL   H123 5553   2.576   2.570   2.440  0.1521 -0.9112  0.0229
   16MOL   H124 5554   2.767   2.418   2.487 -2.4134  0.5728 -0.4284
   16MOL   H125 5555   2.851   2.561   2.558 -1.7005 -1.1854  1.6396
   16MOL   H126 5556   2.767   2.507   2.265 -1.1639  2.1852 -0.1234
   16MOL   H127 5557   2.841   2.652   2.315 -0.9648 -0.4445 -2.2782
   16MOL   C128 5558   2.999   2.463   2.180  0.4142  0.8467  0.2247
   16MOL   O129 5559   2.936   2.498   2.080  0.4040 -0.1266 -0.4306
   16MOL   C130 5560   3.143   2.397   2.173  0.3277  0.0272 -0.2494
   16MOL   C131 5561   3.146   2.251   2.211  0.5639 -0.0437  0.1831
   16MOL   C132 5562   3.115   2.216   2.351  0.0966 -0.5890 -0.4478
   16MOL   C133 5563   3.092   2.065   2.373  0.1350  0.4196 -0.7642
   16MOL   C134 5564   3.062   2.014   2.517  0.7068 -1.1973 -0.4980
   16MOL   O135 5565   2.945   2.083   2.556 -0.2238  0.3042  1.0410
   16MOL   H136 5566   3.203   2.455   2.244 -1.4471 -1.5590  2.6646
   16MOL   H137 5567   3.188   2.408   2.075  0.4546 -0.6425 -0.2675
   16MOL   H138 5568   3.242   2.205   2.185 -1.1974 -2.5157 -2.3053
   16MOL   H139 5569   3.071   2.204   2.146 -0.6602  0.5353  1.1603
   16MOL   H140 5570   3.026   2.262   2.395  0.2663 -0.6834  0.0055
   16MOL   H141 5571   3.200   2.248   2.411 -1.7267  1.6768  1.0060
   16MOL   H142 5572   3.178   2.019   2.326 -0.1339  0.2853 -1.1324
   16MOL   H143 5573   3.008   2.034   2.311  0.2057  0.2641 -0.7818
   16MOL   H144 5574   3.040   1.908   2.508 -0.6655 -1.0060  0.4477
   16MOL   H145 5575   3.147   2.030   2.583 -0.2971  2.2144  0.1057
   16MOL   C146 5576   2.917   2.071   2.691 -0.9042 -0.4477  0.0907
   16MOL   O147 5577   2.989   2.011   2.772 -0.4891  0.1817  0.3111
   16MOL   C148 5578   2.776   2.117   2.721 -0.4071 -0.9168 -0.3184
   16MOL   C149 5579   2.732   2.078   2.870 -0.1603 -0.2467 -0.4365
   16MOL   C150 5580   2.719   1.931   2.899 -0.2357 -0.5509 -0.2564
   16MOL   C151 5581   2.627   1.852   2.802  0.2096 -1.1046 -0.2707
   16MOL   C152 5582   2.629   1.704   2.834 -1.0054  0.5661  0.1488
   16MOL   O153 5583   2.590   1.677   2.968  0.0773  0.0696  0.2374
   16MOL   H154 5584   2.716   2.081   2.638  0.3575  1.6585 -2.0238
   16MOL   H155 5585   2.784   2.225   2.712  0.7774 -1.0405 -0.8564
   16MOL   H156 5586   2.632   2.120   2.879 -0.1800 -0.3881  0.0261
   16MOL   H157 5587   2.798   2.125   2.943 -0.3076  1.5043 -1.4004
   16MOL   H158 5588   2.686   1.915   3.002 -0.5422 -1.1566 -0.4420
   16MOL   H159 5589   2.813   1.876   2.891 -0.8730 -1.7196  0.1442
   16MOL   H160 5590   2.660   1.861   2.699  3.0549  0.2166  0.6837
   16MOL   H161 5591   2.528   1.894   2.816  1.6368  1.8662  1.6742
   16MOL   H162 5592   2.566   1.648   2.764 -1.5246 -0.3283  1.3242
   16MOL   H163 5593   2.734   1.685   2.813 -0.9988  1.5232 -0.7346
   16MOL   C164 5594   2.572   1.553   3.008 -0.0382  0.7310  0.5790
   16MOL   O165 5595   2.584   1.455   2.940 -1.1703 -0.3282  0.1110
   16MOL   C166 5596   2.544   1.544   3.159  0.2942  1.4097  0.1907
   16MOL   C167 5597   2.454   1.652   3.202 -0.1699  0.3907  0.1462
   16MOL   C168 5598   2.410   1.651   3.347  0.5647  0.3625 -0.7143
   16MOL   C169 5599   2.499   1.739   3.428 -0.9077  0.5207 -0.4438
   16MOL   C170 5600   2.465   1.750   3.572 -0.6400  0.1549 -0.5553
   16MOL   O171 5601   2.545   1.850   3.625  0.1354  0.4392 -0.4404
   16MOL   H172 5602   2.643   1.556   3.203  0.2585  2.3499  0.0200
   16MOL   H173 5603   2.516   1.441   3.182  1.4916  0.8415 -0.7954
   16MOL   H174 5604   2.361   1.631   3.149 -1.2961 -0.6781  2.4760
   16MOL   H175 5605   2.482   1.752   3.168  0.2708  0.4456  0.6711
   16MOL   H176 5606   2.417   1.553   3.394 -0.2692  0.6550  0.0243
   16MOL   H177 5607   2.308   1.688   3.346  1.0580  1.7608  0.1697
   16MOL   H178 5608   2.482   1.835   3.380  0.6888  0.7090 -0.6604
   16MOL   H179 5609   2.604   1.714   3.414 -1.8231 -3.8269 -0.1636
   16MOL   H180 5610   2.362   1.776   3.595 -1.4101 -2.4785 -0.8746
   16MOL   H181 5611   2.475   1.649   3.611  0.7166 -0.1104 -1.5559
   16MOL   C182 5612   2.523   1.904   3.747 -0.0817  0.2776  0.0264
   16MOL   O183 5613   2.458   1.856   3.837  0.1416 -0.4880 -0.0350
   16MOL   C184 5614   2.625   2.019   3.771 -0.1687  0.0565 -0.5560
   16MOL   C185 5615   2.565   2.153   3.824 -0.4604 -0.1289 -0.2856
   16MOL   C186 5616   2.658   2.271   3.812 -0.0354  0.3396  0.0429
   16MOL   C187 5617   2.592   2.390   3.897 -1.0125  0.7946 -0.1615
   16MOL   C188 5618   2.651   2.526   3.863 -0.2566  0.3376 -0.5284
   16MOL   O189 5619   2.587   2.637   3.925 -0.0276 -0.4305 -0.0351
   16MOL   H190 5620   2.672   2.047   3.677 -0.6775  0.9281 -0.5654
   16MOL   H191 5621   2.709   1.983   3.830  0.6654 -1.6431 -2.7307
   16MOL   H192 5622   2.535   2.134   3.927  0.4972 -0.1923 -0.0165
   16MOL   H193 5623   2.474   2.171   3.767 -1.2127  0.1249  0.9803
   16MOL   H194 5624   2.668   2.295   3.706 -1.2066 -1.1417 -0.4042
   16MOL   H195 5625   2.758   2.239   3.840 -0.4704 -0.8931  0.1849
   16MOL   H196 5626   2.611   2.374   4.003 -1.1541  1.4719 -0.0356
   16MOL   H197 5627   2.486   2.407   3.885 -1.1196  1.1030  1.1525
   16MOL   H198 5628   2.757   2.516   3.889 -1.0334 -0.1678  2.6828
   16MOL   H199 5629   2.656   2.550   3.757  0.7676 -0.0341 -0.5692
   16MOL   C200 5630   2.481   2.695   3.876 -0.0256  0.2982  0.2263
   16MOL   O201 5631   2.429   2.679   3.764  0.4195 -0.0979  0.1576
   16MOL   C202 5632   2.428   2.796   3.972 -0.5650  0.5682 -0.6690
   16MOL   C203 5633   2.308   2.750   4.054  0.4995  0.1727  0.0774
   16MOL   C204 5634   2.176   2.728   3.973  0.4435 -0.3527 -0.1231
   16MOL   C205 5635   2.130   2.853   3.903 -0.0307 -0.8437 -0.9328
   16MOL   C206 5636   1.981   2.839   3.853  0.4933  0.3165  0.1158
   16MOL   O207 5637   1.968   2.754   3.735  0.3238 -0.1513  0.1142
   16MOL   H208 5638   2.401   2.876   3.903  0.0393  1.4158  0.0583
   16MOL   H209 5639   2.502   2.838   4.040 -2.1666  0.9956  0.8268
   16MOL   H210 5640   2.276   2.828   4.123 -1.0510 -0.6213  0.2784
   16MOL   H211 5641   2.331   2.662   4.114  0.1723  2.7681  4.1955
   16MOL   H212 5642   2.103   2.688   4.043 -0.8569  0.1308 -1.1794
   16MOL   H213 5643   2.177   2.652   3.894 -1.8343 -0.9792  0.4230
   16MOL   H214 5644   2.198   2.884   3.823 -1.4720  0.8331 -1.5328
   16MOL   H215 5645   2.129   2.930   3.979  0.9576 -2.2813  0.5769
   16MOL   H216 5646   1.926   2.797   3.937  0.1506  0.2995 -0.1142
   16MOL   H217 5647   1.947   2.941   3.835  0.0894  0.2308  0.3827
   16MOL   C218 5648   1.933   2.806   3.618  0.4644 -0.9087 -0.0931
   16MOL   O219 5649   1.900   2.925   3.595  0.1208 -0.0135  0.2239
   16MOL   C220 5650   1.929   2.698   3.507 -0.4320 -0.6159 -0.4214
   16MOL   C221 5651   2.070   2.657   3.454  0.1494  0.6534 -0.4293
   16MOL   C222 5652   2.140   2.561   3.556 -0.1857  0.8143  0.2200
   16MOL   C223 5653   2.252   2.473   3.491 -0.4399  0.5577  1.0742
   16MOL   C224 5654   2.319   2.367   3.590 -0.2320  0.0590  1.0361
   16MOL   O225 5655   2.395   2.266   3.530 -0.7177 -0.0771  0.2828
   16MOL   H226 5656   1.862   2.731   3.427  1.2505  0.9893 -1.2026
   16MOL   H227 5657   1.879   2.607   3.540  2.5975 -2.3850 -0.5506
   16MOL   H228 5658   2.132   2.746   3.459  1.5361 -0.3659  1.5212
   16MOL   H229 5659   2.083   2.628   3.349  1.3256 -0.2116 -0.0603
   16MOL   H230 5660   2.068   2.501   3.610 -1.2002 -0.2016 -2.1775
   16MOL   H231 5661   2.193   2.620   3.631  3.4334  1.0757 -2.3561
   16MOL   H232 5662   2.326   2.532   3.437  0.8791 -1.5005  0.5767
   16MOL   H233 5663   2.208   2.403   3.420  0.4083  1.1576 -0.0631
   16MOL   H234 5664   2.378   2.436   3.651 -0.5151  1.3217 -0.1093
   16MOL   H235 5665   2.239   2.332   3.655 -0.2645  1.0981  1.5681
   16MOL   C236 5666   2.515   2.287   3.475 -0.6491 -0.3505 -0.2010
   16MOL   O237 5667   2.586   2.390   3.482  0.2838 -0.5703 -0.2168
   16MOL   C238 5668   2.568   2.158   3.408 -0.6760 -0.5019  0.4331
   16MOL   C239 5669   2.499   2.135   3.271 -0.2245  0.3188  0.8408
   16MOL   C240 5670   2.564   2.197   3.152  0.4007  0.0019  0.1961
   16MOL   C241 5671   2.532   2.345   3.132  0.3713 -0.8040 -0.9298
   16MOL   C242 5672   2.382   2.385   3.111  0.6998 -0.1668 -0.1347
   16MOL   O243 5673   2.371   2.524   3.104 -0.0087  0.1838 -0.1544
   16MOL   H244 5674   2.538   2.075   3.473 -2.3928 -0.6478 -0.4930
   16MOL   H245 5675   2.675   2.162   3.394 -0.5213  0.7578  1.8617
   16MOL   H246 5676   2.393   2.158   3.282 -0.4014  0.6709 -1.3276
   16MOL   H247 5677   2.494   2.027   3.263  0.9008  0.0508  3.2976
   16MOL   H248 5678   2.516   2.151   3.066 -1.8191  3.6912 -0.6335
   16MOL   H249 5679   2.672   2.186   3.144  0.6393  2.3188 -0.1281
   16MOL   H250 5680   2.579   2.385   3.043  0.1884 -2.7347 -1.9231
   16MOL   H251 5681   2.573   2.402   3.215 -0.2211 -1.9031  0.1473
   16MOL   H252 5682   2.330   2.343   3.025 -0.4224 -0.1446  0.5232
   16MOL   H253 5683   2.322   2.349   3.195 -0.7759  0.4743 -0.8841
   16MOL   C254 5684   2.247   2.583   3.087  0.2053 -0.2167  0.0540
   16MOL   O255 5685   2.136   2.531   3.097 -0.2968  0.6981  0.2127
   16MOL   C256 5686   2.265   2.728   3.051 -0.4613  0.0472 -0.0932
   16MOL   C257 5687   2.147   2.820   3.075  0.0408  0.0167  0.1252
   16MOL   C258 5688   2.039   2.816   2.964 -0.3329 -0.6266 -0.2287
   16MOL   C259 5689   1.950   2.940   2.977  0.3062  0.4649  0.3664
   16MOL   C260 5690   1.859   2.967   2.855  0.2667  0.3238  0.2597
   16MOL   O261 5691   1.823   3.100   2.836  0.4209  0.3698  0.4985
   16MOL   H262 5692   2.300   2.732   2.948 -1.8533  2.0887 -0.5122
   16MOL   H263 5693   2.344   2.761   3.118  0.2338 -0.8216 -0.4742
   16MOL   H264 5694   2.187   2.921   3.070 -0.3321  0.2338  1.2478
   16MOL   H265 5695   2.106   2.820   3.176  1.4539  0.0503  0.7108
   16MOL   H266 5696   1.975   2.727   2.963 -0.9890 -0.1555 -1.5570
   16MOL   H267 5697   2.075   2.809   2.861 -0.2270 -1.2731 -0.1538
   16MOL   H268 5698   2.018   3.026   2.985  1.4215 -0.5351  2.0040
   16MOL   H269 5699   1.885   2.944   3.064  0.0174  1.9686  0.1023
   16MOL   H270 5700   1.898   2.937   2.757  0.1071 -0.6335  0.4850
   16MOL   H271 5701   1.766   2.911   2.863 -0.8502  1.9512 -1.0039
   16MOL   C272 5702   1.708   3.159   2.897 -0.7259  0.3870 -0.1562
   16MOL   O273 5703   1.630   3.105   2.971 -0.2384  0.2412 -0.5251
   16MOL   C274 5704   1.719   3.310   2.892 -0.3159  1.0676 -0.2479
   16MOL   C275 5705   1.611   3.380   2.971 -0.1385  0.3010 -0.5597
   16MOL   C276 5706   1.624   3.533   2.942 -0.4780 -0.4937  0.0971
   16MOL   C277 5707   1.531   3.620   3.028  1.0085  0.1027 -0.7714
   16MOL   C278 5708   1.566   3.765   2.999 -0.1359  0.0379  0.3580
   16MOL   O279 5709   1.515   3.850   3.099  0.3154  0.4722 -0.6767
   16MOL   H280 5710   1.701   3.337   2.788  3.7624 -0.9447 -1.5813
   16MOL   H281 5711   1.819   3.344   2.919  0.4272 -0.9616 -0.3544
   16MOL   H282 5712   1.637   3.361   3.075 -0.6367  2.1838 -0.0774
   16MOL   H283 5713   1.508   3.345   2.969 -0.5366  1.2139  2.3042
   16MOL   H284 5714   1.591   3.549   2.839  1.1498 -3.5085 -0.9723
   16MOL   H285 5715   1.726   3.568   2.954 -0.1835 -0.5378 -2.1089
   16MOL   H286 5716   1.537   3.595   3.134  0.7941  1.3789 -0.4408
   16MOL   H287 5717   1.427   3.594   3.007  0.9203 -0.1259 -0.0603
   16MOL   H288 5718   1.673   3.784   2.988  0.0513 -0.2975  1.5015
   16MOL   H289 5719   1.522   3.787   2.902  1.3134 -0.6437 -0.4644
   16MOL   C290 5720   1.542   3.978   3.086  0.2796  0.2303  0.2827
   16MOL   O291 5721   1.602   4.037   2.997  0.1255  0.6224  0.5459
   16MOL   C292 5722   1.496   4.051   3.212  0.6318  1.3024 -0.0781
   16MOL   C293 5723   1.341   4.056   3.219 -0.5943  0.4668  0.3271
   16MOL   C294 5724   1.278   3.976   3.333 -0.9364  0.2433 -0.6076
   16MOL   C295 5725   1.129   4.004   3.360 -0.3920 -0.2860  0.5711
   16MOL   C296 5726   1.086   3.930   3.480  0.2257  0.2052 -0.0190
   16MOL   O297 5727   1.173   3.950   3.593 -0.6888 -0.8658  0.1582
   16MOL   H298 5728   1.544   4.148   3.211  0.1418  1.5397 -1.1088
   16MOL   H299 5729   1.530   4.005   3.305 -1.5360 -0.2945 -0.0387
   16MOL   H300 5730   1.289   4.056   3.123 -0.3937  1.0982  0.2193
   16MOL   H301 5731   1.312   4.159   3.241 -2.2970 -0.3426  1.9980
   16MOL   H302 5732   1.339   4.006   3.418  0.9781 -0.9379 -1.5376
   16MOL   H303 5733   1.277   3.868   3.320  1.7382  0.0344  0.5394
   16MOL   H304 5734   1.080   3.976   3.267  1.2798 -2.2906  0.2476
   16MOL   H305 5735   1.115   4.110   3.379 -1.7533 -0.3365 -0.0900
   16MOL   H306 5736   0.986   3.963   3.510 -0.4408 -0.3278 -1.6163
   16MOL   H307 5737   1.078   3.823   3.461 -3.6069 -0.0472  2.4880
   16MOL   C308 5738   1.161   4.058   3.672 -0.0814 -0.8082  0.1718
   16MOL   O309 5739   1.083   4.153   3.664  0.1183  0.2167 -0.1567
   16MOL   C310 5740   1.271   4.067   3.771  0.2265  0.7042 -1.0765
   16MOL   C311 5741   1.272   4.167   3.888 -0.1447  0.9071  0.0617
   16MOL   C312 5742   1.391   4.177   3.990 -0.5918 -0.5858  0.4753
   16MOL   C313 5743   1.403   4.045   4.066  0.5388 -0.5975  0.1608
   16MOL   C314 5744   1.526   4.041   4.164  0.3272  0.3924  0.0777
   16MOL   O315 5745   1.638   4.106   4.104 -0.6566 -0.0294 -0.4722
   16MOL   H316 5746   1.362   4.075   3.711  0.9786 -0.0887 -0.0821
   16MOL   H317 5747   1.274   3.972   3.826 -2.9035  0.8720 -0.5345
   16MOL   H318 5748   1.180   4.154   3.945 -0.1375 -0.5314 -0.2311
   16MOL   H319 5749   1.247   4.261   3.841  1.2750  0.8682 -0.7961
   16MOL   H320 5750   1.374   4.254   4.066 -0.9747 -0.1061 -0.1011
   16MOL   H321 5751   1.475   4.212   3.930 -1.3134  1.7560  0.7925
   16MOL   H322 5752   1.410   3.967   3.991 -2.9838 -1.4070  0.5590
   16MOL   H323 5753   1.323   4.013   4.133  0.0614 -2.0086 -1.0599
   16MOL   H324 5754   1.496   4.078   4.262  3.1763 -0.5837  1.3756
   16MOL   H325 5755   1.558   3.939   4.185  0.9759  1.3077  3.8550
   16MOL   C326 5756   1.751   4.124   4.170 -0.7384 -0.8312  0.5866
   16MOL   O327 5757   1.772   4.090   4.284  0.3510 -0.3237 -0.1112
   16MOL   C328 5758   1.860   4.203   4.090 -0.6174 -0.5639  0.4854
   16MOL   C329 5759   1.851   4.347   4.120 -0.3968 -0.1065  0.2188
   16MOL   C330 5760   1.874   4.395   4.261 -0.4490 -0.0633 -0.0837
   16MOL   C331 5761   2.012   4.357   4.321 -0.2170 -0.0029  0.3362
   16MOL   C332 5762   2.064   4.447   4.429 -0.2297 -0.3507 -0.0025
   16MOL   O333 5763   2.197   4.407   4.468  0.3597  0.3530  0.5706
   16MOL   H334 5764   1.853   4.182   3.983 -0.3818  0.4805  0.2523
   16MOL   H335 5765   1.960   4.169   4.118  0.5910  2.4591  0.1188
   16MOL   H336 5766   1.753   4.380   4.086 -0.0429 -0.9000 -1.6721
   16MOL   H337 5767   1.915   4.395   4.045 -1.0668 -1.9744 -1.5924
   16MOL   H338 5768   1.794   4.364   4.329 -0.7795  0.3245 -0.2951
   16MOL   H339 5769   1.868   4.504   4.255  0.6637 -0.0840 -2.1454
   16MOL   H340 5770   2.080   4.351   4.236 -0.5211 -0.4568  0.1244
   16MOL   H341 5771   2.002   4.253   4.352 -1.3497  0.4368  1.4783
   16MOL   H342 5772   2.073   4.551   4.395 -0.6829 -0.9767 -2.0861
   16MOL   H343 5773   1.997   4.434   4.514  0.4301 -0.2493  0.5401
   16MOL   C344 5774   2.240   4.433   4.585  0.3101  1.0440  0.5431
   16MOL   O345 5775   2.175   4.457   4.687 -1.0719 -0.4358  0.3349
   16MOL   C346 5776   2.390   4.424   4.594  0.8683 -0.1031 -0.7988
   16MOL   C347 5777   2.437   4.276   4.606 -0.4465 -0.2456 -0.1750
   16MOL   C348 5778   2.421   4.221   4.749  0.4193 -0.0777  0.0778
   16MOL   C349 5779   2.504   4.097   4.794 -0.0057  0.4400 -0.0971
   16MOL   C350 5780   2.455   4.042   4.922  0.0060 -0.7898 -0.2578
   16MOL   O351 5781   2.499   3.909   4.962  0.1505  0.1003 -0.4011
   16MOL   H352 5782   2.431   4.483   4.675  1.7966 -0.6653 -0.8411
   16MOL   H353 5783   2.427   4.485   4.511 -0.7441 -1.2374 -2.3858
   16MOL   H354 5784   2.540   4.285   4.572 -0.3746  1.2070  0.4207
   16MOL   H355 5785   2.390   4.210   4.533  2.0988 -1.3367 -0.9078
   16MOL   H356 5786   2.315   4.200   4.765  0.1002  0.6520 -1.0046
   16MOL   H357 5787   2.458   4.301   4.813  1.4992  0.7425 -1.5337
   16MOL   H358 5788   2.610   4.114   4.813 -0.2001  1.4120  0.1109
   16MOL   H359 5789   2.495   4.013   4.724 -0.0168 -0.8724  1.4417
   16MOL   H360 5790   2.497   4.105   5.001  0.5763 -2.5744  0.8939
   16MOL   H361 5791   2.346   4.043   4.933  0.3003  0.8647  3.4634
   16MOL   H362 5792   2.444   3.848   4.914  1.4256 -3.3195  2.2543
   17MOL     C1 5793   0.053   0.554   0.635  0.3738 -0.2188  1.4799
   17MOL     O2 5794   7.776   0.567   0.625  0.9346  0.0421  0.7234
   17MOL     C3 5795   0.116   0.418   0.654 -1.1071  0.2100  0.3249
   17MOL     C4 5796   0.031   0.331   0.752 -0.1685 -0.1036 -0.4214
   17MOL     C5 5797   0.102   0.196   0.765  0.1720 -0.1379  0.4131
   17MOL     C6 5798   0.016   0.103   0.843 -0.5390 -0.0557  0.0235
   17MOL     C7 5799   0.074   7.805   0.834 -1.0652 -0.1117 -0.1939
   17MOL     O8 5800   0.191   7.790   0.912  0.0769  0.3170 -0.5771
   17MOL     H9 5801   0.216   0.440   0.691  1.5172 -0.1815 -5.9670
   17MOL    H10 5802   0.133   0.350   0.571  2.3372 -0.2217  1.3155
   17MOL    H11 5803   7.769   0.321   0.728 -0.1798  2.7143 -1.7451
   17MOL    H12 5804   0.040   0.372   0.853 -0.3539 -0.2425 -0.3489
   17MOL    H13 5805   0.204   0.201   0.802  0.8312  1.8982 -1.5801
   17MOL    H14 5806   0.125   0.156   0.666  0.8933  1.8720 -0.2524
   17MOL    H15 5807   7.770   0.098   0.783  0.0741  3.6058 -1.3725
   17MOL    H16 5808   7.837   0.133   0.945 -0.6170 -1.6131  0.4721
   17MOL    H17 5809   7.842   7.743   0.881 -1.1164  0.3260  0.3117
   17MOL    H18 5810   0.099   7.772   0.733  0.5790 -1.6643  0.6972
   17MOL    H19 5811   0.113   0.645   0.628 -0.4243  0.1749 -1.0116
   17MOL    C20 5812   0.291   7.715   0.870  0.6106  0.4988  0.0104
   17MOL    O21 5813   0.300   7.651   0.759  0.4507  0.4774  0.2751
   17MOL    C22 5814   0.406   7.718   0.972  0.5060  0.2641  0.4970
   17MOL    C23 5815   0.452   7.583   1.012 -0.2701 -0.1103 -0.3393
   17MOL    C24 5816   0.508   7.589   1.157  0.0830  0.5068  0.4333
   17MOL    C25 5817   0.576   7.460   1.203  0.0863  0.2297 -0.2581
   17MOL    C26 5818   0.616   7.450   1.353  0.7454 -0.5295  0.4244
   17MOL    O27 5819   0.609   7.316   1.410 -0.2570 -0.6219  0.3165
   17MOL    H28 5820   0.365   7.764   1.062  1.3261 -2.1261  2.1187
   17MOL    H29 5821   0.491   7.780   0.941 -0.1262  1.7375  1.6401
   17MOL    H30 5822   0.532   7.560   0.942  0.5714  1.2114  0.1737
   17MOL    H31 5823   0.375   7.506   1.005 -0.7003  0.3371 -0.4932
   17MOL    H32 5824   0.418   7.601   1.217 -0.5607  1.2013 -0.6583
   17MOL    H33 5825   0.564   7.677   1.188  0.6705 -0.9765  3.8677
   17MOL    H34 5826   0.661   7.439   1.138 -1.8412 -0.6274 -2.6106
   17MOL    H35 5827   0.498   7.385   1.188 -0.7389  0.9933  0.1455
   17MOL    H36 5828   0.716   7.493   1.360  0.2106  0.4397  2.3118
   17MOL    H37 5829   0.548   7.508   1.415  3.7244  1.7631  1.6584
   17MOL    C38 5830   0.493   7.262   1.448 -1.0107  0.6619  0.2577
   17MOL    O39 5831   0.391   7.325   1.450  0.4666  0.8541 -1.1666
   17MOL    C40 5832   0.501   7.112   1.491  1.0435 -0.4988  0.2425
   17MOL    C41 5833   0.645   7.060   1.518  0.1580  0.0899  0.3325
   17MOL    C42 5834   0.707   7.123   1.638 -0.3293  0.5186 -0.6152
   17MOL    C43 5835   0.834   7.044   1.678 -0.6361 -0.8852 -0.2403
   17MOL    C44 5836   0.919   7.103   1.795 -0.7388  0.4111  0.1715
   17MOL    O45 5837   1.043   7.036   1.800  0.2033  0.2407  0.2903
   17MOL    H46 5838   0.461   7.045   1.415 -3.7252  3.3412 -0.8254
   17MOL    H47 5839   0.446   7.101   1.584 -0.6468  0.7022 -0.6025
   17MOL    H48 5840   0.707   7.087   1.433  0.6805  0.7883  0.9237
   17MOL    H49 5841   0.634   6.952   1.533  0.8640 -0.3430 -2.0851
   17MOL    H50 5842   0.648   7.128   1.730 -0.7342  0.2249 -0.8586
   17MOL    H51 5843   0.742   7.224   1.619  0.2738  0.0395 -2.1003
   17MOL    H52 5844   0.903   7.044   1.593 -0.5462  2.0393 -0.2195
   17MOL    H53 5845   0.807   6.942   1.705 -4.1635  0.2786  0.9248
   17MOL    H54 5846   0.930   7.209   1.772 -1.9485  0.4554 -0.2437
   17MOL    H55 5847   0.860   7.099   1.886 -1.4785 -0.4810 -0.3302
   17MOL    C56 5848   1.133   7.085   1.891  0.2360  0.1712  0.2998
   17MOL    O57 5849   1.110   7.178   1.968  0.3858 -0.2774  0.4312
   17MOL    C58 5850   1.261   7.011   1.888  0.1448 -0.1806 -0.8164
   17MOL    C59 5851   1.279   6.924   2.008 -0.2414  0.2211 -0.2356
   17MOL    C60 5852   1.424   6.863   2.017  0.2423  0.0679  0.1900
   17MOL    C61 5853   1.466   6.760   1.914 -0.0232  0.3676 -0.2736
   17MOL    C62 5854   1.591   6.689   1.972 -0.5578  0.2156 -0.5140
   17MOL    O63 5855   1.554   6.594   2.070 -0.4320  0.2681 -0.1113
   17MOL    H64 5856   1.344   7.079   1.869  1.3248 -1.0803  0.9876
   17MOL    H65 5857   1.243   6.946   1.802 -1.2690 -1.0258  0.1042
   17MOL    H66 5858   1.201   6.848   2.020 -0.5521  0.4631 -0.7159
   17MOL    H67 5859   1.268   6.991   2.093 -0.6094 -2.3203  1.7567
   17MOL    H68 5860   1.425   6.811   2.113  3.4800  0.2797  0.3199
   17MOL    H69 5861   1.499   6.937   2.045 -0.1851  0.9614 -0.9558
   17MOL    H70 5862   1.489   6.797   1.814 -0.2356  0.2751 -0.3578
   17MOL    H71 5863   1.390   6.683   1.907  0.3486 -0.1168  0.8804
   17MOL    H72 5864   1.639   6.625   1.898 -2.0374  0.7644 -1.9930
   17MOL    H73 5865   1.665   6.764   1.999 -2.0857  1.1756  1.1296
   17MOL    C74 5866   1.616   6.585   2.184 -0.0045 -0.1602  0.0790
   17MOL    O75 5867   1.714   6.644   2.226 -0.8251  0.4494 -0.1515
   17MOL    C76 5868   1.558   6.475   2.272 -0.0405  0.4002 -0.6896
   17MOL    C77 5869   1.443   6.507   2.370 -0.1804  0.3435  0.2505
   17MOL    C78 5870   1.316   6.573   2.312  0.1034  0.4084 -0.2433
   17MOL    C79 5871   1.191   6.590   2.412  0.0362  0.3664  0.3000
   17MOL    C80 5872   1.076   6.652   2.346  0.3894 -0.7176 -0.2139
   17MOL    O81 5873   1.117   6.786   2.329  0.0788 -0.3154  0.1825
   17MOL    H82 5874   1.628   6.402   2.313  0.4518  0.0001 -2.2119
   17MOL    H83 5875   1.504   6.410   2.204 -0.0140  2.1188 -2.3917
   17MOL    H84 5876   1.486   6.549   2.460 -0.4128 -1.8354  1.4212
   17MOL    H85 5877   1.402   6.416   2.414 -1.2202  0.9499  0.5115
   17MOL    H86 5878   1.292   6.519   2.221 -0.4858 -2.5271  1.5964
   17MOL    H87 5879   1.347   6.675   2.287 -1.5115  0.1880 -3.3674
   17MOL    H88 5880   1.222   6.650   2.498 -2.2442  0.1368  1.3141
   17MOL    H89 5881   1.174   6.490   2.454  1.3155 -0.7009 -1.6756
   17MOL    H90 5882   1.054   6.606   2.250 -0.5076  0.3244 -0.5176
   17MOL    H91 5883   0.981   6.650   2.400  0.4192  0.5332 -0.1119
   17MOL    C92 5884   1.024   6.873   2.297 -0.3336  0.4260 -0.2316
   17MOL    O93 5885   0.908   6.853   2.265  0.3618 -0.9576 -0.0424
   17MOL    C94 5886   1.075   7.017   2.323 -0.0085 -0.0044 -0.6022
   17MOL    C95 5887   1.070   7.052   2.476  0.6937  0.3100  0.2197
   17MOL    C96 5888   0.926   7.056   2.532 -0.2487 -1.0472  0.0301
   17MOL    C97 5889   0.925   7.050   2.687 -0.4065  0.1076  0.4590
   17MOL    C98 5890   0.828   7.148   2.745  0.5357  0.5543  0.3352
   17MOL    O99 5891   0.877   7.284   2.741 -0.0954  0.2073 -0.1183
   17MOL   H100 5892   1.015   7.082   2.260  0.5236 -0.0414 -1.1528
   17MOL   H101 5893   1.179   7.019   2.290 -0.0994  0.9201 -0.8440
   17MOL   H102 5894   1.128   7.142   2.492  3.3267 -1.0814 -1.0603
   17MOL   H103 5895   1.113   6.970   2.534 -2.1859 -0.1527  1.8194
   17MOL   H104 5896   0.872   6.976   2.481 -2.7199  1.4025 -1.3779
   17MOL   H105 5897   0.884   7.152   2.502  1.1128 -0.6172 -0.5421
   17MOL   H106 5898   1.026   7.065   2.725  0.1786  1.3509 -1.5185
   17MOL   H107 5899   0.904   6.950   2.724 -0.0500  0.1390  0.7579
   17MOL   H108 5900   0.734   7.126   2.695  0.7685  2.4367 -0.9613
   17MOL   H109 5901   0.817   7.123   2.851 -0.0159 -2.4043 -0.3705
   17MOL   C110 5902   0.789   7.378   2.765  0.1118  0.4659 -0.5355
   17MOL   O111 5903   0.667   7.360   2.785 -0.6256 -0.6957  0.6392
   17MOL   C112 5904   0.858   7.515   2.787 -0.4531 -0.6399 -0.0537
   17MOL   C113 5905   0.897   7.569   2.642  0.3187  0.3556 -0.5359
   17MOL   C114 5906   0.920   7.723   2.645 -0.2712  0.7181  0.0062
   17MOL   C115 5907   0.976   7.773   2.518 -0.0107  0.2082 -0.6449
   17MOL   C116 5908   0.965   0.086   2.508  0.3192 -0.5128 -0.2039
   17MOL   O117 5909   1.067   0.134   2.427 -0.4403 -0.4166  0.1685
   17MOL   H118 5910   0.939   7.503   2.858 -0.2148 -2.6847 -0.6275
   17MOL   H119 5911   0.790   7.585   2.836  1.0029  1.1572 -0.5646
   17MOL   H120 5912   0.817   7.554   2.570  0.9722 -0.5480 -1.0876
   17MOL   H121 5913   0.976   7.505   2.604 -0.7909  0.1622 -2.5623
   17MOL   H122 5914   0.985   7.749   2.729 -1.2660  1.4160  0.5668
   17MOL   H123 5915   0.821   7.761   2.671  0.4255  1.3701  1.8235
   17MOL   H124 5916   0.929   7.735   2.427 -0.4851  3.1094 -1.6542
   17MOL   H125 5917   1.078   7.738   2.502  0.8734  2.4582 -0.1216
   17MOL   H126 5918   0.866   0.121   2.482  0.2402 -1.1521 -0.7688
   17MOL   H127 5919   0.997   0.122   2.607  0.4936  0.2817 -0.5428
   17MOL   C128 5920   1.111   0.270   2.423  0.3971  0.3865  0.9178
   17MOL   O129 5921   1.058   0.365   2.484  0.3819 -0.3606 -0.1889
   17MOL   C130 5922   1.229   0.285   2.334  0.1213  0.3909  0.4278
   17MOL   C131 5923   1.342   0.374   2.389  0.1826 -0.8263  0.0449
   17MOL   C132 5924   1.418   0.314   2.511  0.0008  0.5029  0.2572
   17MOL   C133 5925   1.549   0.383   2.546  0.3501  0.2378  0.0409
   17MOL   C134 5926   1.626   0.326   2.662 -0.2535  0.6031 -0.6357
   17MOL   O135 5927   1.619   0.182   2.665  0.5693  0.2368 -0.7485
   17MOL   H136 5928   1.193   0.326   2.240  0.0667  0.2109  0.3709
   17MOL   H137 5929   1.261   0.182   2.322 -1.5472 -0.0153 -0.6434
   17MOL   H138 5930   1.307   0.472   2.420  3.3487  0.6716 -0.9191
   17MOL   H139 5931   1.415   0.390   2.310 -0.9127 -1.5253 -1.1137
   17MOL   H140 5932   1.438   0.209   2.493 -0.3867  0.3614  0.6396
   17MOL   H141 5933   1.351   0.320   2.597 -2.5789  0.2258 -1.6443
   17MOL   H142 5934   1.542   0.491   2.558 -1.8544  0.1317 -0.1345
   17MOL   H143 5935   1.607   0.384   2.454 -0.7413  1.5922 -0.6624
   17MOL   H144 5936   1.727   0.366   2.655 -0.3320  0.7203 -1.1334
   17MOL   H145 5937   1.582   0.357   2.757 -2.0333 -0.6853 -1.0100
   17MOL   C146 5938   1.688   0.129   2.755 -0.0910 -0.6971 -1.1446
   17MOL   O147 5939   1.770   0.182   2.835 -0.5070 -0.9550  0.1635
   17MOL   C148 5940   1.672   7.818   2.748  0.1145  0.3029  0.0694
   17MOL   C149 5941   1.552   7.777   2.831  0.3214  0.7595  0.1525
   17MOL   C150 5942   1.415   7.838   2.792 -0.2121  0.6853  0.3494
   17MOL   C151 5943   1.368   7.799   2.653  0.1563 -0.0645 -0.0100
   17MOL   C152 5944   1.329   7.653   2.638 -0.3162  0.7279 -0.1680
   17MOL   O153 5945   1.289   7.633   2.506 -1.1286  0.4705 -0.1071
   17MOL   H154 5946   1.756   7.765   2.793  0.3788 -1.5646 -2.4648
   17MOL   H155 5947   1.668   7.784   2.644 -0.1260  0.4835  0.0193
   17MOL   H156 5948   1.571   7.789   2.938 -4.3234 -2.0865  1.4476
   17MOL   H157 5949   1.542   7.669   2.836  2.0475  0.5912  0.2799
   17MOL   H158 5950   1.424   0.102   2.799 -0.4826  0.7141  0.2756
   17MOL   H159 5951   1.337   7.809   2.862 -0.9093 -0.7602 -1.0035
   17MOL   H160 5952   1.448   7.828   2.585 -1.0508 -0.4709 -1.6497
   17MOL   H161 5953   1.283   0.016   2.625  1.7440  1.1090 -2.4200
   17MOL   H162 5954   1.409   7.587   2.672 -2.6013 -1.4210  1.1553
   17MOL   H163 5955   1.241   7.628   2.697 -0.4796  1.3731 -0.1320
   17MOL   C164 5956   1.245   7.521   2.463 -0.0551  0.0886  0.4125
   17MOL   O165 5957   1.220   7.424   2.533 -0.0618 -0.1012 -0.1297
   17MOL   C166 5958   1.222   7.519   2.310 -0.7141  0.2031 -0.0591
   17MOL   C167 5959   1.174   7.381   2.251 -0.5706 -0.6143  0.0052
   17MOL   C168 5960   1.284   7.280   2.231 -0.5982  0.0931  0.0691
   17MOL   C169 5961   1.402   7.340   2.143  0.2294  0.3727 -0.3465
   17MOL   C170 5962   1.503   7.239   2.098  0.5866 -0.0143  0.7126
   17MOL   O171 5963   1.572   7.193   2.215  0.5030 -0.1725  0.0408
   17MOL   H172 5964   1.320   7.546   2.270 -0.5187 -0.2018  0.1391
   17MOL   H173 5965   1.150   7.598   2.288  0.4726  0.5902 -2.6761
   17MOL   H174 5966   1.116   7.411   2.164  1.4483  1.6598 -0.6134
   17MOL   H175 5967   1.101   7.344   2.323 -1.4681 -0.3284 -0.7549
   17MOL   H176 5968   1.234   7.197   2.181 -0.3755 -0.6568  1.0838
   17MOL   H177 5969   1.312   7.241   2.329  0.7612  1.1949  0.1363
   17MOL   H178 5970   1.460   7.409   2.203 -0.3799  2.4547 -2.0917
   17MOL   H179 5971   1.356   7.403   2.068 -0.0105 -0.9893 -1.3622
   17MOL   H180 5972   1.448   7.159   2.047  1.1060  0.4917 -0.6782
   17MOL   H181 5973   1.567   7.270   2.015 -0.7812  0.7658 -0.0679
   17MOL   C182 5974   1.703   7.211   2.232 -0.5291  0.0815  1.0553
   17MOL   O183 5975   1.763   7.291   2.160  0.0410  1.0665 -0.6300
   17MOL   C184 5976   1.771   7.143   2.341  0.0742  0.5841 -1.1766
   17MOL   C185 5977   1.711   7.016   2.394  0.1723  0.1551 -0.6569
   17MOL   C186 5978   1.572   7.008   2.454  0.6877 -0.6313  0.3147
   17MOL   C187 5979   1.552   6.882   2.536 -0.0441 -0.0832 -0.2913
   17MOL   C188 5980   1.412   6.882   2.602 -0.1737  0.6019  0.3442
   17MOL   O189 5981   1.411   6.965   2.719 -0.7240  0.3260  0.1475
   17MOL   H190 5982   1.765   7.210   2.427 -0.1923  0.0221 -0.7490
   17MOL   H191 5983   1.878   7.133   2.323 -0.0014 -0.6633 -1.0132
   17MOL   H192 5984   1.776   6.981   2.474  0.3255  1.0948 -0.3664
   17MOL   H193 5985   1.728   6.936   2.321 -0.5449 -1.3920  0.8331
   17MOL   H194 5986   1.494   7.029   2.380  0.2856  0.1786  0.9501
   17MOL   H195 5987   1.557   7.098   2.514 -0.2951  0.0724 -0.9491
   17MOL   H196 5988   1.625   6.862   2.615 -0.0094  1.2725  0.0255
   17MOL   H197 5989   1.571   6.795   2.473 -1.6812  0.1670 -1.1717
   17MOL   H198 5990   1.325   6.903   2.540  0.8361  3.6810 -0.1431
   17MOL   H199 5991   1.388   6.779   2.627  1.3993  0.4437  1.2821
   17MOL   C200 5992   1.297   6.966   2.782  0.2615 -0.2318  0.9547
   17MOL   O201 5993   1.200   6.891   2.764  0.0752  0.2289  0.4216
   17MOL   C202 5994   1.289   7.051   2.909 -0.2656  0.2184 -0.0005
   17MOL   C203 5995   1.287   7.210   2.880  0.0773 -0.4114  0.2988
   17MOL   C204 5996   1.422   7.277   2.909 -0.5116 -0.1560  0.1908
   17MOL   C205 5997   1.448   7.292   3.061  0.5241  0.7470  0.3744
   17MOL   C206 5998   1.583   7.355   3.070  0.4084  0.8057  0.7764
   17MOL   O207 5999   1.605   7.382   3.207  0.3894 -0.1496  0.4074
   17MOL   H208 6000   1.374   7.024   2.972 -0.0988  0.5982 -0.0619
   17MOL   H209 6001   1.197   7.030   2.964  1.0026  0.0132  2.0918
   17MOL   H210 6002   1.200   7.253   2.930 -1.0093 -2.0884 -0.1222
   17MOL   H211 6003   1.269   7.222   2.773  0.0195  2.1726  0.5756
   17MOL   H212 6004   1.434   7.374   2.859 -2.7740  0.0104 -0.1146
   17MOL   H213 6005   1.493   7.216   2.854 -0.8397 -0.4872  0.1330
   17MOL   H214 6006   1.467   7.190   3.096 -2.3027 -0.2356 -0.8322
   17MOL   H215 6007   1.369   7.348   3.110 -2.1688 -3.5448  1.1786
   17MOL   H216 6008   1.671   7.295   3.045 -0.7602 -1.3707  1.7224
   17MOL   H217 6009   1.583   7.451   3.020 -2.0296 -0.2752 -1.4253
   17MOL   C218 6010   1.676   7.303   3.284 -0.0058  0.1168 -0.2366
   17MOL   O219 6011   1.725   7.193   3.250  0.2201  0.3942  0.1163
   17MOL   C220 6012   1.680   7.351   3.435 -0.1670 -0.1888  0.3116
   17MOL   C221 6013   1.775   7.467   3.461 -0.4001  0.7736 -0.9964
   17MOL   C222 6014   1.921   7.419   3.461 -0.5653 -0.1366 -0.4365
   17MOL   C223 6015   2.018   7.540   3.488 -0.4103 -0.3323  0.3026
   17MOL   C224 6016   2.168   7.496   3.492 -0.2038 -0.1741  0.4113
   17MOL   O225 6017   2.228   7.468   3.367 -0.1335  0.5433  0.0586
   17MOL   H226 6018   1.698   7.265   3.498 -0.3383  0.0546  0.6963
   17MOL   H227 6019   1.578   7.381   3.461 -0.1214 -0.1296  0.4229
   17MOL   H228 6020   1.763   7.499   3.564  0.6473 -1.0474 -0.2842
   17MOL   H229 6021   1.761   7.560   3.407  2.5921  1.2136 -1.1266
   17MOL   H230 6022   1.950   7.361   3.374  0.5165  0.3339 -0.3996
   17MOL   H231 6023   1.941   7.352   3.546 -0.8745  0.5626  0.1945
   17MOL   H232 6024   1.987   7.581   3.584  0.9011  1.2374  0.0742
   17MOL   H233 6025   2.024   7.619   3.414  1.0882  0.3997  1.2052
   17MOL   H234 6026   2.233   7.572   3.537  2.0457 -1.6162 -0.3135
   17MOL   H235 6027   2.189   7.418   3.565  1.9051 -0.1619 -0.1414
   17MOL   C236 6028   2.252   7.339   3.336 -0.2559  0.3889  0.3061
   17MOL   O237 6029   2.206   7.244   3.401 -0.2972  0.1039  0.0710
   17MOL   C238 6030   2.325   7.309   3.202  0.1376  0.8288  0.3651
   17MOL   C239 6031   2.234   7.297   3.081 -0.3350  0.2221  0.4448
   17MOL   C240 6032   2.312   7.280   2.943  0.5534  0.5629 -0.6436
   17MOL   C241 6033   2.207   7.250   2.834 -0.1860  0.3750  0.5621
   17MOL   C242 6034   2.277   7.238   2.692 -0.6938  0.1242  0.0466
   17MOL   O243 6035   2.246   7.350   2.611 -0.4224 -0.3216  0.7512
   17MOL   H244 6036   2.382   7.217   3.217 -1.5428 -0.6983 -2.2467
   17MOL   H245 6037   2.402   7.382   3.177  0.8067 -0.5168 -1.6234
   17MOL   H246 6038   2.151   7.367   3.084 -3.6125 -3.5655  2.3645
   17MOL   H247 6039   2.178   7.207   3.103 -1.5613  1.0054  0.5659
   17MOL   H248 6040   2.382   7.196   2.945 -1.5876 -1.3885 -3.1178
   17MOL   H249 6041   2.378   7.363   2.919  0.1752  1.8634  2.6798
   17MOL   H250 6042   2.138   7.334   2.829 -2.7592 -1.6722  0.7052
   17MOL   H251 6043   2.147   7.161   2.854  2.0844 -2.0025 -2.5870
   17MOL   H252 6044   2.385   7.222   2.698 -0.6902  0.2582  0.3382
   17MOL   H253 6045   2.242   7.148   2.641  1.9537 -1.0000  0.1100
   17MOL   C254 6046   2.142   7.349   2.528 -0.2057 -0.4342 -0.7611
   17MOL   O255 6047   2.067   7.258   2.499  0.9735  0.6757  0.5105
   17MOL   C256 6048   2.122   7.491   2.484 -0.3305 -0.0655  0.5164
   17MOL   C257 6049   2.040   7.513   2.347  0.1315 -0.5305 -0.1402
   17MOL   C258 6050   2.125   7.549   2.222 -0.3614 -0.3374  0.4466
   17MOL   C259 6051   2.035   7.539   2.097 -0.3000 -0.1379  0.3045
   17MOL   C260 6052   2.103   7.588   1.972 -0.8481  0.4647  0.0515
   17MOL   O261 6053   2.202   7.503   1.923 -0.6834  0.2902 -0.6031
   17MOL   H262 6054   2.222   7.535   2.482  0.0796 -1.0265 -1.6014
   17MOL   H263 6055   2.069   7.532   2.569  0.2809 -0.9687  1.3437
   17MOL   H264 6056   1.973   7.597   2.363  0.4151 -0.2991 -0.1700
   17MOL   H265 6057   1.977   7.426   2.328 -0.1030 -0.9110  2.2419
   17MOL   H266 6058   2.209   7.481   2.227 -0.6324 -0.7010  0.0637
   17MOL   H267 6059   2.171   7.647   2.234 -0.9457  0.0030 -0.0558
   17MOL   H268 6060   1.953   7.606   2.121  0.8229  0.8742  1.3722
   17MOL   H269 6061   1.984   7.444   2.081 -1.5630  0.5857 -0.0549
   17MOL   H270 6062   2.022   7.594   1.898  2.0076 -2.0414 -3.4145
   17MOL   H271 6063   2.140   7.687   2.000  0.0928  0.2084 -0.2897
   17MOL   C272 6064   2.307   7.542   1.855  0.2292 -0.2367  0.2700
   17MOL   O273 6065   2.320   7.660   1.819 -0.0357  0.5170 -0.3353
   17MOL   C274 6066   2.409   7.436   1.822 -0.8427 -0.3970 -0.3040
   17MOL   C275 6067   2.401   7.312   1.907  0.1979  0.1419  0.2149
   17MOL   C276 6068   2.435   7.324   2.054 -1.0820 -0.5715 -0.3483
   17MOL   C277 6069   2.389   7.203   2.138 -0.2645  0.2435  0.2164
   17MOL   C278 6070   2.419   7.211   2.289 -0.3233  0.2236 -0.4494
   17MOL   O279 6071   2.546   7.140   2.312 -0.0596 -0.0267  0.6773
   17MOL   H280 6072   2.509   7.479   1.821 -1.8401  2.0603 -4.1431
   17MOL   H281 6073   2.394   7.422   1.714  0.4433  1.3772 -0.7249
   17MOL   H282 6074   2.443   7.224   1.858  1.9490  0.7327  0.6497
   17MOL   H283 6075   2.299   7.273   1.905  0.0361  0.3649  2.4459
   17MOL   H284 6076   2.400   7.419   2.095 -1.1134 -1.5485  1.9025
   17MOL   H285 6077   2.542   7.338   2.065 -1.2400  1.3923 -1.0020
   17MOL   H286 6078   2.447   7.119   2.101 -3.5420 -1.4253 -1.2785
   17MOL   H287 6079   2.283   7.190   2.118 -0.1317 -3.1277  1.3816
   17MOL   H288 6080   2.411   7.317   2.315  1.7813  0.1813  0.4943
   17MOL   H289 6081   2.332   7.163   2.333  0.1603 -0.6510 -0.4319
   17MOL   C290 6082   2.582   7.100   2.429 -0.1911 -0.0543  0.1719
   17MOL   O291 6083   2.515   7.111   2.528  0.3246  0.1861 -0.1803
   17MOL   C292 6084   2.715   7.042   2.432  1.2121  0.1124  0.7799
   17MOL   C293 6085   2.715   6.896   2.381 -0.0604 -0.4134 -0.2328
   17MOL   C294 6086   2.683   6.791   2.483 -0.1511  0.0685  0.2449
   17MOL   C295 6087   2.716   6.649   2.459  0.1920 -0.0462  0.1257
   17MOL   C296 6088   2.679   6.559   2.579 -0.0034  0.2623 -0.1750
   17MOL   O297 6089   2.543   6.582   2.628  0.1272  0.3180 -0.0622
   17MOL   H298 6090   2.757   7.046   2.533  1.2810  2.7128  0.7013
   17MOL   H299 6091   2.780   7.098   2.364 -1.2801 -0.0139 -1.7764
   17MOL   H300 6092   2.813   6.863   2.346 -0.5473 -1.2713 -0.8045
   17MOL   H301 6093   2.652   6.887   2.293 -0.5820 -1.4338  0.2330
   17MOL   H302 6094   2.584   6.816   2.521 -0.0195 -1.0324  1.3402
   17MOL   H303 6095   2.752   6.812   2.565 -1.8830  1.3100  1.4179
   17MOL   H304 6096   2.805   6.618   2.404  0.0084  1.4881 -1.0488
   17MOL   H305 6097   2.641   6.624   2.383  0.4218 -0.1143 -0.0792
   17MOL   H306 6098   2.697   6.458   2.541 -0.3426 -0.0055  0.3661
   17MOL   H307 6099   2.750   6.575   2.660 -0.4235  2.3333 -0.1999
   17MOL   C308 6100   2.493   6.499   2.706  0.5732  0.8420  0.0739
   17MOL   O309 6101   2.553   6.424   2.777  0.1597  0.2889  0.2513
   17MOL   C310 6102   2.344   6.492   2.706  1.2450 -0.8823 -0.4069
   17MOL   C311 6103   2.271   6.624   2.722 -0.2681 -0.0120 -0.4685
   17MOL   C312 6104   2.245   6.714   2.600  0.0104  0.4232  0.0240
   17MOL   C313 6105   2.151   6.831   2.632  0.0557 -0.1087 -0.0853
   17MOL   C314 6106   2.127   6.923   2.513 -0.2023  0.1755  0.1429
   17MOL   O315 6107   2.041   6.853   2.420 -0.0915  0.0349  0.0517
   17MOL   H316 6108   2.311   6.424   2.785 -2.5710 -0.5715 -1.6122
   17MOL   H317 6109   2.313   6.446   2.612  2.3159  1.9928 -2.2009
   17MOL   H318 6110   2.320   6.686   2.796  1.3919  0.0531 -1.6086
   17MOL   H319 6111   2.175   6.605   2.771 -0.8905  2.0405 -0.8384
   17MOL   H320 6112   2.220   6.666   2.506  0.6382  3.1549 -1.5874
   17MOL   H321 6113   2.340   6.765   2.586 -0.6432  1.8792  0.7148
   17MOL   H322 6114   2.197   6.899   2.704 -0.4222 -1.5053  1.5839
   17MOL   H323 6115   2.052   6.802   2.667 -1.3823 -0.1154 -4.0253
   17MOL   H324 6116   2.073   7.009   2.554 -1.2016 -0.9495  1.2503
   17MOL   H325 6117   2.224   6.957   2.479 -0.1895  1.0478  0.9971
   17MOL   C326 6118   2.097   6.813   2.300 -0.8218 -0.2065  1.1135
   17MOL   O327 6119   2.212   6.838   2.257  0.4396  0.0507 -0.1875
   17MOL   C328 6120   2.004   6.719   2.218  0.2685  0.0563  0.2499
   17MOL   C329 6121   2.079   6.604   2.153 -1.0987  0.0405  0.3270
   17MOL   C330 6122   1.988   6.515   2.063  0.9550  1.3280  0.2146
   17MOL   C331 6123   2.058   6.400   1.987 -0.0297  0.4090 -0.2171
   17MOL   C332 6124   1.981   6.347   1.866  0.4082 -0.3613  0.4706
   17MOL   O333 6125   1.847   6.313   1.899  0.3502  0.1829  0.1002
   17MOL   H334 6126   1.955   6.776   2.139  0.0162  2.5146  2.1341
   17MOL   H335 6127   1.933   6.676   2.288 -0.9354  0.7833 -0.5022
   17MOL   H336 6128   2.127   6.547   2.233 -0.8355  1.0136  0.8634
   17MOL   H337 6129   2.151   6.647   2.084 -1.1907  1.2060  0.9447
   17MOL   H338 6130   1.936   6.585   1.997  0.6558  0.6146 -0.3172
   17MOL   H339 6131   1.895   6.483   2.109  0.4967  1.8258 -0.3451
   17MOL   H340 6132   2.063   6.313   2.052  3.0868  1.1073  0.5778
   17MOL   H341 6133   2.158   6.426   1.951 -0.1599  1.3630  0.0818
   17MOL   H342 6134   1.990   6.422   1.787  1.8883 -1.7763 -0.7451
   17MOL   H343 6135   2.031   6.256   1.832  3.4947  2.3205 -2.5650
   17MOL   C344 6136   1.752   6.367   1.825 -0.6913 -0.3880 -0.0062
   17MOL   O345 6137   1.762   6.463   1.751  0.0546  0.2553  0.3520
   17MOL   C346 6138   1.621   6.296   1.831  0.4836 -0.0031 -0.7684
   17MOL   C347 6139   1.509   6.359   1.745 -0.8689 -0.5599  0.3708
   17MOL   C348 6140   1.513   6.324   1.595  0.5213 -0.1077  0.5520
   17MOL   C349 6141   1.383   6.361   1.520  0.6644 -0.1721 -0.7278
   17MOL   C350 6142   1.396   6.351   1.363  0.3567 -0.2851  0.0397
   17MOL   O351 6143   1.270   6.383   1.313  1.1106  0.3732  1.0239
   17MOL   H352 6144   1.583   6.302   1.933  1.8947  4.1760 -0.4291
   17MOL   H353 6145   1.628   6.188   1.817  0.0231 -0.4823  2.2545
   17MOL   H354 6146   1.502   6.467   1.759  0.1499 -0.2159 -1.5802
   17MOL   H355 6147   1.413   6.323   1.781  0.0758 -3.2093  0.3897
   17MOL   H356 6148   1.535   6.218   1.586  0.0266 -0.1204 -0.5276
   17MOL   H357 6149   1.591   6.385   1.550 -0.4322  0.4572 -0.3448
   17MOL   H358 6150   1.351   6.458   1.558 -3.6764 -1.6261 -0.3406
   17MOL   H359 6151   1.310   6.289   1.559  2.3389 -2.2275 -1.3317
   17MOL   H360 6152   1.466   6.427   1.327 -2.4006  0.5511 -3.8764
   17MOL   H361 6153   1.442   6.261   1.323  0.3373 -0.3534  0.1694
   17MOL   H362 6154   1.265   6.334   1.232  0.8744  1.5091  0.3488
   18MOL     C1 6155   4.388   1.564   1.938  0.4717 -0.1636 -0.4669
   18MOL     O2 6156   4.394   1.524   2.055  0.8591  0.2846  0.2506
   18MOL     C3 6157   4.516   1.603   1.870  0.0372 -0.4430 -0.4020
   18MOL     C4 6158   4.638   1.603   1.960 -0.6050 -0.1590 -0.0971
   18MOL     C5 6159   4.775   1.591   1.891  0.3329  0.1940  0.0669
   18MOL     C6 6160   4.900   1.608   1.985  0.2317 -0.8662  0.5365
   18MOL     C7 6161   5.042   1.617   1.932 -0.1421  0.4646  0.4111
   18MOL     O8 6162   5.061   1.728   1.856 -0.1838 -0.8135 -0.8614
   18MOL     H9 6163   4.500   1.708   1.842 -0.7445 -0.3051  0.5393
   18MOL    H10 6164   4.538   1.537   1.786  3.6237  1.2989 -0.9598
   18MOL    H11 6165   4.631   1.528   2.039 -0.8482  0.3764  0.3973
   18MOL    H12 6166   4.624   1.687   2.029 -0.0974 -0.5817  0.5336
   18MOL    H13 6167   4.781   1.670   1.816 -3.6327  2.3386  1.8276
   18MOL    H14 6168   4.781   1.494   1.842 -0.4370 -0.4882  1.3183
   18MOL    H15 6169   4.897   1.537   2.068  2.7151  1.7280  2.9753
   18MOL    H16 6170   4.887   1.699   2.044  1.0073 -0.4405  0.0573
   18MOL    H17 6171   5.126   1.611   2.002  2.2227 -3.8872 -2.4973
   18MOL    H18 6172   5.052   1.535   1.861  0.0110  0.2984  0.6223
   18MOL    H19 6173   4.291   1.597   1.900 -0.4083 -1.8655  0.2592
   18MOL    C20 6174   5.171   1.746   1.793  0.7477  0.5463 -0.3726
   18MOL    O21 6175   5.268   1.673   1.794  0.0850 -0.0607  0.7505
   18MOL    C22 6176   5.163   1.873   1.708  0.4485  0.4458  0.3934
   18MOL    C23 6177   5.275   1.895   1.601  0.1322 -0.4206  0.7039
   18MOL    C24 6178   5.283   1.805   1.484 -0.6620  0.5553  0.3356
   18MOL    C25 6179   5.210   1.866   1.364 -0.0872  0.2654 -0.3415
   18MOL    C26 6180   5.205   1.769   1.241  0.2917 -0.7120  0.8000
   18MOL    O27 6181   5.343   1.750   1.211 -0.3678 -0.2117 -0.7779
   18MOL    H28 6182   5.148   1.963   1.767  2.0398  0.6366  0.5486
   18MOL    H29 6183   5.066   1.877   1.658  2.3547  0.7444 -3.4920
   18MOL    H30 6184   5.370   1.873   1.650  0.0079 -1.2513  0.5808
   18MOL    H31 6185   5.291   2.000   1.576  1.1346 -0.2115  2.1264
   18MOL    H32 6186   5.264   1.700   1.508 -1.0614  0.6707  0.5297
   18MOL    H33 6187   5.390   1.803   1.464 -0.8488 -1.2504 -0.6316
   18MOL    H34 6188   5.254   1.962   1.334 -0.3000 -0.6522 -3.7865
   18MOL    H35 6189   5.107   1.877   1.398 -0.4695 -0.8422 -1.1124
   18MOL    H36 6190   5.157   1.674   1.265  1.1577 -1.1161  0.9477
   18MOL    H37 6191   5.150   1.820   1.162 -0.5427 -1.1274  1.1045
   18MOL    C38 6192   5.375   1.646   1.138  0.0105  0.6552 -0.8694
   18MOL    O39 6193   5.289   1.566   1.097 -0.2046  0.1023 -0.1619
   18MOL    C40 6194   5.523   1.618   1.129 -0.2270  0.6443 -0.1096
   18MOL    C41 6195   5.620   1.737   1.116 -0.1219  1.2901 -0.3637
   18MOL    C42 6196   5.627   1.806   0.974  0.0754 -0.1089  0.1801
   18MOL    C43 6197   5.707   1.939   0.977  0.2952  0.0406 -1.0405
   18MOL    C44 6198   5.703   2.013   0.850 -0.0779 -1.0095 -0.7007
   18MOL    O45 6199   5.746   1.931   0.737  0.0038 -0.1248  0.2558
   18MOL    H46 6200   5.543   1.542   1.054 -1.5386 -0.2609  0.4351
   18MOL    H47 6201   5.543   1.566   1.223 -1.7749 -0.4669 -0.3807
   18MOL    H48 6202   5.719   1.700   1.143 -1.0501  0.0982  1.4541
   18MOL    H49 6203   5.610   1.813   1.194  1.1115  0.8947  0.1909
   18MOL    H50 6204   5.529   1.817   0.927 -0.5116 -1.7836  0.9587
   18MOL    H51 6205   5.667   1.727   0.910 -1.3851 -0.8182  0.0976
   18MOL    H52 6206   5.810   1.917   1.006 -0.1844 -0.3185  0.4257
   18MOL    H53 6207   5.663   2.011   1.047  0.2660 -0.1443 -0.8657
   18MOL    H54 6208   5.601   2.048   0.836  0.0791 -0.0751  0.4361
   18MOL    H55 6209   5.750   2.109   0.867  0.0062 -0.8733 -1.6460
   18MOL    C56 6210   5.870   1.923   0.715 -0.0360 -0.2149  0.1628
   18MOL    O57 6211   5.959   1.990   0.762  0.2633 -0.2112 -0.1033
   18MOL    C58 6212   5.897   1.817   0.605 -0.2963 -0.4874  0.9264
   18MOL    C59 6213   5.848   1.872   0.469  0.4522  0.7215 -0.0119
   18MOL    C60 6214   5.880   1.766   0.357 -0.1483 -0.5986  0.7063
   18MOL    C61 6215   5.821   1.815   0.223 -1.1452 -0.8047 -0.4134
   18MOL    C62 6216   5.818   1.705   0.114  0.0732  0.0737 -0.2038
   18MOL    O63 6217   5.742   1.600   0.157  0.0449 -0.3439  0.0029
   18MOL    H64 6218   5.841   1.727   0.628  0.9122 -1.8771 -1.3292
   18MOL    H65 6219   6.002   1.786   0.606 -0.7702 -2.1569  0.8704
   18MOL    H66 6220   5.891   1.969   0.443  1.9461  1.1412  3.6559
   18MOL    H67 6221   5.744   1.902   0.480 -0.1364 -1.6600  1.2575
   18MOL    H68 6222   5.829   1.676   0.392 -0.3327 -0.6919  0.1974
   18MOL    H69 6223   5.988   1.754   0.352 -0.1151  0.6037 -2.6799
   18MOL    H70 6224   5.889   1.892   0.184 -0.0394 -1.1126  0.8908
   18MOL    H71 6225   5.726   1.867   0.239 -1.0780 -1.2018  1.3351
   18MOL    H72 6226   5.776   1.749   0.023 -1.3438  0.5522  0.6572
   18MOL    H73 6227   5.921   1.674   0.098 -0.0606  0.4941 -2.0867
   18MOL    C74 6228   5.786   1.476   0.143  0.1473  0.8350 -0.0338
   18MOL    O75 6229   5.879   1.432   0.074 -0.2017  0.0856  0.8344
   18MOL    C76 6230   5.690   1.380   0.219  0.8699 -0.0921 -0.9360
   18MOL    C77 6231   5.703   1.231   0.188 -0.4749 -0.5144  0.5517
   18MOL    C78 6232   5.582   1.149   0.242 -0.4669  0.0988 -1.0422
   18MOL    C79 6233   5.581   0.994   0.233 -0.2428  0.4343  0.3719
   18MOL    C80 6234   5.445   0.930   0.273 -0.5385  0.4994 -0.0919
   18MOL    O81 6235   5.427   0.936   0.413 -0.0890 -0.2367  0.8722
   18MOL    H82 6236   5.587   1.408   0.199  0.6258  0.0311  0.4115
   18MOL    H83 6237   5.686   1.391   0.327 -0.4895  3.8463 -1.3166
   18MOL    H84 6238   5.796   1.201   0.235 -0.2146  0.6503  0.8041
   18MOL    H85 6239   5.716   1.221   0.080 -3.7203 -2.6815  0.2905
   18MOL    H86 6240   5.490   1.186   0.198 -0.3118 -0.3281 -1.7356
   18MOL    H87 6241   5.577   1.187   0.344 -0.5557  2.4090 -1.8766
   18MOL    H88 6242   5.663   0.952   0.291  0.1032  0.6242  0.0255
   18MOL    H89 6243   5.600   0.963   0.130  1.3148 -2.4722  1.4908
   18MOL    H90 6244   5.364   0.975   0.216  1.6645  1.5545 -2.4504
   18MOL    H91 6245   5.445   0.823   0.248  0.2634 -0.4528  3.6746
   18MOL    C92 6246   5.298   0.944   0.456  0.1019  0.4043  0.2572
   18MOL    O93 6247   5.205   0.968   0.381  0.2249  0.2653  0.8642
   18MOL    C94 6248   5.285   0.934   0.606 -0.1217  0.3582 -0.0375
   18MOL    C95 6249   5.311   1.068   0.678  0.2245  0.6168 -0.3707
   18MOL    C96 6250   5.393   1.071   0.808 -0.2925 -0.2363 -0.3628
   18MOL    C97 6251   5.390   1.191   0.895  0.0966  0.0403 -0.1382
   18MOL    C98 6252   5.495   1.193   1.007 -0.3180 -0.2543 -0.2424
   18MOL    O99 6253   5.471   1.095   1.114 -0.3425 -0.3609  0.1102
   18MOL   H100 6254   5.360   0.858   0.626 -0.3688 -0.1282 -0.9491
   18MOL   H101 6255   5.188   0.899   0.641 -0.1546  3.2979  3.2038
   18MOL   H102 6256   5.215   1.113   0.704  0.1841  1.1326 -1.4038
   18MOL   H103 6257   5.348   1.144   0.609 -0.9971  1.9996  0.4563
   18MOL   H104 6258   5.498   1.052   0.785 -0.7939 -1.6311 -1.5948
   18MOL   H105 6259   5.370   0.984   0.870  2.6177 -0.5259  0.3699
   18MOL   H106 6260   5.292   1.205   0.941  0.4117  2.5319 -0.1519
   18MOL   H107 6261   5.403   1.278   0.831  2.1604  0.6883  1.1198
   18MOL   H108 6262   5.598   1.194   0.972  0.1073 -0.2547  0.9975
   18MOL   H109 6263   5.485   1.283   1.068  0.3651 -0.8076  0.6910
   18MOL   C110 6264   5.540   0.979   1.115 -0.1212  0.7279 -0.0174
   18MOL   O111 6265   5.616   0.946   1.022  0.2942  0.0972 -0.0817
   18MOL   C112 6266   5.507   0.907   1.247  0.3577 -0.3012 -0.1451
   18MOL   C113 6267   5.442   0.766   1.218  0.0552 -0.6554  0.0192
   18MOL   C114 6268   5.287   0.768   1.217  0.4885 -0.0968  0.4241
   18MOL   C115 6269   5.215   0.789   1.084 -0.3091  0.2345 -0.4256
   18MOL   C116 6270   5.067   0.740   1.076 -0.4531  0.0659  0.4295
   18MOL   O117 6271   5.006   0.773   0.953 -0.0692  0.3242  0.1643
   18MOL   H118 6272   5.437   0.973   1.298  0.8830 -0.6038  0.9957
   18MOL   H119 6273   5.599   0.888   1.303  0.0967 -1.7572 -0.1763
   18MOL   H120 6274   5.466   0.692   1.294  0.3950 -0.2071  0.3483
   18MOL   H121 6275   5.479   0.720   1.127 -2.1895 -1.8190 -0.3479
   18MOL   H122 6276   5.246   0.842   1.286 -0.8794 -1.4498  1.0703
   18MOL   H123 6277   5.250   0.685   1.277  0.7784  0.1385  0.9333
   18MOL   H124 6278   5.276   0.732   1.013  2.1622  0.6043  1.3434
   18MOL   H125 6279   5.223   0.895   1.059 -2.2218  1.8390  5.0524
   18MOL   H126 6280   5.061   0.631   1.079  0.1835  0.0300  0.4590
   18MOL   H127 6281   5.006   0.769   1.162 -0.1533 -1.6045  1.2393
   18MOL   C128 6282   4.910   0.865   0.936  0.5453  0.0540 -0.1405
   18MOL   O129 6283   4.849   0.916   1.026  0.1063  0.1132  0.6207
   18MOL   C130 6284   4.875   0.890   0.786 -0.1143 -0.2431 -0.2382
   18MOL   C131 6285   4.740   0.955   0.761  0.2139 -0.1536  0.1021
   18MOL   C132 6286   4.617   0.864   0.773  0.2819 -0.1682 -0.1203
   18MOL   C133 6287   4.489   0.928   0.720 -0.0615  0.4062  0.0487
   18MOL   C134 6288   4.381   0.824   0.682 -0.4667  0.0066 -0.3984
   18MOL   O135 6289   4.265   0.891   0.642 -0.4580  0.1299  0.3569
   18MOL   H136 6290   4.891   0.791   0.745 -0.3738 -1.0510  1.5350
   18MOL   H137 6291   4.946   0.960   0.744  0.6640  0.0374  1.5089
   18MOL   H138 6292   4.743   0.979   0.655 -2.3225  1.9969  0.4325
   18MOL   H139 6293   4.735   1.049   0.816 -0.8518  1.8208 -3.2212
   18MOL   H140 6294   4.609   0.827   0.875  2.2309 -0.7053 -0.1412
   18MOL   H141 6295   4.639   0.765   0.734  1.6280 -0.4850  1.3756
   18MOL   H142 6296   4.500   0.988   0.630  1.9724  0.1689  0.1141
   18MOL   H143 6297   4.449   1.001   0.790  1.0246 -0.8253  2.0173
   18MOL   H144 6298   4.428   0.786   0.591  0.6394 -0.7514  0.4839
   18MOL   H145 6299   4.351   0.744   0.749  1.2977 -1.9320 -1.8730
   18MOL   C146 6300   4.170   0.825   0.577  0.2152  0.1508  0.2158
   18MOL   O147 6301   4.182   0.712   0.529  0.0676 -0.0994 -0.4726
   18MOL   C148 6302   4.041   0.905   0.567  0.7031  0.4222 -0.2709
   18MOL   C149 6303   3.962   0.913   0.710  0.3783 -0.0067  0.8260
   18MOL   C150 6304   3.919   0.781   0.774 -0.2072  0.4171 -0.0108
   18MOL   C151 6305   3.873   0.800   0.922 -1.1534  0.2706 -0.4579
   18MOL   C152 6306   3.975   0.769   1.033  0.2861  0.2060  0.0340
   18MOL   O153 6307   4.087   0.862   1.028  0.1802 -0.0034  0.3799
   18MOL   H154 6308   3.972   0.854   0.501 -1.2530  1.9607  0.5250
   18MOL   H155 6309   4.050   1.002   0.518  0.7284  1.1834  1.2192
   18MOL   H156 6310   3.882   0.986   0.702 -1.7615 -2.0061  3.1068
   18MOL   H157 6311   4.026   0.969   0.778  0.6393  0.7122  0.0006
   18MOL   H158 6312   3.985   0.696   0.760  0.1863  0.7959 -0.4981
   18MOL   H159 6313   3.828   0.754   0.721  0.0757  3.8477 -2.4238
   18MOL   H160 6314   3.786   0.736   0.935 -0.3743 -1.4458 -3.2676
   18MOL   H161 6315   3.834   0.900   0.941 -2.0744 -0.3486  0.9851
   18MOL   H162 6316   3.940   0.768   1.136 -1.1162  1.7521 -0.4150
   18MOL   H163 6317   4.007   0.670   0.998 -0.0005 -0.2247  0.9743
   18MOL   C164 6318   4.188   0.849   1.107 -0.2665 -0.3890 -0.8122
   18MOL   O165 6319   4.180   0.804   1.219  0.4198 -0.2887 -0.6328
   18MOL   C166 6320   4.320   0.917   1.058 -0.2047 -0.1598  0.1342
   18MOL   C167 6321   4.373   1.026   1.148  0.4934  0.2504  0.0017
   18MOL   C168 6322   4.503   1.084   1.090  0.2427  0.6975  0.2162
   18MOL   C169 6323   4.528   1.221   1.147 -0.0379 -0.1227  0.1765
   18MOL   C170 6324   4.601   1.231   1.282 -0.3669  0.0611  0.4925
   18MOL   O171 6325   4.576   1.122   1.368  0.5453 -0.1680  0.7334
   18MOL   H172 6326   4.289   0.975   0.971  1.5896  1.5188  0.5749
   18MOL   H173 6327   4.387   0.834   1.037 -0.7937 -0.4040 -0.8235
   18MOL   H174 6328   4.379   0.979   1.246 -1.3864  0.7244  0.3726
   18MOL   H175 6329   4.295   1.101   1.164  1.1931  1.2047 -1.0207
   18MOL   H176 6330   4.508   1.082   0.981  0.8016 -0.5522  0.2577
   18MOL   H177 6331   4.590   1.022   1.109  1.3875  1.7283 -1.4478
   18MOL   H178 6332   4.434   1.273   1.166  0.3618  0.2816  1.1050
   18MOL   H179 6333   4.579   1.284   1.074 -0.2121  0.1964  0.3270
   18MOL   H180 6334   4.710   1.230   1.272 -0.6566 -0.4974 -3.0003
   18MOL   H181 6335   4.571   1.330   1.319  0.9670 -0.1245  2.1675
   18MOL   C182 6336   4.570   1.155   1.506  0.0850  0.7211  0.1612
   18MOL   O183 6337   4.581   1.265   1.551  0.4478  0.3578  0.5584
   18MOL   C184 6338   4.542   1.033   1.588  0.1576 -0.2685  0.0639
   18MOL   C185 6339   4.393   1.038   1.620  0.1510  0.5609 -0.4644
   18MOL   C186 6340   4.295   1.003   1.507  0.4069 -0.2146 -0.3465
   18MOL   C187 6341   4.154   1.016   1.562 -0.1673 -0.5333 -0.7331
   18MOL   C188 6342   4.039   0.991   1.465  0.2998 -0.6540  0.6165
   18MOL   O189 6343   4.040   1.091   1.366  0.1997 -0.4643  0.3847
   18MOL   H190 6344   4.601   1.030   1.679  1.9194 -0.3211 -1.0552
   18MOL   H191 6345   4.569   0.947   1.526 -0.3868  0.5374 -1.3140
   18MOL   H192 6346   4.358   1.133   1.659 -3.0958 -0.3399 -1.0378
   18MOL   H193 6347   4.377   0.974   1.707  1.7564  0.3002 -0.3496
   18MOL   H194 6348   4.321   0.901   1.479  1.2010 -0.1238  0.0509
   18MOL   H195 6349   4.303   1.070   1.421  1.8847  1.9023  1.4016
   18MOL   H196 6350   4.143   1.120   1.593 -0.9707 -0.2461 -1.9225
   18MOL   H197 6351   4.148   0.949   1.648  2.6955 -0.7875 -0.6926
   18MOL   H198 6352   4.055   0.892   1.423  0.5442  0.1937 -1.4000
   18MOL   H199 6353   3.945   0.988   1.520  0.6955 -1.0379  1.2753
   18MOL   C200 6354   3.951   1.089   1.277 -0.0410  0.4126  0.2460
   18MOL   O201 6355   3.847   1.035   1.273 -0.0999  0.4746 -0.4063
   18MOL   C202 6356   3.998   1.172   1.156  0.3138 -0.7922  0.2199
   18MOL   C203 6357   3.884   1.250   1.090  0.1385  0.2960 -0.7589
   18MOL   C204 6358   3.799   1.177   0.993 -0.1105 -0.0697  0.6825
   18MOL   C205 6359   3.693   1.276   0.939 -0.0293  0.7016  0.6968
   18MOL   C206 6360   3.564   1.267   1.023  0.2473  0.6329  0.3321
   18MOL   O207 6361   3.458   1.349   0.974  0.4276  0.3261 -0.1444
   18MOL   H208 6362   4.060   1.113   1.088  0.6606 -1.6415  1.2519
   18MOL   H209 6363   4.068   1.250   1.184  0.6456 -0.3624 -1.7402
   18MOL   H210 6364   3.924   1.338   1.038  1.2937  1.0074  1.2914
   18MOL   H211 6365   3.831   1.304   1.168 -0.1427 -0.8793 -0.1362
   18MOL   H212 6366   3.756   1.085   1.032  1.4523 -1.4675 -0.8179
   18MOL   H213 6367   3.851   1.132   0.909 -1.8365  0.8681 -0.9358
   18MOL   H214 6368   3.674   1.251   0.835  1.0973  4.2816 -0.4342
   18MOL   H215 6369   3.726   1.380   0.939 -0.9584  1.0016  0.2477
   18MOL   H216 6370   3.525   1.165   1.024  0.9913  0.3454  1.3669
   18MOL   H217 6371   3.594   1.297   1.124  0.4346 -1.2490  0.8572
   18MOL   C218 6372   3.346   1.359   1.042 -0.7258  0.5371  0.4616
   18MOL   O219 6373   3.330   1.316   1.155  0.8622 -0.0646 -0.1857
   18MOL   C220 6374   3.231   1.421   0.963  0.3024  1.1638 -0.5874
   18MOL   C221 6375   3.091   1.382   1.022 -0.3963  0.2707  0.3655
   18MOL   C222 6376   3.047   1.233   1.007  0.1077 -0.0512  0.0977
   18MOL   C223 6377   3.010   1.198   0.864  0.8915 -0.2970  0.3406
   18MOL   C224 6378   2.936   1.065   0.852 -0.0484  0.8774  0.1106
   18MOL   O225 6379   2.881   1.041   0.720 -0.4243 -0.3630 -0.0430
   18MOL   H226 6380   3.235   1.390   0.859  3.5327 -2.7656  0.5640
   18MOL   H227 6381   3.247   1.528   0.947 -2.0210  1.6063 -0.1331
   18MOL   H228 6382   3.014   1.444   0.976  0.0884  2.3825  2.3340
   18MOL   H229 6383   3.076   1.402   1.128 -0.0391  0.2535  0.4169
   18MOL   H230 6384   2.965   1.220   1.078  2.0162 -2.2657  1.9631
   18MOL   H231 6385   3.131   1.171   1.036  1.2357  1.7498  0.7995
   18MOL   H232 6386   3.100   1.189   0.803  2.6025  1.6237  2.4463
   18MOL   H233 6387   2.942   1.277   0.831  0.7949 -0.0913  1.0183
   18MOL   H234 6388   2.999   0.981   0.882 -0.9719 -0.1932 -0.9222
   18MOL   H235 6389   2.852   1.048   0.919 -0.3174  0.2269 -0.3801
   18MOL   C236 6390   2.916   0.941   0.634 -0.6858 -0.6052  0.8757
   18MOL   O237 6391   3.003   0.859   0.657 -0.0202  0.2791  0.5084
   18MOL   C238 6392   2.826   0.937   0.501  0.1519 -0.1384 -0.4845
   18MOL   C239 6393   2.677   0.896   0.525 -0.1565  0.1574  0.3639
   18MOL   C240 6394   2.642   0.753   0.476  0.3507 -0.9344 -0.0652
   18MOL   C241 6395   2.489   0.742   0.450 -0.7810  0.0032 -0.4262
   18MOL   C242 6396   2.406   0.805   0.562 -0.3480  0.9223 -0.9123
   18MOL   O243 6397   2.272   0.817   0.515 -0.1440 -0.1097  0.4002
   18MOL   H244 6398   2.877   0.874   0.429 -2.8012 -1.5289 -1.4458
   18MOL   H245 6399   2.828   1.039   0.464 -0.0050 -0.0688 -0.3050
   18MOL   H246 6400   2.620   0.976   0.476  2.1351  3.0381  2.2259
   18MOL   H247 6401   2.658   0.909   0.631  1.1489  0.6170  0.5539
   18MOL   H248 6402   2.687   0.696   0.557  0.0097  1.3162  1.7658
   18MOL   H249 6403   2.697   0.741   0.383 -0.1427  0.8145 -0.6133
   18MOL   H250 6404   2.464   0.642   0.414 -3.3387  0.5656 -0.3509
   18MOL   H251 6405   2.468   0.802   0.362  0.5856  0.0291 -0.7479
   18MOL   H252 6406   2.418   0.743   0.651 -4.1624 -2.1677 -2.4091
   18MOL   H253 6407   2.447   0.903   0.588  0.4978  0.3542 -0.0409
   18MOL   C254 6408   2.183   0.854   0.597  0.1935  0.3896  0.0881
   18MOL   O255 6409   2.203   0.891   0.712  0.9313  0.5433  0.5106
   18MOL   C256 6410   2.048   0.861   0.528  0.5231 -0.0016  0.3917
   18MOL   C257 6411   1.930   0.789   0.599 -0.0434  0.2032 -0.5386
   18MOL   C258 6412   1.796   0.863   0.560 -0.6660  0.6771  0.4204
   18MOL   C259 6413   1.679   0.821   0.651  0.4195  0.2988  0.1179
   18MOL   C260 6414   1.540   0.860   0.590 -0.9482 -0.6563  0.6529
   18MOL   O261 6415   1.522   0.789   0.467  0.0928 -0.0870 -0.0040
   18MOL   H262 6416   2.062   0.823   0.427 -1.4136  1.1128 -0.3007
   18MOL   H263 6417   2.028   0.965   0.507 -1.0959 -0.2279  0.7735
   18MOL   H264 6418   1.938   0.792   0.707  2.2994  2.3777 -0.7158
   18MOL   H265 6419   1.921   0.685   0.567  0.0175 -0.0665  0.3164
   18MOL   H266 6420   1.782   0.847   0.453 -1.1159 -2.7405  0.9359
   18MOL   H267 6421   1.811   0.970   0.578  2.9121  0.4841 -0.8431
   18MOL   H268 6422   1.688   0.871   0.747  2.3453 -0.1060  0.1747
   18MOL   H269 6423   1.685   0.712   0.659 -0.7969  0.1438 -0.9985
   18MOL   H270 6424   1.463   0.831   0.661 -1.1734  1.3951  1.2941
   18MOL   H271 6425   1.520   0.965   0.566 -1.1786 -1.2513 -1.8632
   18MOL   C272 6426   1.475   0.671   0.464  0.2760 -0.3857 -0.6649
   18MOL   O273 6427   1.458   0.588   0.555  0.1505 -0.0561  0.4564
   18MOL   C274 6428   1.443   0.630   0.322 -0.5485  0.1793  0.0723
   18MOL   C275 6429   1.345   0.521   0.315  0.4197 -0.2748 -0.8369
   18MOL   C276 6430   1.312   0.497   0.170  0.7361 -0.8892  0.6632
   18MOL   C277 6431   1.417   0.432   0.083  0.3543 -0.1540  0.7698
   18MOL   C278 6432   1.354   0.413   7.788 -0.0348 -0.2332  0.0379
   18MOL   O279 6433   1.453   0.384   7.693  0.0312 -0.4901 -0.0418
   18MOL   H280 6434   1.534   0.597   0.271 -0.6806 -0.2952  0.1452
   18MOL   H281 6435   1.398   0.715   0.269 -0.9449  1.5179  2.4987
   18MOL   H282 6436   1.254   0.537   0.373 -0.2408 -3.4425 -0.9409
   18MOL   H283 6437   1.398   0.435   0.354  0.1666 -0.9446 -1.9598
   18MOL   H284 6438   1.268   0.585   0.123  0.5220 -1.7237 -0.7482
   18MOL   H285 6439   1.226   0.431   0.163 -1.3053  1.8736 -1.4476
   18MOL   H286 6440   1.433   0.337   0.134  1.7181  0.0801  0.7844
   18MOL   H287 6441   1.511   0.487   0.083 -0.1503  0.7229  0.8954
   18MOL   H288 6442   1.273   0.340   7.789  1.3892 -1.9234 -2.1203
   18MOL   H289 6443   1.305   0.505   7.759 -0.4658 -0.7875 -1.0400
   18MOL   C290 6444   1.415   0.369   7.564 -0.3965 -0.6435  0.2580
   18MOL   O291 6445   1.298   0.374   7.524  0.3434  0.4090 -0.4287
   18MOL   C292 6446   1.526   0.318   7.477  0.0312  0.3794  0.3921
   18MOL   C293 6447   1.553   0.397   7.348 -0.3567 -0.5605  0.7388
   18MOL   C294 6448   1.651   0.330   7.250 -0.0252 -0.5781 -0.2544
   18MOL   C295 6449   1.695   0.424   7.139  0.4339 -0.0471  0.5541
   18MOL   C296 6450   1.800   0.344   7.049 -0.0467 -0.0370 -0.3658
   18MOL   O297 6451   1.927   0.336   7.105 -0.5216  0.1915  0.4756
   18MOL   H298 6452   1.503   0.222   7.430  0.7569 -0.0337  0.8706
   18MOL   H299 6453   1.618   0.299   7.532  1.1539  0.5623 -1.3669
   18MOL   H300 6454   1.584   0.495   7.386  3.2109 -1.8068  1.2611
   18MOL   H301 6455   1.463   0.422   7.292  1.5166  1.3523 -1.5631
   18MOL   H302 6456   1.604   0.239   7.211  0.3019 -0.6626 -0.4542
   18MOL   H303 6457   1.738   0.289   7.301  1.6091  1.2556 -1.5108
   18MOL   H304 6458   1.741   0.508   7.192 -1.8954  0.6194  1.5621
   18MOL   H305 6459   1.618   0.478   7.084  1.4805  1.6567  0.7090
   18MOL   H306 6460   1.757   0.246   7.032 -2.9050  1.0951  0.0350
   18MOL   H307 6461   1.801   0.393   6.952  2.7189 -2.5517 -1.6433
   18MOL   C308 6462   2.025   0.294   7.019  0.3462 -0.4303  0.2859
   18MOL   O309 6463   2.013   0.278   6.898  0.3231 -0.4505  0.4426
   18MOL   C310 6464   2.160   0.272   7.084  0.0323 -0.3260 -0.0050
   18MOL   C311 6465   2.179   0.130   7.154 -1.1422  0.2054 -0.6972
   18MOL   C312 6466   2.181   0.012   7.050 -0.1724  0.7830  0.6597
   18MOL   C313 6467   2.184   7.722   7.130  0.6531 -0.0477  0.2242
   18MOL   C314 6468   2.051   7.661   7.157  0.2612 -0.1546 -0.0129
   18MOL   O315 6469   2.090   7.525   7.164  0.0138  0.2486 -0.0168
   18MOL   H316 6470   2.168   0.337   7.171 -1.6673  0.6145 -0.5268
   18MOL   H317 6471   2.231   0.300   7.006  0.6880  0.5877  0.9174
   18MOL   H318 6472   2.106   0.122   7.234 -1.5247  1.4633 -0.9003
   18MOL   H319 6473   2.270   0.139   7.212 -2.3258 -1.9840  1.5505
   18MOL   H320 6474   2.278   0.027   7.002 -0.4762 -0.2606 -0.3045
   18MOL   H321 6475   2.102   0.003   6.976  1.1395  1.3130 -0.8328
   18MOL   H322 6476   2.243   7.725   7.221  4.1158  0.6008 -1.9293
   18MOL   H323 6477   2.245   7.658   7.065  2.6490  0.0507  1.9591
   18MOL   H324 6478   2.000   7.691   7.248  0.5179  0.7799 -0.1754
   18MOL   H325 6479   1.978   7.672   7.077 -0.9642 -0.5142  1.0424
   18MOL   C326 6480   2.010   7.439   7.220 -0.5543 -0.2636  0.3315
   18MOL   O327 6481   1.893   7.456   7.247  0.1732  0.5138 -0.0172
   18MOL   C328 6482   2.082   7.306   7.249  0.0555  0.7597 -0.3057
   18MOL   C329 6483   1.992   7.187   7.293 -0.0905  0.0015  0.3733
   18MOL   C330 6484   1.896   7.128   7.176 -0.0828  0.2930 -0.3347
   18MOL   C331 6485   1.827   6.990   7.221 -0.4384  0.2786 -0.3285
   18MOL   C332 6486   1.739   6.930   7.113 -0.7131  0.0559  0.1590
   18MOL   O333 6487   1.812   6.885   7.004 -0.1996  0.5152 -0.0434
   18MOL   H334 6488   2.168   7.315   7.315 -0.2735  0.0637  0.2276
   18MOL   H335 6489   2.125   7.268   7.156 -2.6187 -1.0612 -0.8508
   18MOL   H336 6490   1.940   7.209   7.387 -2.5912  0.0935 -0.9866
   18MOL   H337 6491   2.050   7.098   7.316 -2.3438 -2.7512 -3.8838
   18MOL   H338 6492   1.955   7.095   7.091 -2.1153  2.1709 -2.5340
   18MOL   H339 6493   1.825   7.204   7.145 -1.9724 -1.6545 -0.8899
   18MOL   H340 6494   1.762   6.996   7.308 -0.6466  0.0222 -0.4685
   18MOL   H341 6495   1.907   6.924   7.256 -0.4321 -0.2755 -1.3892
   18MOL   H342 6496   1.679   6.848   7.152 -0.9535  0.9917  1.7980
   18MOL   H343 6497   1.665   7.004   7.084 -1.1897  0.0696  1.3931
   18MOL   C344 6498   1.875   6.770   7.019  0.0567 -0.1493 -0.4818
   18MOL   O345 6499   1.877   6.698   7.120  0.1230  0.1361 -0.0225
   18MOL   C346 6500   1.932   6.715   6.888 -0.9334 -0.4207  0.2707
   18MOL   C347 6501   1.823   6.664   6.791  0.3909 -0.0043 -0.1864
   18MOL   C348 6502   1.893   6.620   6.662  0.0341 -0.6730  0.2208
   18MOL   C349 6503   1.803   6.569   6.547  0.2585 -0.6122 -0.9806
   18MOL   C350 6504   1.699   6.667   6.479  0.1955 -0.9427 -0.2823
   18MOL   O351 6505   1.613   6.597   6.393  0.2563  0.1633  0.2939
   18MOL   H352 6506   2.005   6.637   6.911  0.3755 -0.0047 -2.2301
   18MOL   H353 6507   1.983   6.796   6.835 -0.9317 -1.7336 -1.7913
   18MOL   H354 6508   1.767   6.755   6.769  0.3895  0.3116  1.0567
   18MOL   H355 6509   1.763   6.579   6.822 -0.2198  0.0523 -1.1874
   18MOL   H356 6510   1.961   6.538   6.684 -0.5197 -0.6769  1.9734
   18MOL   H357 6511   1.948   6.703   6.617  0.1860 -0.2206  1.2279
   18MOL   H358 6512   1.743   6.488   6.588 -1.8007  1.0358 -0.6595
   18MOL   H359 6513   1.871   6.526   6.473 -0.3181 -1.5064 -0.9980
   18MOL   H360 6514   1.639   6.723   6.550 -0.8934  0.3581 -2.1741
   18MOL   H361 6515   1.752   6.742   6.420  1.4424  0.0809  2.0804
   18MOL   H362 6516   1.663   6.535   6.342 -0.8615 -1.6178  1.3528
   19MOL     C1 6517   2.917   5.656   6.000 -0.4638 -0.2955 -0.0301
   19MOL     O2 6518   3.004   5.603   6.062 -0.3341  0.6883 -0.7185
   19MOL     C3 6519   2.893   5.813   6.003 -0.6912  0.2857 -0.7655
   19MOL     C4 6520   2.937   5.888   6.130 -0.3406 -0.4054  0.3121
   19MOL     C5 6521   2.862   5.830   6.262 -0.1525 -0.6747 -0.1791
   19MOL     C6 6522   2.944   5.859   6.389 -0.5153 -0.1859  0.0486
   19MOL     C7 6523   2.881   5.932   6.508 -0.4094  0.3235 -0.4454
   19MOL     O8 6524   2.980   5.952   6.609  0.1832  0.3537  0.4595
   19MOL     H9 6525   2.787   5.828   5.983 -0.5386  2.2030 -0.1966
   19MOL    H10 6526   2.946   5.858   5.919  0.0467  1.8930  0.5425
   19MOL    H11 6527   2.916   5.995   6.133  1.0689 -0.1034 -0.0846
   19MOL    H12 6528   3.046   5.885   6.131 -0.3369 -1.1734 -1.3240
   19MOL    H13 6529   2.858   5.722   6.252 -0.1198 -1.0112  2.9839
   19MOL    H14 6530   2.761   5.868   6.271  0.7924  1.9507 -0.1985
   19MOL    H15 6531   3.032   5.918   6.360 -1.3591  1.2641  0.3802
   19MOL    H16 6532   2.997   5.767   6.412 -0.9156 -0.4359 -0.0246
   19MOL    H17 6533   2.836   6.028   6.483 -0.8358  0.3144  0.2896
   19MOL    H18 6534   2.801   5.868   6.543 -0.7771  0.8262 -0.3631
   19MOL    H19 6535   2.844   5.610   5.934 -0.7229  0.4463 -0.2694
   19MOL    C20 6536   3.056   6.060   6.593 -0.4739 -0.8321 -0.5454
   19MOL    O21 6537   3.044   6.148   6.514  0.1719  0.1772 -0.0215
   19MOL    C22 6538   3.173   6.059   6.696 -0.1575  0.1670 -0.4319
   19MOL    C23 6539   3.158   6.185   6.782  0.4642 -0.4587 -0.1497
   19MOL    C24 6540   3.248   6.208   6.902 -0.2513  0.0566 -0.0890
   19MOL    C25 6541   3.184   6.284   7.022  0.0584  0.2474  0.4510
   19MOL    C26 6542   3.292   6.335   7.120 -0.1138 -0.3901 -0.4505
   19MOL    O27 6543   3.224   6.398   7.227  0.5829  0.3154 -0.0750
   19MOL    H28 6544   3.265   6.051   6.638  0.0610 -3.8053  0.3494
   19MOL    H29 6545   3.160   5.960   6.739  0.0505 -0.0986 -0.9771
   19MOL    H30 6546   3.058   6.197   6.821  0.9034 -0.0951  0.8808
   19MOL    H31 6547   3.174   6.272   6.719  0.2183  0.4915  1.0768
   19MOL    H32 6548   3.336   6.259   6.862 -0.4523 -0.0952 -0.7335
   19MOL    H33 6549   3.289   6.118   6.947  0.7395  0.7423  0.4031
   19MOL    H34 6550   3.114   6.228   7.085  1.5064  1.7110  3.4376
   19MOL    H35 6551   3.127   6.370   6.986  0.2679 -0.4430 -1.5921
   19MOL    H36 6552   3.344   6.255   7.172  0.6756  0.8394  0.6675
   19MOL    H37 6553   3.363   6.410   7.085 -0.9374  1.1059  0.9959
   19MOL    C38 6554   3.184   6.330   7.339  0.2168  0.4698  0.4604
   19MOL    O39 6555   3.208   6.210   7.359 -0.1517  0.0810 -1.0458
   19MOL    C40 6556   3.109   6.415   7.439  0.9791  0.7726  0.4169
   19MOL    C41 6557   2.971   6.352   7.463  0.0597  0.0234 -0.3336
   19MOL    C42 6558   2.868   6.398   7.362  0.9484 -0.6692  0.0877
   19MOL    C43 6559   2.814   6.543   7.372 -0.3236 -0.3067  0.4545
   19MOL    C44 6560   2.708   6.579   7.264  0.1033  0.5213  0.0274
   19MOL    O45 6561   2.666   6.713   7.297 -0.0512 -0.1261  0.3168
   19MOL    H46 6562   3.092   6.512   7.392 -0.6898  0.5396  0.5060
   19MOL    H47 6563   3.161   6.437   7.532 -1.9161  1.3953  1.9616
   19MOL    H48 6564   2.935   6.381   7.562 -0.8047  1.7561 -1.1246
   19MOL    H49 6565   2.987   6.245   7.471 -0.9206 -0.0920  0.2223
   19MOL    H50 6566   2.789   6.322   7.362  0.8316 -0.5480 -0.1341
   19MOL    H51 6567   2.913   6.393   7.263 -0.7889 -0.2071 -0.7329
   19MOL    H52 6568   2.893   6.616   7.355 -1.7911  1.1913 -0.0579
   19MOL    H53 6569   2.764   6.567   7.466 -2.0772  1.4502 -0.8958
   19MOL    H54 6570   2.754   6.573   7.165 -1.0018  0.6740 -0.5003
   19MOL    H55 6571   2.620   6.514   7.269 -0.8086  1.7093 -0.4912
   19MOL    C56 6572   2.530   6.745   7.276 -0.3223  0.0369  0.7200
   19MOL    O57 6573   2.439   6.663   7.252  0.0537  0.1242  0.0552
   19MOL    C58 6574   2.497   6.891   7.292  0.3883 -0.3192 -0.5142
   19MOL    C59 6575   2.373   6.942   7.222 -0.5089 -0.2141 -0.2094
   19MOL    C60 6576   2.388   6.951   7.067  0.3038 -0.4180  0.1187
   19MOL    C61 6577   2.260   6.986   7.004  0.7246 -0.3918 -0.5815
   19MOL    C62 6578   2.279   6.996   6.845 -0.3761 -0.0813 -0.2523
   19MOL    O63 6579   2.321   6.867   6.781 -0.4303 -0.2743  0.9234
   19MOL    H64 6580   2.585   6.945   7.257  1.4351 -0.9528  1.0924
   19MOL    H65 6581   2.488   6.906   7.400 -0.7662  1.0010 -0.7817
   19MOL    H66 6582   2.354   7.044   7.256  2.9082  0.1767  0.7194
   19MOL    H67 6583   2.286   6.881   7.245 -1.3040  0.9737 -0.0188
   19MOL    H68 6584   2.427   6.856   7.033 -1.8050  0.0618 -4.0619
   19MOL    H69 6585   2.462   7.026   7.039 -0.8071  1.1635  1.2869
   19MOL    H70 6586   2.227   7.081   7.045 -1.7072 -1.1214 -0.7534
   19MOL    H71 6587   2.180   6.916   7.029  0.1749  0.2383 -0.5513
   19MOL    H72 6588   2.191   7.037   6.796  0.1538 -0.6074 -1.6707
   19MOL    H73 6589   2.352   7.077   6.837  0.4674 -0.7446  0.6019
   19MOL    C74 6590   2.395   6.862   6.675 -0.4127  0.6145 -0.2277
   19MOL    O75 6591   2.430   6.953   6.599 -0.1051 -0.4229 -0.3283
   19MOL    C76 6592   2.417   6.713   6.643  0.5163  1.1876 -0.4173
   19MOL    C77 6593   2.295   6.656   6.572  0.0376  0.5600 -0.2822
   19MOL    C78 6594   2.277   6.679   6.423 -1.0933 -0.3400 -0.7227
   19MOL    C79 6595   2.134   6.668   6.357 -0.1758  0.5040  0.0610
   19MOL    C80 6596   2.134   6.731   6.212  0.2661  0.4128  0.4125
   19MOL    O81 6597   2.214   6.650   6.128  0.0335  0.0716  0.1733
   19MOL    H82 6598   2.423   6.653   6.733 -0.1910  1.4798 -0.1704
   19MOL    H83 6599   2.504   6.698   6.580  0.8021 -0.9975  0.4629
   19MOL    H84 6600   2.207   6.684   6.630  0.1965 -0.2328  0.3459
   19MOL    H85 6601   2.300   6.548   6.583 -0.5173  0.5639  0.0273
   19MOL    H86 6602   2.346   6.613   6.370  1.4524  0.4183  1.5654
   19MOL    H87 6603   2.317   6.779   6.408 -1.3308 -0.2123 -0.5028
   19MOL    H88 6604   2.066   6.717   6.426 -0.1038 -1.1130  1.3146
   19MOL    H89 6605   2.101   6.564   6.365 -0.7277  0.7403  0.9727
   19MOL    H90 6606   2.032   6.742   6.175  0.1517  1.0664  0.9041
   19MOL    H91 6607   2.180   6.830   6.202 -1.5866  1.4265  1.4911
   19MOL    C92 6608   2.179   6.529   6.076  0.7566  0.0215 -1.0116
   19MOL    O93 6609   2.073   6.474   6.099 -0.0122 -0.4676 -0.1002
   19MOL    C94 6610   2.284   6.472   5.978 -0.3870 -0.2296  0.1923
   19MOL    C95 6611   2.242   6.332   5.926 -0.8475  0.1385  0.1629
   19MOL    C96 6612   2.125   6.339   5.822 -0.2086 -0.1816  0.0208
   19MOL    C97 6613   2.080   6.201   5.762 -0.0245 -0.6764 -0.6506
   19MOL    C98 6614   1.962   6.216   5.667 -0.7397  0.1850 -0.0413
   19MOL    O99 6615   1.856   6.257   5.747  0.1681  0.3328 -0.1606
   19MOL   H100 6616   2.378   6.461   6.031  0.1860 -0.4062 -0.8414
   19MOL   H101 6617   2.299   6.541   5.895 -0.7839  0.0800  0.3780
   19MOL   H102 6618   2.207   6.272   6.009 -1.3964  0.4254  0.1425
   19MOL   H103 6619   2.317   6.271   5.877  0.0407  1.5755 -0.3120
   19MOL   H104 6620   2.159   6.407   5.743 -1.4738  0.8384  0.3298
   19MOL   H105 6621   2.041   6.375   5.881  0.4911  4.2570 -1.4199
   19MOL   H106 6622   2.052   6.130   5.841 -0.3143  0.3164  0.1445
   19MOL   H107 6623   2.171   6.150   5.730 -0.4795 -1.6539 -0.4382
   19MOL   H108 6624   1.981   6.296   5.596 -0.0483  0.4570  0.4426
   19MOL   H109 6625   1.926   6.125   5.618 -1.4003 -1.0112  2.6065
   19MOL   C110 6626   1.746   6.316   5.704  0.2080 -0.1834  0.2357
   19MOL   O111 6627   1.721   6.356   5.594 -0.5334  0.7124  0.0731
   19MOL   C112 6628   1.644   6.326   5.815 -0.0404  0.6002  0.1758
   19MOL   C113 6629   1.495   6.331   5.776 -0.3312  0.0669 -0.4203
   19MOL   C114 6630   1.444   6.477   5.762 -0.4662 -0.1940  0.2829
   19MOL   C115 6631   1.310   6.491   5.677 -0.2576 -0.1785 -0.4295
   19MOL   C116 6632   1.241   6.621   5.698 -0.2847 -0.0261 -0.5248
   19MOL   O117 6633   1.134   6.644   5.602 -0.7099 -0.7498 -0.3349
   19MOL   H118 6634   1.664   6.414   5.875  0.1261  1.6175 -1.3498
   19MOL   H119 6635   1.649   6.233   5.872 -2.3408  0.3883  0.0758
   19MOL   H120 6636   1.438   6.285   5.856  0.6199 -1.5252 -0.6188
   19MOL   H121 6637   1.479   6.275   5.684  0.2503 -0.2476 -0.3389
   19MOL   H122 6638   1.524   6.544   5.732  0.1942 -0.1370  2.1143
   19MOL   H123 6639   1.434   6.522   5.861 -0.0719 -1.2021  0.7843
   19MOL   H124 6640   1.236   6.417   5.707  0.6223  0.9503  4.9520
   19MOL   H125 6641   1.325   6.478   5.570 -0.0863  2.9432 -0.8259
   19MOL   H126 6642   1.203   6.628   5.800  1.6036 -0.8666  0.2578
   19MOL   H127 6643   1.314   6.703   5.697 -0.3767  0.0644  0.0940
   19MOL   C128 6644   1.047   6.742   5.618 -0.6278  0.4738 -0.0201
   19MOL   O129 6645   1.041   6.830   5.701  0.2998  0.5802 -0.1727
   19MOL   C130 6646   0.933   6.732   5.519 -0.9003  0.2186 -0.5182
   19MOL   C131 6647   0.960   6.832   5.403  0.4099  0.1791 -0.4174
   19MOL   C132 6648   1.061   6.789   5.302 -0.2195  0.5414 -0.3356
   19MOL   C133 6649   1.090   6.894   5.187  0.1511 -0.8551  0.1619
   19MOL   C134 6650   1.200   6.851   5.096 -0.4692  0.2230 -0.4782
   19MOL   O135 6651   1.246   6.950   5.004 -0.5623  0.3184 -0.4632
   19MOL   H136 6652   0.841   6.760   5.570 -0.0426  1.5915  0.3202
   19MOL   H137 6653   0.923   6.631   5.479 -1.6417  1.2419 -3.0281
   19MOL   H138 6654   1.011   6.917   5.447 -1.0630  0.2898  1.1427
   19MOL   H139 6655   0.872   6.870   5.350 -0.7248 -0.3327  1.0508
   19MOL   H140 6656   1.031   6.700   5.247  0.6323 -0.3890  0.6754
   19MOL   H141 6657   1.145   6.762   5.365 -0.9513 -1.6548 -0.2532
   19MOL   H142 6658   1.118   6.985   5.240 -1.9880 -0.4309  0.6178
   19MOL   H143 6659   1.004   6.907   5.122  0.8263  1.1498 -0.3635
   19MOL   H144 6660   1.286   6.820   5.155 -2.0224 -0.9116  1.2132
   19MOL   H145 6661   1.159   6.775   5.029  0.2278 -1.0647  0.5435
   19MOL   C146 6662   1.373   6.968   4.994 -0.2104 -0.6104  0.9752
   19MOL   O147 6663   1.460   6.920   5.064 -0.1850  0.1195  0.1927
   19MOL   C148 6664   1.409   7.060   4.875  0.2090  0.1146  0.6551
   19MOL   C149 6665   1.552   7.036   4.826 -0.4562 -0.0515  0.0830
   19MOL   C150 6666   1.592   7.138   4.719 -0.1340 -0.1710 -0.0711
   19MOL   C151 6667   1.507   7.149   4.590  0.0800 -0.1416 -0.5883
   19MOL   C152 6668   1.557   7.252   4.481  0.3769  1.1466  0.0177
   19MOL   O153 6669   1.476   7.265   4.373 -0.1202 -0.3255  0.3509
   19MOL   H154 6670   1.410   7.166   4.899  0.1477  0.1892  0.3292
   19MOL   H155 6671   1.337   7.045   4.795 -1.2760 -3.1370  2.4957
   19MOL   H156 6672   1.555   6.942   4.770 -1.0681 -0.4063  0.6509
   19MOL   H157 6673   1.632   7.037   4.900  1.7481  1.7373 -2.2469
   19MOL   H158 6674   1.693   7.114   4.687 -0.8743 -0.8221 -2.0244
   19MOL   H159 6675   1.608   7.234   4.768 -0.3346 -0.4670  0.5828
   19MOL   H160 6676   1.406   7.169   4.624  0.5714  0.3324  0.6179
   19MOL   H161 6677   1.512   7.051   4.543 -0.1078 -1.4324  1.9937
   19MOL   H162 6678   1.577   7.346   4.532 -0.9205  0.6757  1.4204
   19MOL   H163 6679   1.650   7.217   4.435 -1.6092  0.2382 -3.4495
   19MOL   C164 6680   1.507   7.356   4.275 -0.3270 -0.0922 -0.1470
   19MOL   O165 6681   1.608   7.425   4.269  0.1626 -0.0570  0.0162
   19MOL   C166 6682   1.412   7.345   4.150  0.0590 -0.0131 -0.6776
   19MOL   C167 6683   1.462   7.247   4.046 -0.3530  0.1144 -0.2658
   19MOL   C168 6684   1.502   7.319   3.917  0.0579  0.2029  0.1615
   19MOL   C169 6685   1.381   7.390   3.841  0.0820 -0.6038 -0.4715
   19MOL   C170 6686   1.430   7.439   3.704  0.3940  0.5255  0.1925
   19MOL   O171 6687   1.331   7.536   3.661 -0.1827 -0.2923 -0.3883
   19MOL   H172 6688   1.378   7.443   4.116  1.3306  0.8516  0.4950
   19MOL   H173 6689   1.323   7.301   4.195  0.5460  0.5270  0.8611
   19MOL   H174 6690   1.382   7.178   4.018  3.0562 -3.5899 -1.3213
   19MOL   H175 6691   1.532   7.168   4.069  1.1756  1.1257 -1.3478
   19MOL   H176 6692   1.545   7.246   3.848 -1.4854 -0.4759 -0.1111
   19MOL   H177 6693   1.572   7.401   3.931  1.8176 -1.3230  0.5654
   19MOL   H178 6694   1.356   7.480   3.898  2.0698 -1.1776  1.3830
   19MOL   H179 6695   1.288   7.333   3.836 -0.6499  0.4274  0.8039
   19MOL   H180 6696   1.530   7.484   3.697  0.8028 -0.6409 -1.8550
   19MOL   H181 6697   1.438   7.357   3.633  1.1303 -0.2817  1.2014
   19MOL   C182 6698   1.265   7.531   3.551  0.3480  0.4413  0.0144
   19MOL   O183 6699   1.280   7.446   3.464  0.1721  0.4375 -0.0050
   19MOL   C184 6700   1.164   7.643   3.531 -0.1535  0.1177  0.0617
   19MOL   C185 6701   1.021   7.603   3.584 -0.3798 -0.6490  0.1132
   19MOL   C186 6702   0.925   7.716   3.579 -0.3158 -0.2723  0.1580
   19MOL   C187 6703   0.770   7.689   3.590  0.2981  0.9315 -0.4909
   19MOL   C188 6704   0.722   7.630   3.726  0.1635  0.1767  0.1711
   19MOL   O189 6705   0.720   7.727   3.830  0.2282  0.1465 -0.7002
   19MOL   H190 6706   1.160   7.646   3.422  0.4693 -0.5767  0.0189
   19MOL   H191 6707   1.200   7.737   3.574  0.6627  1.1518 -2.7615
   19MOL   H192 6708   1.025   7.562   3.684 -0.0962  1.2627  0.9061
   19MOL   H193 6709   0.983   7.527   3.516 -1.9490 -1.1696  1.5367
   19MOL   H194 6710   0.946   7.767   3.484 -1.4686  0.7823  0.4517
   19MOL   H195 6711   0.957   7.779   3.662  0.5390  1.5242 -1.4840
   19MOL   H196 6712   0.742   7.623   3.508 -0.7694  2.3016 -1.2485
   19MOL   H197 6713   0.720   7.783   3.568 -1.5251 -0.1413 -1.1220
   19MOL   H198 6714   0.618   7.596   3.720 -0.1454  0.9643  0.9827
   19MOL   H199 6715   0.780   7.539   3.741 -1.7250 -0.9377  0.8491
   19MOL   C200 6716   0.762   7.694   3.953 -0.8375  0.0340  0.6334
   19MOL   O201 6717   0.805   7.580   3.980  0.3910  0.2532  0.1717
   19MOL   C202 6718   0.769   7.814   4.050 -0.1088  0.4627  0.1647
   19MOL   C203 6719   0.784   0.104   3.988 -0.2742 -0.4947  0.2365
   19MOL   C204 6720   0.835   0.212   4.077 -0.8106  0.1434 -0.0277
   19MOL   C205 6721   0.838   0.343   4.008 -0.5096 -0.3720  0.2893
   19MOL   C206 6722   0.940   0.448   4.074  0.8243 -0.2869 -0.1992
   19MOL   O207 6723   0.867   0.511   4.176 -0.1081  0.1500  0.4795
   19MOL   H208 6724   0.853   7.804   4.119 -0.1057  2.0218  0.4137
   19MOL   H209 6725   0.684   7.801   4.116  0.4700  1.3236  1.1047
   19MOL   H210 6726   0.693   0.128   3.934 -0.2989 -0.8467  0.1238
   19MOL   H211 6727   0.855   0.093   3.906  0.8985 -0.9237  1.2903
   19MOL   H212 6728   0.933   0.196   4.121 -1.4751 -0.9172  1.1167
   19MOL   H213 6729   0.760   0.198   4.155 -0.8947  0.9682  0.0456
   19MOL   H214 6730   0.735   0.377   3.998 -1.0967 -2.1801 -0.0630
   19MOL   H215 6731   0.881   0.332   3.908 -0.9351 -2.7178  0.3337
   19MOL   H216 6732   1.024   0.396   4.120 -0.4103 -2.9343 -0.8374
   19MOL   H217 6733   0.971   0.522   4.000  0.9263 -1.1942 -1.0739
   19MOL   C218 6734   0.923   0.571   4.284  0.4781 -0.1897  0.7504
   19MOL   O219 6735   1.042   0.572   4.303  0.4186 -0.2781  0.2416
   19MOL   C220 6736   0.810   0.630   4.378 -0.1938 -0.0764 -0.0447
   19MOL   C221 6737   0.870   0.702   4.502 -0.1766 -0.7713 -0.0705
   19MOL   C222 6738   0.922   0.599   4.601  0.3599 -0.2108  0.2716
   19MOL   C223 6739   1.000   0.664   4.718 -0.0632  0.1199 -0.4360
   19MOL   C224 6740   1.067   0.556   4.810  0.6718  0.9695 -0.6952
   19MOL   O225 6741   1.149   0.604   4.914 -0.4687 -0.0571  0.2337
   19MOL   H226 6742   0.735   0.557   4.408  0.0627 -0.5556 -0.5607
   19MOL   H227 6743   0.761   0.713   4.328 -2.4294 -1.3332  0.0036
   19MOL   H228 6744   0.797   0.764   4.554 -1.1729 -1.0564 -1.1016
   19MOL   H229 6745   0.946   0.775   4.474 -1.6082  0.5635 -0.5469
   19MOL   H230 6746   0.988   0.527   4.553 -1.8675 -2.2660  0.1653
   19MOL   H231 6747   0.843   0.536   4.643  0.4257 -1.1921 -1.0417
   19MOL   H232 6748   0.935   0.729   4.777 -0.0224 -0.1405 -0.1025
   19MOL   H233 6749   1.089   0.719   4.687  0.2817 -0.2803 -0.1587
   19MOL   H234 6750   0.990   0.489   4.849  1.0942  1.0980  0.3564
   19MOL   H235 6751   1.131   0.489   4.752  0.9957 -0.2528  1.0381
   19MOL   C236 6752   1.089   0.640   5.027  0.2950 -0.3451  0.2611
   19MOL   O237 6753   0.973   0.622   5.055 -0.2240 -0.4846  0.1454
   19MOL   C238 6754   1.185   0.695   5.131  0.0304 -0.3614  0.5217
   19MOL   C239 6755   1.239   0.844   5.099 -0.1476 -0.1988 -0.2264
   19MOL   C240 6756   1.162   0.958   5.159  0.0867  0.8333 -0.0866
   19MOL   C241 6757   1.219   1.089   5.105 -1.1042 -0.1495 -0.1667
   19MOL   C242 6758   1.129   1.213   5.136  0.4097 -0.4525  0.2544
   19MOL   O243 6759   0.999   1.205   5.075  0.0162 -0.0170 -0.1976
   19MOL   H244 6760   1.271   0.629   5.124  0.1577  0.0334 -2.1186
   19MOL   H245 6761   1.144   0.700   5.232  0.2151 -2.0775  0.6843
   19MOL   H246 6762   1.264   0.850   4.994  0.6503 -2.6407 -0.2139
   19MOL   H247 6763   1.329   0.851   5.161 -1.3681  0.6895  1.4951
   19MOL   H248 6764   1.165   0.962   5.267 -2.0882  0.0793  0.0293
   19MOL   H249 6765   1.057   0.964   5.128 -0.3119 -0.0992  1.0743
   19MOL   H250 6766   1.226   1.079   4.997 -2.0101  0.2862 -0.2701
   19MOL   H251 6767   1.318   1.110   5.146 -1.5603  1.4616  0.1396
   19MOL   H252 6768   1.109   1.236   5.241 -1.1273  2.0614 -0.5525
   19MOL   H253 6769   1.174   1.303   5.095  1.2165 -0.8364  0.2842
   19MOL   C254 6770   0.911   1.309   5.099 -0.1082  0.1579 -0.5550
   19MOL   O255 6771   0.934   1.399   5.186 -0.0401  0.3510  0.3751
   19MOL   C256 6772   0.775   1.304   5.024 -0.6500 -0.3064  0.3718
   19MOL   C257 6773   0.764   1.196   4.918  0.2389  0.0862  0.0060
   19MOL   C258 6774   0.749   1.052   4.972 -0.1076  0.0356 -0.4784
   19MOL   C259 6775   0.723   0.946   4.859  0.5899  0.1381  0.9121
   19MOL   C260 6776   0.709   0.803   4.904  0.8278  0.3226 -0.5525
   19MOL   O261 6777   0.597   0.783   4.986 -0.1434 -0.3848 -0.6274
   19MOL   H262 6778   0.754   1.401   4.979 -0.5171 -0.4976 -0.1129
   19MOL   H263 6779   0.691   1.302   5.093 -0.7679 -0.6886  0.2216
   19MOL   H264 6780   0.853   1.216   4.858 -1.5934  2.5474 -2.0535
   19MOL   H265 6781   0.681   1.207   4.848  1.0948  1.0846 -0.8667
   19MOL   H266 6782   0.663   1.046   5.039  0.4566  0.3467  0.2794
   19MOL   H267 6783   0.838   1.022   5.027  0.1526  0.2289 -0.7847
   19MOL   H268 6784   0.806   0.954   4.790 -1.6322  2.6336 -1.5940
   19MOL   H269 6785   0.637   0.975   4.799 -0.9044 -2.5272  1.6955
   19MOL   H270 6786   0.713   0.739   4.816  0.5038 -0.8196  0.2473
   19MOL   H271 6787   0.791   0.782   4.973  0.9024 -2.2741 -1.3718
   19MOL   C272 6788   0.575   0.661   5.025 -0.2597  0.6236 -0.3078
   19MOL   O273 6789   0.635   0.560   4.982  0.1671 -0.2564  0.7287
   19MOL   C274 6790   0.459   0.644   5.118  0.4449  0.1799  0.1111
   19MOL   C275 6791   0.334   0.566   5.063 -0.2939 -0.0142  0.0296
   19MOL   C276 6792   0.205   0.561   5.150 -0.1409 -0.3786 -0.0090
   19MOL   C277 6793   0.117   0.438   5.120  0.1528 -0.3442  0.5127
   19MOL   C278 6794   7.821   0.468   5.180 -0.2457 -0.3257 -0.8989
   19MOL   O279 6795   7.823   0.524   5.313 -0.3170  0.7707  1.0685
   19MOL   H280 6796   0.425   0.742   5.151 -0.7478 -0.2223  0.0952
   19MOL   H281 6797   0.493   0.600   5.211  1.0670 -1.2807 -0.8019
   19MOL   H282 6798   0.360   0.466   5.028  2.6044  1.5943 -2.6361
   19MOL   H283 6799   0.310   0.625   4.975  0.0380 -0.6556 -0.4948
   19MOL   H284 6800   0.149   0.654   5.138 -1.5868 -1.1981  0.2356
   19MOL   H285 6801   0.224   0.568   5.257 -1.2369  1.5312  0.0931
   19MOL   H286 6802   0.162   0.345   5.156  0.1834 -0.2113  0.8141
   19MOL   H287 6803   0.096   0.424   5.014  0.6629  0.2057  0.3440
   19MOL   H288 6804   7.763   0.538   5.119 -0.0656 -0.3803 -1.1303
   19MOL   H289 6805   7.755   0.381   5.182 -1.3934  0.5253  2.1012
   19MOL   C290 6806   0.012   0.448   5.419 -0.5099 -0.7484  0.6021
   19MOL   O291 6807   0.062   0.337   5.421 -0.1173 -0.2186 -0.1188
   19MOL   C292 6808   7.825   0.525   5.548 -0.2600  0.7304 -0.7239
   19MOL   C293 6809   0.077   0.643   5.567 -0.0962 -0.4001  0.4642
   19MOL   C294 6810   0.223   0.603   5.603 -0.4281  0.1010  0.4933
   19MOL   C295 6811   0.324   0.727   5.604 -0.4666  0.6924 -0.7570
   19MOL   C296 6812   0.460   0.682   5.649 -0.4913 -0.3421  0.1955
   19MOL   O297 6813   0.528   0.603   5.545 -0.1483  0.7394  0.4601
   19MOL   H298 6814   0.003   0.450   5.623  1.2381  2.4050  0.5446
   19MOL   H299 6815   7.725   0.569   5.542 -1.5210 -1.7107  1.6439
   19MOL   H300 6816   0.034   0.716   5.635 -1.0101  0.5856 -1.1289
   19MOL   H301 6817   0.095   0.698   5.474  1.7554 -1.3960  0.1957
   19MOL   H302 6818   0.274   0.522   5.551  0.1888  0.0124  1.2105
   19MOL   H303 6819   0.216   0.572   5.707 -2.7491 -1.3887 -0.0818
   19MOL   H304 6820   0.286   0.791   5.684 -0.4065 -0.6387  0.3627
   19MOL   H305 6821   0.339   0.779   5.510 -0.1335  0.1480 -1.0100
   19MOL   H306 6822   0.516   0.773   5.671 -0.9913  0.1957 -0.7330
   19MOL   H307 6823   0.460   0.623   5.741  1.9868 -0.5663  0.0613
   19MOL   C308 6824   0.626   0.510   5.579 -0.0172 -0.3056 -0.4092
   19MOL   O309 6825   0.660   0.491   5.699 -0.1963 -0.0484  0.3178
   19MOL   C310 6826   0.690   0.448   5.458 -0.3962  0.0393  0.0626
   19MOL   C311 6827   0.828   0.469   5.409  0.5079 -0.2980 -0.2518
   19MOL   C312 6828   0.892   0.604   5.418 -0.2070 -0.5303  0.5083
   19MOL   C313 6829   0.806   0.706   5.334 -0.2515  0.2482 -0.2799
   19MOL   C314 6830   0.857   0.846   5.343  0.1770  0.1983  0.0048
   19MOL   O315 6831   0.767   0.946   5.306  0.1793  0.0233 -0.0663
   19MOL   H316 6832   0.617   0.470   5.380 -0.2737  0.4007  0.0522
   19MOL   H317 6833   0.694   0.340   5.473  1.2797  0.2613  1.2821
   19MOL   H318 6834   0.835   0.434   5.306  0.1169  1.8740 -1.0452
   19MOL   H319 6835   0.886   0.402   5.473 -1.9319 -2.5331 -0.2701
   19MOL   H320 6836   0.991   0.613   5.374 -0.6364 -2.0544 -0.8104
   19MOL   H321 6837   0.900   0.644   5.519 -2.6380 -1.6447  1.1785
   19MOL   H322 6838   0.706   0.702   5.376  0.7727 -1.1608  2.1125
   19MOL   H323 6839   0.807   0.689   5.226  1.3900  1.4464 -0.4647
   19MOL   H324 6840   0.895   0.876   5.441 -1.1363  1.0351  0.2833
   19MOL   H325 6841   0.947   0.860   5.283  0.6285  0.2447  0.6886
   19MOL   C326 6842   0.704   1.024   5.393 -0.4634 -0.0427 -0.1531
   19MOL   O327 6843   0.706   1.006   5.516 -0.5017  0.3752  0.3160
   19MOL   C328 6844   0.626   1.141   5.338  0.4474 -0.2229  0.4677
   19MOL   C329 6845   0.534   1.215   5.439  0.4370  0.4368 -0.2432
   19MOL   C330 6846   0.406   1.136   5.474  0.6163 -0.6194  0.1568
   19MOL   C331 6847   0.294   1.210   5.540 -0.0718  0.2351  0.0494
   19MOL   C332 6848   0.169   1.134   5.590  0.4609 -0.1343  0.7012
   19MOL   O333 6849   0.097   1.090   5.475 -0.4303  0.9302 -0.0469
   19MOL   H334 6850   0.568   1.101   5.255 -0.1111 -1.8601  1.6292
   19MOL   H335 6851   0.697   1.215   5.299  0.3729 -0.7636 -0.6980
   19MOL   H336 6852   0.515   1.312   5.393 -1.0859 -0.1425 -0.8535
   19MOL   H337 6853   0.587   1.226   5.534  0.5743  0.7094 -0.3508
   19MOL   H338 6854   0.432   1.047   5.530  1.5438 -0.2655  0.3048
   19MOL   H339 6855   0.382   1.106   5.372  3.1589  0.7038 -0.9051
   19MOL   H340 6856   0.273   1.303   5.486 -1.7196  0.1337  0.5112
   19MOL   H341 6857   0.333   1.250   5.634  0.0402  1.8546 -0.6706
   19MOL   H342 6858   0.210   1.051   5.646  1.3810 -0.2567 -0.1327
   19MOL   H343 6859   0.100   1.196   5.648  0.3133 -0.1828  0.5795
   19MOL   C344 6860   7.837   1.000   5.479  0.1204 -0.5738 -0.0017
   19MOL   O345 6861   7.789   0.958   5.585 -0.0121  0.1203 -0.0369
   19MOL   C346 6862   7.790   0.954   5.344  1.1690 -0.0978 -0.5491
   19MOL   C347 6863   7.664   0.877   5.336  0.0831  0.8141  1.0851
   19MOL   C348 6864   7.650   0.815   5.198  0.1314 -0.5477 -0.4820
   19MOL   C349 6865   7.627   0.918   5.091 -0.6939 -1.1071 -0.5872
   19MOL   C350 6866   7.592   0.847   4.956  0.5427  0.2255  0.3941
   19MOL   O351 6867   7.454   0.807   4.938  0.3423 -0.1803  0.1413
   19MOL   H352 6868   0.022   0.887   5.305 -1.2254 -1.4491 -3.1314
   19MOL   H353 6869   7.793   1.039   5.276 -0.4186 -1.6438 -2.6449
   19MOL   H354 6870   7.591   0.957   5.348  2.0450  2.8663 -0.2807
   19MOL   H355 6871   7.648   0.811   5.422  0.7703  0.5633  1.0264
   19MOL   H356 6872   7.570   0.743   5.188  0.6516 -1.1207 -0.5806
   19MOL   H357 6873   7.736   0.750   5.178 -1.7776 -2.5607 -2.3045
   19MOL   H358 6874   7.706   0.993   5.089 -1.4403 -0.2599  1.0761
   19MOL   H359 6875   7.545   0.986   5.116  1.2655  1.4182 -0.8243
   19MOL   H360 6876   7.604   0.921   4.876  0.1402  0.3508  0.4485
   19MOL   H361 6877   7.651   0.758   4.935 -0.4753  0.3103 -3.0341
   19MOL   H362 6878   7.446   0.720   4.974  0.2440  1.1016  3.2823
   20MOL     C1 6879   4.095   5.759   0.332 -0.1502  0.0586 -0.1542
   20MOL     O2 6880   4.078   5.653   0.391 -0.1358 -0.7965  0.2917
   20MOL     C3 6881   4.008   5.810   0.212  0.1292 -0.5716 -0.6079
   20MOL     C4 6882   3.970   5.688   0.131  0.3068 -0.7060  0.6760
   20MOL     C5 6883   3.889   5.740   0.007  0.2717 -0.4283 -0.2626
   20MOL     C6 6884   3.890   5.636   7.734 -0.1962  0.0900 -0.8129
   20MOL     C7 6885   3.832   5.695   7.611  0.0341  0.3809 -0.4223
   20MOL     O8 6886   3.826   5.600   7.509 -0.1420  0.2580  0.1698
   20MOL     H9 6887   4.062   5.878   0.146 -1.5144  1.3222 -0.0329
   20MOL    H10 6888   3.919   5.864   0.245  1.0982  0.4315  0.3991
   20MOL    H11 6889   3.904   5.610   0.170 -1.4652 -0.4885 -1.7028
   20MOL    H12 6890   4.063   5.640   0.101  0.0580 -0.6824 -0.1712
   20MOL    H13 6891   3.921   5.834   7.806  0.2821 -0.2020  0.2201
   20MOL    H14 6892   3.790   5.767   0.041  0.7547  0.7779  0.1961
   20MOL    H15 6893   3.825   5.554   7.764  0.0477 -0.2774 -1.2941
   20MOL    H16 6894   3.989   5.596   7.715 -0.2543 -0.1389 -0.6321
   20MOL    H17 6895   3.732   5.730   7.639  0.3173 -0.8885  2.2950
   20MOL    H18 6896   3.892   5.784   7.594 -0.4555  0.1037 -3.9969
   20MOL    H19 6897   4.175   5.831   0.354 -2.7981  2.7481  1.1282
   20MOL    C20 6898   3.775   5.641   7.386 -0.0910 -0.1559 -0.2816
   20MOL    O21 6899   3.709   5.745   7.368  0.3490  0.1229  0.0733
   20MOL    C22 6900   3.785   5.543   7.272  0.2740  0.0423  0.2297
   20MOL    C23 6901   3.895   5.579   7.175 -0.9604 -0.1901 -0.0591
   20MOL    C24 6902   3.857   5.690   7.072 -0.6777  0.8058 -0.0785
   20MOL    C25 6903   3.745   5.653   6.974  0.2199  0.0612  0.2939
   20MOL    C26 6904   3.747   5.759   6.861  0.2785  0.0796  0.0400
   20MOL    O27 6905   3.634   5.746   6.780  0.2790  0.7418  0.0625
   20MOL    H28 6906   3.682   5.545   7.235  1.0338  0.4074 -1.9459
   20MOL    H29 6907   3.805   5.442   7.309 -2.7499 -0.3460  1.0086
   20MOL    H30 6908   3.931   5.495   7.116 -0.3466  0.6987 -0.9643
   20MOL    H31 6909   3.982   5.609   7.234  0.6500 -1.2081 -1.8621
   20MOL    H32 6910   3.944   5.697   7.007 -0.4107 -0.8605  0.0829
   20MOL    H33 6911   3.837   5.790   7.110 -0.9192 -0.0325  2.0327
   20MOL    H34 6912   3.654   5.669   7.031 -1.7224 -3.6355 -1.6213
   20MOL    H35 6913   3.747   5.554   6.929  1.3781  0.9224 -1.6402
   20MOL    H36 6914   3.749   5.859   6.905 -0.2517 -0.4475  1.3141
   20MOL    H37 6915   3.839   5.753   6.804 -0.1020  2.6808 -0.8846
   20MOL    C38 6916   3.532   5.833   6.785 -0.0029  0.0764  0.1817
   20MOL    O39 6917   3.531   5.938   6.852  0.1500 -0.2766  0.1599
   20MOL    C40 6918   3.413   5.790   6.699 -0.5352 -0.0941 -0.5429
   20MOL    C41 6919   3.316   5.709   6.785 -0.2942  0.2677 -0.2230
   20MOL    C42 6920   3.180   5.674   6.715 -0.1529 -0.2973  1.0033
   20MOL    C43 6921   3.084   5.593   6.804  0.2998 -0.1864  0.5150
   20MOL    C44 6922   2.960   5.530   6.729 -0.6404 -0.5052  0.5858
   20MOL    O45 6923   2.861   5.506   6.829 -0.4171 -0.1356 -0.0656
   20MOL    H46 6924   3.457   5.734   6.617  0.2701 -0.0804 -0.1237
   20MOL    H47 6925   3.359   5.876   6.660  1.3101  1.4919  0.3094
   20MOL    H48 6926   3.290   5.768   6.873 -1.4258 -0.8277  0.1777
   20MOL    H49 6927   3.361   5.616   6.819 -0.2361 -0.0704 -1.2107
   20MOL    H50 6928   3.191   5.615   6.624  0.2827  0.1485  0.7654
   20MOL    H51 6929   3.132   5.768   6.689 -2.2696 -1.4464  0.6589
   20MOL    H52 6930   3.042   5.651   6.886  0.7850 -1.1724  1.4668
   20MOL    H53 6931   3.135   5.507   6.846  1.0480  0.2600  0.5267
   20MOL    H54 6932   2.921   5.596   6.651 -0.2543  0.0417  0.8446
   20MOL    H55 6933   3.009   5.450   6.673  0.5383  0.0449  0.7982
   20MOL    C56 6934   2.764   5.597   6.849 -0.4342  0.1413 -0.6433
   20MOL    O57 6935   2.763   5.709   6.801  0.1855  0.0128 -0.5643
   20MOL    C58 6936   2.648   5.544   6.933 -0.0589  0.4194 -0.1867
   20MOL    C59 6937   2.552   5.447   6.860  0.0224  0.7133  0.5305
   20MOL    C60 6938   2.422   5.423   6.941 -0.2140 -1.0842  0.8350
   20MOL    C61 6939   2.329   5.312   6.885  0.5078 -0.0852  0.5019
   20MOL    C62 6940   2.277   5.331   6.740  0.2344 -0.5762  0.3334
   20MOL    O63 6941   2.216   5.463   6.729  0.2444 -0.1112  0.7018
   20MOL    H64 6942   2.608   5.643   6.952 -0.6891  0.3671 -1.2221
   20MOL    H65 6943   2.677   5.511   7.033 -0.5444 -0.9142 -0.4706
   20MOL    H66 6944   2.602   5.352   6.841  0.8917  1.5468 -1.4849
   20MOL    H67 6945   2.535   5.481   6.758 -1.8980  0.9194  0.9014
   20MOL    H68 6946   2.371   5.518   6.945  0.7780 -0.5806  2.2497
   20MOL    H69 6947   2.446   5.391   7.043 -3.6915  0.2647  2.1430
   20MOL    H70 6948   2.240   5.311   6.949 -0.6405 -0.9091 -1.0727
   20MOL    H71 6949   2.372   5.212   6.884  0.8759  0.0731  0.6011
   20MOL    H72 6950   2.363   5.336   6.673 -0.1304 -1.0629 -0.1779
   20MOL    H73 6951   2.215   5.248   6.704  1.4356  0.4753 -4.5376
   20MOL    C74 6952   2.197   5.511   6.602 -0.1863  0.1036 -1.1118
   20MOL    O75 6953   2.212   5.454   6.501 -0.2734 -0.4961  0.6244
   20MOL    C76 6954   2.132   5.646   6.609  0.2552  1.0754 -0.2025
   20MOL    C77 6955   1.985   5.646   6.571  0.2492  0.3098  0.0021
   20MOL    C78 6956   1.891   5.567   6.668  0.1561 -0.3845 -0.1636
   20MOL    C79 6957   1.753   5.537   6.600 -0.4883  0.4569 -0.0556
   20MOL    C80 6958   1.661   5.472   6.690  0.9711 -0.0887 -0.7576
   20MOL    O81 6959   1.546   5.427   6.617  0.1145 -0.2123 -0.2117
   20MOL    H82 6960   2.199   5.716   6.559  2.4588  1.1895  2.7714
   20MOL    H83 6961   2.144   5.679   6.712 -0.8746  2.0296 -0.3629
   20MOL    H84 6962   1.979   5.596   6.475 -0.2139  2.2718 -1.0011
   20MOL    H85 6963   1.944   5.744   6.551  0.8616  0.4689 -0.4774
   20MOL    H86 6964   1.872   5.635   6.751  2.2942  0.7692 -0.5887
   20MOL    H87 6965   1.933   5.475   6.710 -1.3875 -0.1579  1.9305
   20MOL    H88 6966   1.767   5.469   6.517 -1.8075 -0.9065  0.8229
   20MOL    H89 6967   1.708   5.626   6.557  0.0161 -0.0392 -1.6157
   20MOL    H90 6968   1.705   5.389   6.744 -1.3506 -0.9578 -0.1524
   20MOL    H91 6969   1.632   5.550   6.761  0.1430 -1.3090  0.2582
   20MOL    C92 6970   1.516   5.297   6.609 -0.5235  0.7906  0.5305
   20MOL    O93 6971   1.594   5.204   6.635  0.5501 -0.0153  0.2858
   20MOL    C94 6972   1.372   5.289   6.554  0.9935 -0.1521  0.2576
   20MOL    C95 6973   1.344   5.327   6.403 -0.1468  0.4423 -0.0368
   20MOL    C96 6974   1.313   5.470   6.380  0.0977  0.0633  0.6177
   20MOL    C97 6975   1.257   5.492   6.234 -0.0214  0.3673  0.2405
   20MOL    C98 6976   1.191   5.632   6.205  0.7584  0.3771  0.4907
   20MOL    O99 6977   1.083   5.639   6.297  0.5377 -0.1158  0.0881
   20MOL   H100 6978   1.300   5.348   6.611 -1.3102 -1.0768 -1.6110
   20MOL   H101 6979   1.341   5.185   6.560  0.0217  0.1663  0.7907
   20MOL   H102 6980   1.257   5.267   6.378 -1.5777  2.2348  0.5444
   20MOL   H103 6981   1.426   5.289   6.342  0.5351  1.7387  0.0329
   20MOL   H104 6982   1.408   5.520   6.397  0.1868  0.8503 -1.9070
   20MOL   H105 6983   1.232   5.491   6.450  0.1238 -0.0242  0.6738
   20MOL   H106 6984   1.190   5.409   6.214 -1.4030  0.9269  2.4070
   20MOL   H107 6985   1.334   5.483   6.157  1.0774  0.8028  1.2687
   20MOL   H108 6986   1.263   5.709   6.234  0.8031  0.6463 -0.3312
   20MOL   H109 6987   1.164   5.643   6.100  2.3251 -1.9338 -0.1833
   20MOL   C110 6988   1.052   5.754   6.354 -0.0716 -0.7735 -0.2557
   20MOL   O111 6989   1.098   5.862   6.337  0.4344  0.0769  0.1023
   20MOL   C112 6990   0.944   5.743   6.462 -0.0726 -0.3624 -0.7971
   20MOL   C113 6991   0.920   5.860   6.562 -0.1789  0.0360  0.8745
   20MOL   C114 6992   0.818   5.815   6.676  0.1888 -1.1063  0.6081
   20MOL   C115 6993   0.777   5.933   6.766  0.6819  0.8284  0.4065
   20MOL   C116 6994   0.710   5.880   6.896  0.5564  0.8128 -0.3169
   20MOL   O117 6995   0.812   5.813   6.973  0.2094  0.2693 -0.4054
   20MOL   H118 6996   0.955   5.645   6.507  1.3361 -0.1873 -0.7288
   20MOL   H119 6997   0.858   5.715   6.401 -0.6163  0.0844 -0.2259
   20MOL   H120 6998   0.876   5.949   6.517 -1.4963  0.5345  3.0680
   20MOL   H121 6999   1.019   5.894   6.593  0.0942  1.9121 -1.8034
   20MOL   H122 7000   0.874   5.735   6.723  1.4171 -0.3026  0.5304
   20MOL   H123 7001   0.731   5.765   6.633  0.6593 -0.5167 -1.0632
   20MOL   H124 7002   0.712   5.994   6.703  0.3685  0.4906  0.4004
   20MOL   H125 7003   0.865   5.995   6.779  1.2731  0.5021 -1.8358
   20MOL   H126 7004   0.671   5.963   6.954 -2.0977 -2.1445  2.2867
   20MOL   H127 7005   0.632   5.807   6.878 -1.0679  1.3649  3.9241
   20MOL   C128 7006   0.786   5.684   7.011  0.3537  0.4332  0.7949
   20MOL   O129 7007   0.724   5.604   6.938 -0.3520  0.3764 -0.3517
   20MOL   C130 7008   0.851   5.637   7.145 -0.3724 -0.2480 -0.1023
   20MOL   C131 7009   0.824   5.487   7.188 -0.6291 -0.0080  0.3021
   20MOL   C132 7010   0.683   5.469   7.241 -0.3600 -0.0725  0.1663
   20MOL   C133 7011   0.656   5.540   7.376 -0.9438 -0.5270 -0.0358
   20MOL   C134 7012   0.524   5.498   7.454 -0.5366  0.1179  0.2445
   20MOL   O135 7013   0.518   5.556   7.578 -0.3264  0.1938 -0.0031
   20MOL   H136 7014   0.835   5.707   7.227 -2.1472  1.1842 -1.6003
   20MOL   H137 7015   0.959   5.651   7.136 -0.3651  0.8024  1.4791
   20MOL   H138 7016   0.900   5.447   7.254 -0.3565 -1.4857 -0.8960
   20MOL   H139 7017   0.838   5.428   7.098 -2.4745 -2.1584  1.3789
   20MOL   H140 7018   0.664   5.362   7.232  1.6904 -0.4171 -0.5316
   20MOL   H141 7019   0.608   5.499   7.168 -0.2591  1.0995  0.5423
   20MOL   H142 7020   0.637   5.647   7.367 -0.4014 -0.5179 -1.1828
   20MOL   H143 7021   0.742   5.516   7.438 -0.1566  0.6421 -0.6569
   20MOL   H144 7022   0.431   5.515   7.400 -0.6792  0.6687  0.6616
   20MOL   H145 7023   0.529   5.389   7.464  2.3419  0.1450 -0.4408
   20MOL   C146 7024   0.433   5.504   7.665  0.0874 -0.1178 -0.7802
   20MOL   O147 7025   0.370   5.402   7.662  0.5042 -0.1898 -0.1712
   20MOL   C148 7026   0.419   5.594   7.795 -0.6896  0.4300 -0.5102
   20MOL   C149 7027   0.536   5.561   0.041 -0.6003 -0.1288 -0.3501
   20MOL   C150 7028   0.516   5.628   0.176 -0.2686  0.0384 -0.1555
   20MOL   C151 7029   0.604   5.578   0.291  0.0814 -0.1748 -0.2604
   20MOL   C152 7030   0.553   5.628   0.428  0.1475 -0.3914 -0.3489
   20MOL   O153 7031   0.521   5.761   0.421  0.3353 -0.6186  0.6993
   20MOL   H154 7032   0.327   5.560   7.842  0.8390 -2.8716  0.2691
   20MOL   H155 7033   0.413   5.700   7.771  0.5404  0.7422  0.4696
   20MOL   H156 7034   0.632   5.580   7.837 -0.3251 -1.0982 -0.1940
   20MOL   H157 7035   0.541   5.455   0.063  1.5382 -0.0785 -0.4894
   20MOL   H158 7036   0.409   5.638   0.191 -0.3767  2.6784 -2.1813
   20MOL   H159 7037   0.539   5.733   0.157 -1.3324 -0.0210 -1.9211
   20MOL   H160 7038   0.709   5.605   0.286  0.2377 -0.5270  1.0345
   20MOL   H161 7039   0.592   5.470   0.285  1.8869 -0.4186  0.3827
   20MOL   H162 7040   0.458   5.578   0.449  0.2984 -0.2617  0.6712
   20MOL   H163 7041   0.619   5.603   0.511 -1.3274  0.4549  1.1128
   20MOL   C164 7042   0.624   5.847   0.406  0.8937 -0.2725  0.1488
   20MOL   O165 7043   0.744   5.821   0.419 -0.2464  0.1172 -0.3976
   20MOL   C166 7044   0.579   5.992   0.376  0.8078  0.4949  0.1240
   20MOL   C167 7045   0.547   6.067   0.506  0.5703 -0.2600 -0.2986
   20MOL   C168 7046   0.672   6.101   0.594  0.4310 -0.2906 -0.1928
   20MOL   C169 7047   0.634   6.184   0.724 -0.4559 -0.3179  0.1568
   20MOL   C170 7048   0.751   6.258   0.794  0.2511 -0.0345  0.2207
   20MOL   O171 7049   0.715   6.349   0.897 -1.0656 -0.0328 -0.6016
   20MOL   H172 7050   0.488   5.991   0.316  0.6182  1.3303  0.3967
   20MOL   H173 7051   0.656   6.043   0.318 -0.0150  1.9492  0.2984
   20MOL   H174 7052   0.475   6.010   0.565  2.0199 -2.0026 -0.1677
   20MOL   H175 7053   0.504   6.163   0.476  1.2536  0.5037  1.1277
   20MOL   H176 7054   0.734   6.168   0.535 -1.2451  1.2814 -0.2132
   20MOL   H177 7055   0.722   6.008   0.622 -0.7246 -0.6107  0.8368
   20MOL   H178 7056   0.586   6.124   0.802 -0.0045 -0.2197  0.5174
   20MOL   H179 7057   0.569   6.263   0.688 -0.0680 -1.0906 -2.2914
   20MOL   H180 7058   0.806   6.179   0.846  1.7776  0.1020 -1.1351
   20MOL   H181 7059   0.823   6.302   0.725 -1.1117  2.6222  0.4256
   20MOL   C182 7060   0.671   6.470   0.869 -0.5755  0.4034 -0.2539
   20MOL   O183 7061   0.640   6.508   0.754  0.5898  0.5029 -0.2016
   20MOL   C184 7062   0.676   6.560   0.994  0.1689 -0.0484  0.3533
   20MOL   C185 7063   0.541   6.619   1.021 -0.6025  0.0307  0.5586
   20MOL   C186 7064   0.512   6.635   1.171 -0.0269  0.1431  0.0070
   20MOL   C187 7065   0.408   6.733   1.204  0.3196  0.0144 -0.2379
   20MOL   C188 7066   0.364   6.752   1.344 -0.7568  0.6536  0.2077
   20MOL   O189 7067   0.310   6.635   1.396 -0.6171 -0.4747 -0.4944
   20MOL   H190 7068   0.754   6.636   0.982  0.8980 -1.2083 -2.5422
   20MOL   H191 7069   0.707   6.504   1.083  0.6793 -2.0107 -1.0301
   20MOL   H192 7070   0.463   6.564   0.969 -0.1449 -0.1019  0.0019
   20MOL   H193 7071   0.536   6.715   0.970  2.2246  0.6199  1.2837
   20MOL   H194 7072   0.598   6.671   1.227 -1.3464  0.2549  2.0259
   20MOL   H195 7073   0.496   6.535   1.213  0.0433 -0.5967 -1.7119
   20MOL   H196 7074   0.319   6.702   1.149  2.0492 -1.0608 -2.5344
   20MOL   H197 7075   0.417   6.832   1.160 -0.0868  1.3084  2.4830
   20MOL   H198 7076   0.447   6.790   1.403  0.0612 -0.8351  0.0405
   20MOL   H199 7077   0.292   6.833   1.353 -1.7845 -0.5770  4.0501
   20MOL   C200 7078   0.253   6.638   1.509  0.2291  0.5839  0.5858
   20MOL   O201 7079   0.272   6.722   1.597  0.5271 -0.3711  0.0931
   20MOL   C202 7080   0.152   6.523   1.545  0.2497  0.1512 -0.1717
   20MOL   C203 7081   0.135   6.421   1.422 -0.1001 -0.5899  0.4578
   20MOL   C204 7082   0.043   6.295   1.446  0.2898  0.0661  0.4501
   20MOL   C205 7083   0.032   6.200   1.320 -0.6231 -0.4218  0.4589
   20MOL   C206 7084   0.149   6.108   1.300 -0.4588  0.3477  0.8039
   20MOL   O207 7085   0.267   6.165   1.244 -0.6399 -0.1503 -0.3084
   20MOL   H208 7086   0.055   6.561   1.577 -0.4536  0.3167 -2.4167
   20MOL   H209 7087   0.204   6.477   1.629  2.2886  0.3125 -1.2890
   20MOL   H210 7088   0.237   6.389   1.401  1.0472  0.9083  3.4626
   20MOL   H211 7089   0.098   6.467   1.331  0.3670  1.5815  1.3531
   20MOL   H212 7090   7.790   6.339   1.469 -1.4184 -2.6067 -1.3709
   20MOL   H213 7091   0.061   6.233   1.534 -0.5920 -2.0728 -0.8360
   20MOL   H214 7092   0.020   6.251   1.224 -0.5486 -1.1576  0.0577
   20MOL   H215 7093   7.789   6.136   1.331  0.0340 -0.7651  4.5999
   20MOL   H216 7094   0.169   6.054   1.392  0.1615  1.1567  1.1541
   20MOL   H217 7095   0.108   6.030   1.237 -2.1277  0.6022  1.5670
   20MOL   C218 7096   0.287   6.177   1.112 -0.5669  0.4743  0.6556
   20MOL   O219 7097   0.211   6.132   1.030 -0.4885 -0.8261 -0.3854
   20MOL   C220 7098   0.418   6.237   1.074 -0.5352  0.6240 -0.1337
   20MOL   C221 7099   0.545   6.186   1.136  0.3019 -0.2380 -0.0716
   20MOL   C222 7100   0.559   6.032   1.123  0.2565 -0.1025 -0.0778
   20MOL   C223 7101   0.686   5.970   1.185  0.2737 -0.5968 -0.7374
   20MOL   C224 7102   0.712   5.819   1.161 -0.4949 -0.4641  0.1522
   20MOL   O225 7103   0.714   5.788   1.025  0.3206 -0.0892 -0.1104
   20MOL   H226 7104   0.413   6.339   1.112 -1.5412  0.8374 -0.8280
   20MOL   H227 7105   0.434   6.239   0.966  0.1195 -1.9744 -0.1072
   20MOL   H228 7106   0.533   6.198   1.244 -3.4427 -1.9719 -0.2192
   20MOL   H229 7107   0.627   6.250   1.102  0.7153 -0.1048  1.1403
   20MOL   H230 7108   0.546   6.012   1.017  0.5968 -1.7950  0.1858
   20MOL   H231 7109   0.475   5.983   1.172  1.0070  0.3622  1.7048
   20MOL   H232 7110   0.669   5.994   1.290 -0.0471 -1.7503 -0.5221
   20MOL   H233 7111   0.776   6.025   1.157  0.2060  0.8814  1.7737
   20MOL   H234 7112   0.799   5.786   1.218  0.7119 -0.5731 -1.7038
   20MOL   H235 7113   0.618   5.770   1.188 -0.5909 -0.6524 -0.5110
   20MOL   C236 7114   0.818   5.823   0.950 -0.5310  0.4467  0.4711
   20MOL   O237 7115   0.913   5.897   0.986 -0.0933 -0.6282  0.2375
   20MOL   C238 7116   0.800   5.766   0.813 -0.6694 -0.2863 -0.2693
   20MOL   C239 7117   0.807   5.612   0.806 -0.1927 -1.0002 -0.3786
   20MOL   C240 7118   0.945   5.545   0.781 -0.3361 -0.1642  0.3586
   20MOL   C241 7119   0.991   5.543   0.632  0.4823 -0.0267  0.1316
   20MOL   C242 7120   1.130   5.475   0.621  0.3002 -0.0072  0.8404
   20MOL   O243 7121   1.116   5.333   0.666  0.5335 -0.4461 -0.3945
   20MOL   H244 7122   0.867   5.809   0.739  0.7378 -3.0917 -0.6987
   20MOL   H245 7123   0.704   5.807   0.782 -1.8027 -1.5227  1.5224
   20MOL   H246 7124   0.743   5.579   0.725  1.4529 -0.3374 -1.9825
   20MOL   H247 7125   0.742   5.578   0.887  0.5671 -1.5363  0.0084
   20MOL   H248 7126   0.925   5.441   0.808  1.2913 -0.5181  0.2299
   20MOL   H249 7127   1.022   5.586   0.845  0.8030  1.1807 -1.8265
   20MOL   H250 7128   0.991   5.644   0.591  1.3016  0.2813  0.8850
   20MOL   H251 7129   0.916   5.484   0.577 -1.3317  2.2553  0.0739
   20MOL   H252 7130   1.139   5.460   0.514 -1.2715 -0.6394  0.7791
   20MOL   H253 7131   1.213   5.526   0.670  0.7498  0.8526 -0.7905
   20MOL   C254 7132   1.184   5.233   0.601 -0.0688 -0.7157 -0.8066
   20MOL   O255 7133   1.244   5.246   0.496 -0.3815  0.0966  1.0111
   20MOL   C256 7134   1.174   5.100   0.675  0.0250  0.4545 -0.3238
   20MOL   C257 7135   1.204   5.096   0.821 -0.4915  1.2775 -0.2035
   20MOL   C258 7136   1.171   4.968   0.895  0.1630  0.8548  0.4911
   20MOL   C259 7137   1.138   4.972   1.051 -0.5765  0.3147  0.3266
   20MOL   C260 7138   1.121   4.831   1.107  0.0375 -0.3805  0.0349
   20MOL   O261 7139   1.087   4.824   1.245  0.1650 -0.2236 -0.3827
   20MOL   H262 7140   1.252   5.037   0.632  1.2030  0.8478  1.1842
   20MOL   H263 7141   1.077   5.057   0.650  0.0589  0.1760  0.0074
   20MOL   H264 7142   1.137   5.173   0.859 -0.6327  0.3611  1.4238
   20MOL   H265 7143   1.309   5.118   0.843 -0.1449 -0.3956 -0.1505
   20MOL   H266 7144   1.262   4.908   0.886 -0.5851 -0.2029 -0.0466
   20MOL   H267 7145   1.084   4.925   0.846  0.2228 -0.7509  1.7421
   20MOL   H268 7146   1.045   5.027   1.059 -0.6808  0.1434  0.2910
   20MOL   H269 7147   1.223   5.016   1.102 -0.1016  0.9383 -0.9703
   20MOL   H270 7148   1.041   4.776   1.056  1.0486 -1.2694 -0.5998
   20MOL   H271 7149   1.211   4.774   1.086 -1.0628 -1.7272 -1.1170
   20MOL   C272 7150   1.021   4.724   1.292 -0.2082 -0.0401  0.5535
   20MOL   O273 7151   0.998   4.618   1.235  0.6995  0.0882 -0.3590
   20MOL   C274 7152   0.973   4.752   1.428  0.2863 -0.1333  0.3714
   20MOL   C275 7153   0.843   4.833   1.428  0.1918 -0.7854 -0.0057
   20MOL   C276 7154   0.796   4.881   1.567 -0.1981 -0.1658  0.1119
   20MOL   C277 7155   0.871   5.003   1.619  0.3848 -0.3585  0.2958
   20MOL   C278 7156   0.817   5.041   1.755 -0.0047 -0.5632  0.9958
   20MOL   O279 7157   0.861   4.936   1.847 -0.1707 -0.1757 -0.4792
   20MOL   H280 7158   1.039   4.822   1.479  0.1193  1.6435 -1.7759
   20MOL   H281 7159   0.967   4.664   1.492 -1.2020 -0.4776 -0.2223
   20MOL   H282 7160   0.761   4.777   1.383  0.6833 -2.2107  0.8442
   20MOL   H283 7161   0.851   4.926   1.371 -0.3485 -0.9549 -0.3605
   20MOL   H284 7162   0.806   4.804   1.644  1.5547  1.0863  1.1641
   20MOL   H285 7163   0.694   4.919   1.568 -0.3435 -0.5629  2.0148
   20MOL   H286 7164   0.844   5.085   1.553  1.0711 -1.9779 -2.0568
   20MOL   H287 7165   0.978   4.984   1.619  0.0447 -2.5604 -1.1417
   20MOL   H288 7166   0.854   5.137   1.792  1.0798 -0.7716  0.4837
   20MOL   H289 7167   0.710   5.062   1.746  0.7202  3.2443  0.0957
   20MOL   C290 7168   0.932   4.973   1.954 -0.2822 -0.1266 -0.0222
   20MOL   O291 7169   0.956   5.095   1.993 -0.3034 -0.2350 -0.3303
   20MOL   C292 7170   0.988   4.854   2.035  0.3887 -0.5399  0.3417
   20MOL   C293 7171   0.892   4.738   2.064 -0.1785  0.7058 -0.3642
   20MOL   C294 7172   0.959   4.617   2.122  0.0766 -0.7353 -0.1708
   20MOL   C295 7173   0.878   4.547   2.234  0.7207  0.2645 -0.2074
   20MOL   C296 7174   0.766   4.451   2.195 -0.6244  0.1779 -0.3950
   20MOL   O297 7175   0.655   4.510   2.130 -0.0190  0.7446  0.1172
   20MOL   H298 7176   1.020   4.885   2.135 -1.2742 -0.1664  0.7773
   20MOL   H299 7177   1.080   4.820   1.989 -0.0605  1.7709 -2.4125
   20MOL   H300 7178   0.838   4.707   1.974  1.1842  2.9543 -2.0258
   20MOL   H301 7179   0.805   4.760   2.126  0.6229 -0.9723  1.3687
   20MOL   H302 7180   1.049   4.647   2.175 -0.9206  2.9467 -0.4653
   20MOL   H303 7181   0.970   4.534   2.053  0.7655  0.3093 -1.3289
   20MOL   H304 7182   0.843   4.624   2.303 -2.4218  0.0287 -1.4648
   20MOL   H305 7183   0.935   4.477   2.294  0.1747  1.9075  2.3164
   20MOL   H306 7184   0.807   4.366   2.141 -3.7117 -0.3762 -2.0033
   20MOL   H307 7185   0.736   4.405   2.289  1.5712 -1.3507 -0.4017
   20MOL   C308 7186   0.523   4.483   2.149 -0.3962  0.8349 -0.3844
   20MOL   O309 7187   0.490   4.386   2.223  0.2937 -0.1059  0.3067
   20MOL   C310 7188   0.416   4.569   2.087  0.3007 -0.3640  0.4894
   20MOL   C311 7189   0.270   4.497   2.107  0.4181  0.3159  0.0466
   20MOL   C312 7190   0.189   4.540   2.229  0.1248  0.0893 -0.2203
   20MOL   C313 7191   0.048   4.480   2.220 -0.0322  0.0025 -0.1378
   20MOL   C314 7192   7.794   4.525   2.336 -0.0733  0.0339  0.4274
   20MOL   O315 7193   7.760   4.668   2.332  0.1354 -0.6628  1.1445
   20MOL   H316 7194   0.425   4.555   1.979  1.1004  3.6568 -0.0140
   20MOL   H317 7195   0.426   4.673   2.117  1.7750 -0.1838 -0.5500
   20MOL   H318 7196   0.272   4.388   2.103  1.5615  0.2894  0.9569
   20MOL   H319 7197   0.216   4.523   2.016  1.6829 -0.5706 -0.9771
   20MOL   H320 7198   0.192   4.648   2.239  1.0916  0.2073 -1.7058
   20MOL   H321 7199   0.229   4.514   2.327 -1.2680  2.8953  1.1413
   20MOL   H322 7200   0.051   4.371   2.227 -1.2450 -0.0325 -0.1949
   20MOL   H323 7201   0.005   4.490   2.121 -1.2905 -1.7154  0.2069
   20MOL   H324 7202   7.704   4.463   2.334  0.0281 -0.1136  0.3976
   20MOL   H325 7203   0.005   4.501   2.427  0.3663 -0.0166  0.1444
   20MOL   C326 7204   7.655   4.706   2.397 -0.1287 -0.0973  0.1448
   20MOL   O327 7205   7.569   4.634   2.445 -0.2062 -0.1850  0.3048
   20MOL   C328 7206   7.638   4.857   2.396 -0.4892  0.1618  0.0116
   20MOL   C329 7207   7.709   4.923   2.515 -0.1255 -0.0281  0.1864
   20MOL   C330 7208   7.660   4.875   2.649  0.1325  0.5755  0.4533
   20MOL   C331 7209   7.671   4.977   2.764 -1.4713  0.4407 -0.0724
   20MOL   C332 7210   7.631   4.911   2.900  0.5976  0.7521 -0.4874
   20MOL   O333 7211   7.705   4.787   2.921 -0.1115  0.1450  0.2930
   20MOL   H334 7212   7.532   4.881   2.399 -1.1279 -2.4824  0.4337
   20MOL   H335 7213   7.674   4.897   2.301 -0.7821  1.2497  0.3497
   20MOL   H336 7214   7.689   5.030   2.507  0.8843  0.1016 -0.5948
   20MOL   H337 7215   7.815   4.899   2.517  0.1669  1.2101 -0.0284
   20MOL   H338 7216   7.708   4.780   2.671 -1.8025 -1.0491 -2.0154
   20MOL   H339 7217   7.554   4.850   2.637  0.4895 -1.1387  0.8039
   20MOL   H340 7218   7.629   5.074   2.736  1.2354  1.9170  0.7327
   20MOL   H341 7219   7.778   4.994   2.774 -1.5776  0.6744  0.7500
   20MOL   H342 7220   7.626   4.965   2.995 -1.3350  0.6506 -0.4997
   20MOL   H343 7221   7.525   4.886   2.890  0.2786  1.5812  0.6587
   20MOL   C344 7222   7.819   4.787   2.988 -0.0527  0.7128 -0.1237
   20MOL   O345 7223   0.024   4.879   3.051 -0.1078 -0.1002  0.0597
   20MOL   C346 7224   0.038   4.651   2.984 -0.6276  0.3754 -0.4253
   20MOL   C347 7225   0.127   4.637   3.104 -0.4178 -0.0516 -0.0744
   20MOL   C348 7226   0.179   4.492   3.123  0.3769 -0.4420 -0.3249
   20MOL   C349 7227   0.083   4.410   3.203 -0.1516 -0.8997  0.0032
   20MOL   C350 7228   0.102   4.268   3.160  0.0172 -0.4624  0.0704
   20MOL   O351 7229   7.832   4.193   3.194 -0.2176 -0.2546  0.4161
   20MOL   H352 7230   0.086   4.637   2.887 -1.4623 -2.5893 -0.4455
   20MOL   H353 7231   7.806   4.574   2.992  0.2348 -0.7206 -2.2341
   20MOL   H354 7232   0.078   4.673   3.193 -1.2735  0.7672 -0.8670
   20MOL   H355 7233   0.215   4.702   3.098 -0.9452  0.4739 -2.7334
   20MOL   H356 7234   0.279   4.499   3.165  0.9876 -4.2684 -0.9795
   20MOL   H357 7235   0.203   4.457   3.023  2.4420  0.5343 -0.2077
   20MOL   H358 7236   7.827   4.432   3.165 -1.1925 -0.9216  2.6739
   20MOL   H359 7237   0.086   4.424   3.311 -1.1411  1.1667 -0.2126
   20MOL   H360 7238   0.131   4.257   3.055 -1.1287  0.4417 -0.3448
   20MOL   H361 7239   0.190   4.223   3.206  1.7281  1.1435 -1.5315
   20MOL   H362 7240   7.761   4.217   3.137  0.3655 -1.4756 -0.8592
   21MOL     C1 7241   0.324   7.380   0.633 -0.3349 -0.0176  0.4768
   21MOL     O2 7242   0.408   7.289   0.609  0.2605  0.3979 -0.8307
   21MOL     C3 7243   0.177   7.355   0.666  0.0951 -0.0746 -0.4368
   21MOL     C4 7244   0.088   7.280   0.569 -0.3463  0.4719  0.7457
   21MOL     C5 7245   0.095   7.121   0.573 -0.2006 -0.4180  0.3129
   21MOL     C6 7246   0.036   7.045   0.452  0.4060  0.4332 -0.0718
   21MOL     C7 7247   0.128   7.052   0.331  0.8732  0.1008 -0.0670
   21MOL     O8 7248   0.077   6.974   0.226 -0.3684 -0.1451 -0.5577
   21MOL     H9 7249   0.136   7.456   0.671 -1.6832 -0.7711 -0.6403
   21MOL    H10 7250   0.160   7.319   0.767  1.1001  1.4331  0.2967
   21MOL    H11 7251   0.113   7.304   0.465  0.7655 -1.3694  0.5807
   21MOL    H12 7252   7.829   7.310   0.588 -1.1954 -1.3828 -0.7588
   21MOL    H13 7253   0.045   7.088   0.663 -0.4072  2.1464  1.1919
   21MOL    H14 7254   0.199   7.089   0.579 -0.0681  0.1992  1.5410
   21MOL    H15 7255   7.785   7.091   0.427  0.5192  1.3626  1.1427
   21MOL    H16 7256   0.028   6.939   0.472 -2.1191  0.2112 -2.0654
   21MOL    H17 7257   0.134   7.157   0.303 -1.2270  0.6419  1.4038
   21MOL    H18 7258   0.227   7.015   0.359  0.4262 -2.4664 -1.7195
   21MOL    H19 7259   0.347   7.487   0.632 -1.5901  0.2593 -0.9176
   21MOL    C20 7260   0.034   7.033   0.106 -0.0437 -0.0811 -0.3335
   21MOL    O21 7261   0.053   7.154   0.079 -0.1463  0.4065 -0.2018
   21MOL    C22 7262   7.814   6.933   0.010 -0.0399 -0.0497 -0.1771
   21MOL    C23 7263   0.062   6.819   7.807 -0.0594  0.9926 -0.5601
   21MOL    C24 7264   0.177   6.865   7.722  0.6936 -0.0688  0.4056
   21MOL    C25 7265   0.263   6.762   7.646 -0.2730  0.3506 -0.1794
   21MOL    C26 7266   0.375   6.703   7.734 -0.0991 -0.0086 -0.3893
   21MOL    O27 7267   0.485   6.796   7.750  0.4448 -0.5650  0.1749
   21MOL    H28 7268   7.762   6.980   7.771 -1.7993  0.1907  1.0224
   21MOL    H29 7269   7.735   6.885   0.068 -2.8578  1.8054 -2.3111
   21MOL    H30 7270   0.000   6.741   7.763  1.0378  0.3151 -0.9046
   21MOL    H31 7271   0.096   6.781   0.059 -2.6407  1.8860  0.7537
   21MOL    H32 7272   0.240   6.938   7.773  0.1450  0.5490  0.1985
   21MOL    H33 7273   0.134   6.936   7.651  2.5849  1.7054  0.9774
   21MOL    H34 7274   0.314   6.792   7.555 -2.3204  0.0198 -1.4561
   21MOL    H35 7275   0.201   6.681   7.609  0.0747 -0.4295  0.9132
   21MOL    H36 7276   0.335   6.686   7.834  0.7832  2.6580  0.4618
   21MOL    H37 7277   0.412   6.608   7.695 -0.4005 -0.4279  0.3433
   21MOL    C38 7278   0.510   6.842   0.022  0.3231  0.4120 -0.3513
   21MOL    O39 7279   0.472   6.807   0.135  0.1389 -0.4732 -0.2275
   21MOL    C40 7280   0.596   6.970   7.842  0.5660  0.1974 -0.3542
   21MOL    C41 7281   0.569   7.087   0.098 -0.2185  0.5186  0.1125
   21MOL    C42 7282   0.435   7.167   0.092 -0.4464 -0.6800 -0.1408
   21MOL    C43 7283   0.440   7.290   0.184 -0.0498 -0.0855  0.7436
   21MOL    C44 7284   0.318   7.378   0.180  0.6973  0.0640 -0.4263
   21MOL    O45 7285   0.332   7.483   0.267 -0.4935 -0.0594 -0.0951
   21MOL    H46 7286   0.574   7.005   7.741 -1.4389  0.6698  0.2215
   21MOL    H47 7287   0.703   6.950   0.000  0.5306  0.0840  0.4595
   21MOL    H48 7288   0.654   7.152   0.078  0.5738 -0.5949 -0.1835
   21MOL    H49 7289   0.583   7.044   0.197  0.9314  0.7703  0.0630
   21MOL    H50 7290   0.350   7.106   0.123 -1.1038  1.1791  1.8254
   21MOL    H51 7291   0.412   7.200   7.835 -0.5375 -0.5626 -0.0831
   21MOL    H52 7292   0.529   7.349   0.161 -1.4956  2.0429  0.4093
   21MOL    H53 7293   0.447   7.259   0.288 -2.0638 -0.2696  0.8443
   21MOL    H54 7294   0.307   7.413   0.077 -0.7761  2.5540  0.5334
   21MOL    H55 7295   0.226   7.323   0.201  1.2099 -0.7483 -0.2963
   21MOL    C56 7296   0.246   7.585   0.264  0.6973  0.0025 -0.0192
   21MOL    O57 7297   0.164   7.593   0.174  0.7191 -0.7953  0.4629
   21MOL    C58 7298   0.261   7.689   0.372  0.1673 -0.4830 -0.2409
   21MOL    C59 7299   0.148   7.788   0.392  0.0141 -0.1167  0.4036
   21MOL    C60 7300   0.133   0.055   0.283 -0.6413  0.1875  0.2223
   21MOL    C61 7301   0.032   0.163   0.311 -0.5538  0.8503 -0.3813
   21MOL    C62 7302   7.723   0.134   0.279 -0.6295  0.1157 -0.5898
   21MOL    O63 7303   7.644   0.240   0.323 -0.0569  0.1620 -0.1257
   21MOL    H64 7304   0.348   7.751   0.349 -0.9940  2.0284  1.8649
   21MOL    H65 7305   0.292   7.639   0.464  1.3303  2.3044  0.9316
   21MOL    H66 7306   0.163   7.843   0.485  0.2919 -2.5123  1.8276
   21MOL    H67 7307   0.052   7.737   0.399 -0.3452  0.4462 -0.3165
   21MOL    H68 7308   0.122   0.012   0.183  0.2588 -0.5687  0.4348
   21MOL    H69 7309   0.227   0.110   0.289 -0.4768 -0.0653  0.0177
   21MOL    H70 7310   0.060   0.253   0.256  2.1108 -1.6302 -3.2979
   21MOL    H71 7311   0.046   0.196   0.414 -2.7052 -2.5045  1.0756
   21MOL    H72 7312   7.717   0.129   0.170  0.9224 -1.1236 -0.6479
   21MOL    H73 7313   7.689   0.045   0.331 -1.2831  0.4034 -0.5213
   21MOL    C74 7314   7.510   0.234   0.295  0.0351 -0.4834 -0.1827
   21MOL    O75 7315   7.456   0.175   0.205 -0.1578  0.0265  0.2757
   21MOL    C76 7316   7.429   0.338   0.372  1.0293  0.7240  0.3238
   21MOL    C77 7317   7.468   0.485   0.332 -0.0418 -0.1705 -0.3596
   21MOL    C78 7318   7.373   0.543   0.229 -0.0893  0.2983  1.1342
   21MOL    C79 7319   7.377   0.483   0.084  0.1699 -0.0051 -0.3905
   21MOL    C80 7320   7.289   0.547   7.821  0.1262 -0.1475 -0.2597
   21MOL    O81 7321   7.322   0.687   7.805  0.0187  0.0853  0.7426
   21MOL    H82 7322   7.462   0.319   0.474 -0.1309  0.8483  0.7286
   21MOL    H83 7323   7.321   0.324   0.377  1.3110 -1.6585  0.1444
   21MOL    H84 7324   7.569   0.502   0.294 -0.2311  0.0367 -0.7737
   21MOL    H85 7325   7.465   0.537   0.428  2.4647 -3.8905  1.8562
   21MOL    H86 7326   7.406   0.647   0.220 -1.2411  0.3975 -2.7779
   21MOL    H87 7327   7.272   0.533   0.270  0.1055 -1.7722  1.1205
   21MOL    H88 7328   7.358   0.376   0.080  0.5809 -0.0616 -0.8203
   21MOL    H89 7329   7.482   0.482   0.057  0.8104  0.8050  1.9622
   21MOL    H90 7330   7.303   0.475   7.741  0.5533 -2.3028  1.7181
   21MOL    H91 7331   7.184   0.547   0.007  0.1519  0.7047 -0.1460
   21MOL    C92 7332   7.384   0.730   7.695 -0.0042  0.5469 -0.4039
   21MOL    O93 7333   7.437   0.659   7.603  0.0291 -0.2512 -0.0869
   21MOL    C94 7334   7.401   0.882   7.695  0.5418 -0.6317  0.0613
   21MOL    C95 7335   7.273   0.962   7.732 -0.0417  0.4659 -0.8141
   21MOL    C96 7336   7.303   1.087   7.810  0.1661  0.0536  0.3077
   21MOL    C97 7337   7.179   1.187   7.800  0.1510 -0.5401  0.0768
   21MOL    C98 7338   7.210   1.320   0.034 -0.0658 -0.0720  0.3170
   21MOL    O99 7339   7.193   1.299   0.172 -0.0943 -0.0381  0.0973
   21MOL   H100 7340   7.442   0.914   7.599  0.4961  1.3362  0.6782
   21MOL   H101 7341   7.469   0.906   7.777 -0.1300  0.1036  0.4116
   21MOL   H102 7342   7.195   0.905   7.783  1.2405 -2.0329 -1.5235
   21MOL   H103 7343   7.222   0.999   7.644  0.4300  1.3059 -0.7350
   21MOL   H104 7344   7.387   1.132   7.758 -0.0623 -0.5124 -0.5812
   21MOL   H105 7345   7.328   1.049   0.065 -1.4656 -1.2040  0.2669
   21MOL   H106 7346   7.091   1.138   7.841 -0.5058 -0.1857 -0.8985
   21MOL   H107 7347   7.166   1.216   7.696 -1.8535  2.9001  1.2217
   21MOL   H108 7348   7.302   1.368   0.003  0.0591  0.3700  1.3510
   21MOL   H109 7349   7.135   1.395   0.009  1.7819  1.9835  0.7875
   21MOL   C110 7350   7.281   1.341   0.258  0.1141 -0.2337  0.5266
   21MOL   O111 7351   7.394   1.387   0.242 -0.0008  0.3245  0.1203
   21MOL   C112 7352   7.220   1.333   0.403  0.7415  0.4890 -0.0466
   21MOL   C113 7353   7.280   1.208   0.475  0.4628 -1.0768 -0.3968
   21MOL   C114 7354   7.208   1.073   0.432  0.5854 -0.6307 -0.2927
   21MOL   C115 7355   7.266   0.952   0.497 -0.2345  0.0280  0.3573
   21MOL   C116 7356   7.216   0.821   0.441 -0.4834  1.2710  0.1379
   21MOL   O117 7357   7.258   0.703   0.511 -0.5066  0.8073  0.2661
   21MOL   H118 7358   7.112   1.321   0.414  0.7666 -1.2415 -1.4525
   21MOL   H119 7359   7.247   1.434   0.433 -0.6062  1.5125 -2.1653
   21MOL   H120 7360   7.273   1.221   0.583 -2.2436  1.8804 -0.8416
   21MOL   H121 7361   7.385   1.191   0.453  1.4680  0.7484  2.7301
   21MOL   H122 7362   7.238   1.059   0.328  1.8640  0.0196 -0.0219
   21MOL   H123 7363   7.099   1.071   0.433  0.5628  0.3480  0.7001
   21MOL   H124 7364   7.234   0.950   0.601 -0.2914 -1.9306  0.3086
   21MOL   H125 7365   7.374   0.963   0.501 -0.2306  0.3293 -0.5120
   21MOL   H126 7366   7.109   0.813   0.428 -0.5793 -1.1893  2.0205
   21MOL   H127 7367   7.251   0.808   0.339 -0.4297 -1.6072  0.4729
   21MOL   C128 7368   7.204   0.671   0.625 -0.5738 -0.2515  0.0752
   21MOL   O129 7369   7.108   0.727   0.682  0.3145 -0.2883 -0.3338
   21MOL   C130 7370   7.262   0.544   0.684  0.0319 -0.0263 -0.1580
   21MOL   C131 7371   7.202   0.422   0.616  0.4725 -0.4568  0.7445
   21MOL   C132 7372   7.055   0.392   0.647  0.1833 -0.2135 -0.1673
   21MOL   C133 7373   6.992   0.286   0.553  0.1928  0.1967  0.4228
   21MOL   C134 7374   6.847   0.260   0.581  0.0540  0.1591  0.6776
   21MOL   O135 7375   6.765   0.358   0.518 -0.0327  0.5845 -0.0273
   21MOL   H136 7376   7.241   0.545   0.791 -1.7614 -0.7679 -0.4771
   21MOL   H137 7377   7.369   0.556   0.669  0.2123 -2.5341 -1.1912
   21MOL   H138 7378   7.252   0.326   0.632 -0.0593 -1.0628 -1.1747
   21MOL   H139 7379   7.206   0.446   0.510  1.0882  4.2726  1.7362
   21MOL   H140 7380   7.004   0.486   0.626  3.7152  1.4000 -1.9955
   21MOL   H141 7381   7.040   0.366   0.752  1.3537  0.1773  0.1079
   21MOL   H142 7382   7.046   0.192   0.565  2.7522  1.2808 -2.1037
   21MOL   H143 7383   7.002   0.306   0.447 -0.5124  1.8429  0.6383
   21MOL   H144 7384   6.817   0.165   0.537 -0.9673  1.2583 -1.0606
   21MOL   H145 7385   6.838   0.257   0.690 -0.2192  1.1143  0.6860
   21MOL   C146 7386   6.633   0.372   0.549 -0.2785  0.3041  0.2199
   21MOL   O147 7387   6.576   0.317   0.641  0.2017  0.3009 -0.1288
   21MOL   C148 7388   6.571   0.474   0.461  0.5398 -0.4431  0.6513
   21MOL   C149 7389   6.645   0.607   0.450 -0.0453  0.1785  0.2353
   21MOL   C150 7390   6.673   0.669   0.590 -0.3340 -0.7131 -0.5961
   21MOL   C151 7391   6.711   0.819   0.588  0.1918  0.3191 -0.0569
   21MOL   C152 7392   6.733   0.869   0.727 -0.0111 -0.0320  0.2119
   21MOL   O153 7393   6.778   1.008   0.732 -0.4976 -0.3324 -0.0637
   21MOL   H154 7394   6.472   0.489   0.503  0.7674  3.2312  0.0272
   21MOL   H155 7395   6.562   0.435   0.359 -0.5309 -1.9583  1.3071
   21MOL   H156 7396   6.592   0.685   0.395  0.4090  0.3875  0.0959
   21MOL   H157 7397   6.734   0.599   0.389 -0.3529 -0.3225 -0.1466
   21MOL   H158 7398   6.748   0.617   0.650  1.7898  1.1800 -1.5423
   21MOL   H159 7399   6.585   0.648   0.652  0.4538 -3.1686 -0.2340
   21MOL   H160 7400   6.646   0.892   0.539 -0.8401 -1.4589 -1.3880
   21MOL   H161 7401   6.802   0.823   0.528  0.7267 -1.2416  0.6382
   21MOL   H162 7402   6.635   0.869   0.776 -0.3177  1.7918 -0.3613
   21MOL   H163 7403   6.797   0.802   0.784 -0.2477 -0.8095 -0.4286
   21MOL   C164 7404   6.814   1.063   0.850 -0.6067  0.1773  1.1517
   21MOL   O165 7405   6.804   1.007   0.959 -0.0511 -0.2119 -0.4184
   21MOL   C166 7406   6.867   1.199   0.833  0.8751  0.1558  0.0311
   21MOL   C167 7407   7.014   1.217   0.808  0.0909 -0.0519  0.2417
   21MOL   C168 7408   7.107   1.234   0.932  0.6268 -0.4513 -0.3305
   21MOL   C169 7409   7.256   1.271   0.882  0.0032 -0.2488 -0.6072
   21MOL   C170 7410   7.336   1.331   0.996 -0.5887  0.0306  0.4289
   21MOL   O171 7411   7.471   1.345   0.949  0.0819 -0.0364  0.6608
   21MOL   H172 7412   6.828   1.257   0.917 -1.0099 -0.9987 -0.0218
   21MOL   H173 7413   6.817   1.243   0.747  3.0293  0.2214 -1.2249
   21MOL   H174 7414   7.021   1.292   0.729 -2.9635  1.6415  1.5011
   21MOL   H175 7415   7.038   1.122   0.760 -1.4836 -1.1793  1.6576
   21MOL   H176 7416   7.096   1.140   0.987 -0.3021  1.0316  2.0902
   21MOL   H177 7417   7.077   1.311   1.002  1.7753  1.9422 -2.3900
   21MOL   H178 7418   7.261   1.335   0.793 -0.1957  0.4250 -0.1399
   21MOL   H179 7419   7.306   1.179   0.853 -0.4836 -0.6123 -0.2890
   21MOL   H180 7420   7.290   1.429   1.010 -1.3888 -0.3382  0.3513
   21MOL   H181 7421   7.327   1.274   1.088  2.1086  0.5379  1.0692
   21MOL   C182 7422   7.566   1.393   1.021 -0.6543 -1.1236 -0.4734
   21MOL   O183 7423   7.548   1.440   1.135  0.5184  0.2748  0.3068
   21MOL   C184 7424   7.708   1.388   0.965  0.6433 -0.2131  0.3828
   21MOL   C185 7425   7.811   1.343   1.073 -0.9060  0.5376  0.3280
   21MOL   C186 7426   0.112   1.329   1.031 -0.2521  0.7328  0.0281
   21MOL   C187 7427   0.182   1.464   1.026 -0.0184 -0.5483 -0.2821
   21MOL   C188 7428   0.315   1.455   0.949  0.2120  0.6358 -0.0562
   21MOL   O189 7429   0.348   1.581   0.913 -0.2264 -0.2124 -0.3104
   21MOL   H190 7430   7.719   1.489   0.925 -0.3771 -0.9259 -1.8118
   21MOL   H191 7431   7.703   1.312   0.886  1.8451 -0.7837  0.8543
   21MOL   H192 7432   7.768   1.252   1.114 -0.7148  0.2075 -0.2060
   21MOL   H193 7433   7.813   1.410   1.159  0.6540 -2.2240  2.5122
   21MOL   H194 7434   0.119   1.275   0.937 -0.9042  0.0014  0.3968
   21MOL   H195 7435   0.158   1.265   1.106 -0.6511 -0.5010 -0.7465
   21MOL   H196 7436   0.193   1.503   1.126  0.9075  0.5006 -0.7884
   21MOL   H197 7437   0.104   1.518   0.971 -0.2664  1.2536  1.7939
   21MOL   H198 7438   0.390   1.406   1.010 -0.5061 -1.5403 -0.8676
   21MOL   H199 7439   0.308   1.384   0.866  0.3004  1.3311 -0.6613
   21MOL   C200 7440   0.461   1.602   0.851 -0.0605  0.2762  1.1436
   21MOL   O201 7441   0.556   1.521   0.845  0.9289  0.2305 -0.6522
   21MOL   C202 7442   0.474   1.743   0.797 -0.1682  0.1170 -0.6783
   21MOL   C203 7443   0.370   1.782   0.684  0.2134 -0.2381  0.5030
   21MOL   C204 7444   0.356   1.683   0.564  0.2938 -0.0603  0.0203
   21MOL   C205 7445   0.285   1.741   0.437  0.4548 -0.0206  0.0904
   21MOL   C206 7446   0.218   1.628   0.348  0.0234  0.3521  1.3426
   21MOL   O207 7447   0.199   1.668   0.211  0.1147  0.0614  0.4010
   21MOL   H208 7448   0.574   1.752   0.754 -1.7283 -1.9626 -4.9637
   21MOL   H209 7449   0.469   1.824   0.870 -1.0346  1.4639 -2.1989
   21MOL   H210 7450   0.389   1.883   0.648  0.0535 -0.4347 -0.1558
   21MOL   H211 7451   0.276   1.786   0.738  0.0642  1.1415  0.1463
   21MOL   H212 7452   0.298   1.593   0.587  1.6150 -0.5303  1.5946
   21MOL   H213 7453   0.461   1.659   0.545  0.1481  0.1880 -1.1905
   21MOL   H214 7454   0.353   1.786   0.365 -0.0979  0.8887  0.1208
   21MOL   H215 7455   0.216   1.823   0.458  0.8505  0.7852 -1.6154
   21MOL   H216 7456   0.282   1.540   0.348  2.1826  1.8228 -0.8609
   21MOL   H217 7457   0.118   1.611   0.387 -0.8239  2.5631  0.2463
   21MOL   C218 7458   0.109   1.603   0.130  0.6531  0.0010  0.0955
   21MOL   O219 7459   0.030   1.510   0.158 -0.3378  0.6050  0.1722
   21MOL   C220 7460   0.117   1.648   7.830  0.7902 -0.0864  0.4684
   21MOL   C221 7461   0.217   1.554   7.750  0.4006 -0.6443  0.3214
   21MOL   C222 7462   0.359   1.608   7.772  0.5940 -0.3309 -1.1668
   21MOL   C223 7463   0.471   1.500   7.770 -0.3362  0.2455  0.6890
   21MOL   C224 7464   0.615   1.559   7.763  0.6482 -0.4102  0.7592
   21MOL   O225 7465   0.715   1.455   7.781 -0.0664 -0.2525 -0.8007
   21MOL   H226 7466   0.151   1.751   7.825 -1.0825  0.4748 -1.2523
   21MOL   H227 7467   0.018   1.654   7.783  2.2626 -1.1060 -2.8768
   21MOL   H228 7468   0.179   1.540   7.648  0.5388 -0.4279  0.2378
   21MOL   H229 7469   0.214   1.456   7.797  5.5280 -0.6111  1.0247
   21MOL   H230 7470   0.371   1.661   0.022 -0.3379 -0.5194 -0.9328
   21MOL   H231 7471   0.362   1.689   7.699 -1.8474  0.0636 -0.8678
   21MOL   H232 7472   0.459   1.418   7.698  3.3667  1.6491 -1.6680
   21MOL   H233 7473   0.471   1.440   0.016 -2.1523 -0.1723  0.4341
   21MOL   H234 7474   0.631   1.616   7.671  0.2021  1.2025  1.6548
   21MOL   H235 7475   0.627   1.630   0.001  0.2286 -1.5052  1.7667
   21MOL   C236 7476   0.751   1.391   7.668  0.1876  0.4607 -0.6305
   21MOL   O237 7477   0.719   1.427   7.551  0.0576 -0.1487 -0.0016
   21MOL   C238 7478   0.826   1.263   7.696 -0.5415  0.8299 -0.8527
   21MOL   C239 7479   0.739   1.139   7.701  0.0039 -0.5742 -0.2166
   21MOL   C240 7480   0.695   1.126   7.844 -0.7106 -0.0476  0.7449
   21MOL   C241 7481   0.612   0.997   0.010  0.2241 -0.4577  0.3715
   21MOL   C242 7482   0.462   1.015   7.817 -0.8430 -0.5705 -0.3267
   21MOL   O243 7483   0.401   1.090   0.075 -0.4541  0.3666  0.7930
   21MOL   H244 7484   0.896   1.284   7.777 -1.8666  1.4502  0.1601
   21MOL   H245 7485   0.889   1.253   7.607  1.3995  0.6845  0.5070
   21MOL   H246 7486   0.800   1.052   7.678  1.1238  0.3988 -0.9815
   21MOL   H247 7487   0.656   1.146   7.631  0.4427 -0.8311 -0.7615
   21MOL   H248 7488   0.622   1.201   0.030 -1.6150 -0.6696  0.1561
   21MOL   H249 7489   0.778   1.120   0.069 -0.2420 -0.6270  0.1411
   21MOL   H250 7490   0.624   0.956   0.110 -2.9424  0.4549  1.2067
   21MOL   H251 7491   0.646   0.919   7.787  0.6486 -0.6390  0.7966
   21MOL   H252 7492   0.446   1.060   7.719  0.2780  0.1415 -0.1863
   21MOL   H253 7493   0.417   0.916   7.814  0.7742 -1.3150 -0.1601
   21MOL   C254 7494   0.280   1.149   0.064  0.3999 -0.1906 -0.6501
   21MOL   O255 7495   0.210   1.138   7.815 -0.0945 -0.1949 -0.0575
   21MOL   C256 7496   0.240   1.212   0.197  1.1343  1.0441 -0.0159
   21MOL   C257 7497   0.185   1.107   0.300 -0.3154  0.0143 -0.3877
   21MOL   C258 7498   0.103   1.169   0.409 -0.1745 -0.0918 -0.3402
   21MOL   C259 7499   0.181   1.248   0.518 -0.1928  0.1832  0.2523
   21MOL   C260 7500   0.092   1.301   0.640 -0.1426 -0.2535 -0.1102
   21MOL   O261 7501   7.826   1.379   0.593 -0.6305  0.2220  0.1677
   21MOL   H262 7502   0.185   1.305   0.180  0.2217  0.5445  0.1814
   21MOL   H263 7503   0.341   1.241   0.226  1.4417  0.0724 -0.0933
   21MOL   H264 7504   0.260   1.047   0.350 -0.6939 -0.3668 -0.2778
   21MOL   H265 7505   0.117   1.038   0.249 -2.6513  0.5511  1.8582
   21MOL   H266 7506   0.040   1.088   0.446  0.6578 -0.2531  0.7165
   21MOL   H267 7507   0.030   1.235   0.361  0.8493  2.1877  1.1754
   21MOL   H268 7508   0.221   1.340   0.475  1.6307 -0.3820  0.6967
   21MOL   H269 7509   0.263   1.189   0.558  0.0233 -1.2902 -2.3017
   21MOL   H270 7510   0.032   1.224   0.688  0.3233  0.1448  1.1284
   21MOL   H271 7511   0.142   1.358   0.718  0.5261  1.8324 -1.9939
   21MOL   C272 7512   7.819   1.509   0.630 -0.1846 -0.0378  0.0238
   21MOL   O273 7513   0.064   1.569   0.694  0.4107  0.3204 -0.0210
   21MOL   C274 7514   7.712   1.587   0.569  0.4083 -0.2415  0.2001
   21MOL   C275 7515   7.578   1.559   0.641  0.6427  0.1408  0.4046
   21MOL   C276 7516   7.455   1.598   0.555 -0.5236  0.1645  0.0510
   21MOL   C277 7517   7.441   1.749   0.531  0.2353 -0.7734 -0.6972
   21MOL   C278 7518   7.328   1.793   0.436  0.7297 -0.2239 -0.5068
   21MOL   O279 7519   7.354   1.928   0.400  0.3824 -0.1927  0.2603
   21MOL   H280 7520   7.717   1.560   0.463  1.0322 -0.8533  0.3817
   21MOL   H281 7521   7.748   1.690   0.582  2.4557 -0.8951 -0.0436
   21MOL   H282 7522   7.584   1.629   0.725  0.3275  0.1291  0.4400
   21MOL   H283 7523   7.569   1.456   0.677  1.4885 -0.0609  0.0418
   21MOL   H284 7524   7.369   1.569   0.616 -0.7413  0.4431 -0.1203
   21MOL   H285 7525   7.448   1.546   0.459  0.2785  0.2455 -0.0487
   21MOL   H286 7526   7.529   1.794   0.487  0.1645 -0.4377 -0.4948
   21MOL   H287 7527   7.427   1.797   0.628  0.3319 -1.9373 -0.0953
   21MOL   H288 7528   7.333   1.735   0.345 -0.6745  0.9532 -1.3543
   21MOL   H289 7529   7.228   1.771   0.473  0.0905  0.6436 -1.6885
   21MOL   C290 7530   7.252   2.001   0.362 -0.0276 -0.4595 -0.0027
   21MOL   O291 7531   7.138   1.963   0.377  0.3740  0.3246  0.6105
   21MOL   C292 7532   7.289   2.134   0.293  0.1032  0.0042  0.3493
   21MOL   C293 7533   7.315   2.119   0.138 -0.6781  0.1317 -0.0305
   21MOL   C294 7534   7.205   2.170   0.044  0.2001  0.2093 -0.4594
   21MOL   C295 7535   7.074   2.089   0.054  0.0944  0.3112  0.9289
   21MOL   C296 7536   6.969   2.160   7.826 -0.6059  0.2583 -0.3784
   21MOL   O297 7537   6.861   2.074   7.797  0.0927 -0.8230 -0.4768
   21MOL   H298 7538   7.378   2.167   0.346 -1.0716  0.5988  1.9968
   21MOL   H299 7539   7.210   2.205   0.321  0.7088  0.1482  1.7297
   21MOL   H300 7540   7.336   2.014   0.117  0.2871  0.0017  1.5514
   21MOL   H301 7541   7.413   2.161   0.115 -0.6463 -0.6160 -1.3203
   21MOL   H302 7542   7.242   2.167   7.786  2.9519 -1.3764  0.5085
   21MOL   H303 7543   7.187   2.276   0.060  2.2085  0.7179 -1.4509
   21MOL   H304 7544   7.044   2.078   0.158  0.2563  1.7493  1.1352
   21MOL   H305 7545   7.094   1.989   0.017  1.1445  0.1367  1.9639
   21MOL   H306 7546   6.938   2.247   0.040  0.4218  0.0257  0.5222
   21MOL   H307 7547   7.006   2.203   7.732 -0.3717  0.2360 -0.2977
   21MOL   C308 7548   6.748   2.130   7.749 -0.8761  0.7968  0.6590
   21MOL   O309 7549   6.730   2.250   7.728 -0.0951 -0.4485  0.8657
   21MOL   C310 7550   6.642   2.018   7.723 -0.1505 -0.4572  0.5403
   21MOL   C311 7551   6.501   2.036   7.792  0.1951 -0.4006 -0.6843
   21MOL   C312 7552   6.405   1.924   7.747 -0.0878 -0.0386 -0.1254
   21MOL   C313 7553   6.272   1.932   7.822 -0.0083  0.5645 -0.1689
   21MOL   C314 7554   6.183   1.830   7.753 -0.1162  0.0810  0.3520
   21MOL   O315 7555   6.147   1.858   7.622  0.0324  0.0253  0.1643
   21MOL   H316 7556   6.694   1.926   7.749 -0.3747 -0.7397 -0.0093
   21MOL   H317 7557   6.636   2.008   7.615 -0.7967 -1.1606  0.6386
   21MOL   H318 7558   6.462   2.132   7.760 -1.7678 -1.6481 -2.1544
   21MOL   H319 7559   6.513   2.031   0.056 -0.7301 -1.0333 -0.6086
   21MOL   H320 7560   6.454   1.829   7.768  0.6392  0.2605 -0.4770
   21MOL   H321 7561   6.388   1.931   7.640 -0.8963  0.5429  0.0361
   21MOL   H322 7562   6.226   2.030   7.812 -1.9256 -0.4348 -1.5680
   21MOL   H323 7563   6.289   1.895   0.079 -0.2529 -0.6886 -0.5654
   21MOL   H324 7564   6.225   1.731   7.768  2.2725  0.8318 -1.1462
   21MOL   H325 7565   6.089   1.829   7.809 -0.3224  1.1326  0.0266
   21MOL   C326 7566   6.061   1.784   7.562 -0.2838  0.2143 -0.4371
   21MOL   O327 7567   6.003   1.689   7.617  0.1461 -0.0916  0.4234
   21MOL   C328 7568   6.031   1.830   7.420  0.3760 -0.6325 -0.5143
   21MOL   C329 7569   5.990   1.716   7.329 -0.2897 -1.3372  0.1513
   21MOL   C330 7570   5.842   1.671   7.341 -0.2081 -0.0870  0.3179
   21MOL   C331 7571   5.733   1.774   7.283 -0.1991 -0.1337 -0.5035
   21MOL   C332 7572   5.591   1.721   7.283 -0.4858 -0.2972 -0.6576
   21MOL   O333 7573   5.595   1.603   7.205 -0.0149  0.4745  0.0006
   21MOL   H334 7574   6.118   1.871   7.369  0.6006  0.9444  1.0871
   21MOL   H335 7575   5.963   1.914   7.429 -2.0346 -2.6740  1.1962
   21MOL   H336 7576   6.060   1.633   7.327  0.3339 -0.8072 -1.1332
   21MOL   H337 7577   5.996   1.762   7.230  0.1749  1.5158  1.4297
   21MOL   H338 7578   5.815   1.629   7.438 -3.6276  1.6728  0.1831
   21MOL   H339 7579   5.838   1.585   7.274  1.3328 -0.0065  0.1088
   21MOL   H340 7580   5.775   1.798   7.185 -0.9321  0.1168 -0.7560
   21MOL   H341 7581   5.741   1.859   7.351 -1.6764 -0.5566  0.2170
   21MOL   H342 7582   5.559   1.695   7.384  0.8354 -3.0147 -0.8996
   21MOL   H343 7583   5.539   1.806   7.239 -0.5814 -0.5943 -1.1186
   21MOL   C344 7584   5.513   1.504   7.229 -0.2838 -0.5743  0.5097
   21MOL   O345 7585   5.430   1.503   7.322 -0.1047  0.3466 -0.0363
   21MOL   C346 7586   5.527   1.374   7.146  0.9378  0.3600  0.2642
   21MOL   C347 7587   5.405   1.284   7.160  0.6777  0.2941 -0.4990
   21MOL   C348 7588   5.395   1.188   7.033  0.1681 -0.3101 -0.7922
   21MOL   C349 7589   5.262   1.120   7.016 -0.1753 -0.1540 -0.2313
   21MOL   C350 7590   5.247   1.048   6.884 -0.1737  0.4881  0.5947
   21MOL   O351 7591   5.266   1.132   6.768  0.3935 -0.1257 -0.1423
   21MOL   H352 7592   5.610   1.315   7.184  1.4241  1.0222  0.2320
   21MOL   H353 7593   5.561   1.396   7.045 -1.2549  1.6148 -0.2298
   21MOL   H354 7594   5.315   1.346   7.161  0.3964  0.0479 -3.7104
   21MOL   H355 7595   5.401   1.224   7.250 -0.7047 -1.4714 -1.7111
   21MOL   H356 7596   5.467   1.106   7.038 -0.1947 -0.5382  1.6180
   21MOL   H357 7597   5.414   1.246   6.943  1.8223 -0.3535 -0.4938
   21MOL   H358 7598   5.186   1.198   7.025  1.5703  1.5445  0.1035
   21MOL   H359 7599   5.245   1.049   7.098 -1.1062  0.1825 -0.1236
   21MOL   H360 7600   5.315   0.963   6.876 -0.9407  0.0218 -1.0587
   21MOL   H361 7601   5.148   1.004   6.877 -0.1344  0.5265 -0.1966
   21MOL   H362 7602   5.183   1.174   6.751 -1.1839 -3.0245  0.2733
   22MOL     C1 7603   5.946   7.518   5.072  0.1521  0.0800  0.4851
   22MOL     O2 7604   5.962   7.611   5.153 -0.0581  0.1137 -0.0665
   22MOL     C3 7605   5.837   7.517   4.967  0.5892  0.4254  0.1869
   22MOL     C4 7606   5.705   7.589   5.006 -0.0807  0.5246 -0.3581
   22MOL     C5 7607   5.599   7.580   4.896 -0.2110  0.5962 -0.0935
   22MOL     C6 7608   5.455   7.626   4.935  0.0174  0.2423  0.3452
   22MOL     C7 7609   5.354   7.614   4.823 -0.5418 -0.3085  0.6995
   22MOL     O8 7610   5.336   7.472   4.809 -0.3048  0.1002 -0.1094
   22MOL     H9 7611   5.815   7.413   4.942  0.9736  0.7548 -1.5712
   22MOL    H10 7612   5.878   7.557   4.874 -3.3667  0.8178 -1.4813
   22MOL    H11 7613   5.712   7.691   5.044  0.1671 -0.3376  2.0113
   22MOL    H12 7614   5.656   7.538   5.089  2.2203  2.1226  2.0713
   22MOL    H13 7615   5.605   7.481   4.852  0.2374 -0.0308  1.3217
   22MOL    H14 7616   5.631   7.646   4.815  0.9819 -1.3584 -1.2485
   22MOL    H15 7617   5.462   7.728   4.973  1.5737  0.7963 -1.3541
   22MOL    H16 7618   5.417   7.565   5.017 -1.3701 -0.7502 -1.0034
   22MOL    H17 7619   5.260   7.668   4.835 -0.6423 -0.1049 -0.9996
   22MOL    H18 7620   5.401   7.672   4.744 -0.8443  0.1813  0.8774
   22MOL    H19 7621   5.999   7.423   5.085 -0.7118 -0.6795 -1.2918
   22MOL    C20 7622   5.338   7.428   4.680 -0.7556 -0.1795  0.3122
   22MOL    O21 7623   5.314   7.498   4.584 -0.1614  0.3700  0.3736
   22MOL    C22 7624   5.373   7.277   4.667 -0.7899 -0.0991 -0.7595
   22MOL    C23 7625   5.264   7.181   4.724  0.4371 -0.5082 -0.5285
   22MOL    C24 7626   5.122   7.209   4.670  0.1650  0.1853 -0.3410
   22MOL    C25 7627   5.020   7.091   4.692 -0.3700 -0.2036  0.5193
   22MOL    C26 7628   4.890   7.095   4.614  0.1339  0.2778  0.6327
   22MOL    O27 7629   4.812   7.198   4.660  0.0695 -0.2158  0.1652
   22MOL    H28 7630   5.470   7.268   4.716 -0.6428 -0.8007 -1.1801
   22MOL    H29 7631   5.393   7.255   4.562 -1.9201 -3.5082 -0.3552
   22MOL    H30 7632   5.262   7.185   4.833 -0.3052 -1.7276 -0.4887
   22MOL    H31 7633   5.292   7.082   4.688  0.0011 -0.6040 -0.6017
   22MOL    H32 7634   5.116   7.224   4.562 -2.0443  2.9338  0.0954
   22MOL    H33 7635   5.083   7.307   4.698  0.3887  0.7858 -2.1043
   22MOL    H34 7636   5.002   7.087   4.799  1.8757  0.9351  0.9782
   22MOL    H35 7637   5.068   6.997   4.663  0.4267  0.2148  0.4603
   22MOL    H36 7638   4.908   7.112   4.508 -1.7229 -1.7067 -0.0362
   22MOL    H37 7639   4.834   7.002   4.602 -0.2669  0.3511  1.9147
   22MOL    C38 7640   4.736   7.181   4.768 -0.0580  0.1717  0.6159
   22MOL    O39 7641   4.713   7.070   4.820 -0.3947  0.1071 -0.0296
   22MOL    C40 7642   4.677   7.305   4.823 -0.2396  0.0051  0.9708
   22MOL    C41 7643   4.756   7.434   4.821  0.3310  0.3472  0.2319
   22MOL    C42 7644   4.867   7.440   4.926  0.0935 -0.7493  0.3488
   22MOL    C43 7645   4.937   7.572   4.918  0.1360  0.6432 -0.8656
   22MOL    C44 7646   5.058   7.576   5.018 -0.4451 -0.0394 -0.5420
   22MOL    O45 7647   5.026   7.574   5.159  0.9362 -0.2721  0.2428
   22MOL    H46 7648   4.653   7.279   4.926 -1.1057  1.6246  1.2022
   22MOL    H47 7649   4.576   7.319   4.784 -0.3979 -2.3549  0.4509
   22MOL    H48 7650   4.687   7.516   4.839 -0.7751 -0.5062 -0.0614
   22MOL    H49 7651   4.803   7.441   4.723  0.6086  1.3963  0.4287
   22MOL    H50 7652   4.942   7.365   4.901  0.2979 -0.8771  1.3150
   22MOL    H51 7653   4.832   7.424   5.028  0.6458 -1.6527  0.3981
   22MOL    H52 7654   4.877   7.660   4.939 -0.6221  0.0847 -0.6842
   22MOL    H53 7655   4.978   7.579   4.817 -0.7647  0.9713 -1.2086
   22MOL    H54 7656   5.124   7.493   4.991  2.5240  1.6667  1.1010
   22MOL    H55 7657   5.116   7.665   4.995  0.7545 -0.3173  1.2105
   22MOL    C56 7658   5.123   7.584   5.245 -0.5144 -0.1267  0.1312
   22MOL    O57 7659   5.242   7.573   5.213  0.3449 -0.0254  0.3280
   22MOL    C58 7660   5.083   7.611   5.380 -0.0379 -0.2642  0.0292
   22MOL    C59 7661   5.070   7.486   5.467  0.2118  0.9277  0.4183
   22MOL    C60 7662   4.992   7.512   5.591 -0.4772  0.3619  0.3869
   22MOL    C61 7663   5.064   7.605   5.690 -0.7161 -1.2010 -0.5489
   22MOL    C62 7664   4.990   7.628   5.819  0.0453 -0.3999 -0.7000
   22MOL    O63 7665   5.053   7.729   5.909 -0.1333  0.1788 -0.3814
   22MOL    H64 7666   4.983   7.655   5.377 -0.7242 -1.7727  0.3740
   22MOL    H65 7667   5.149   7.690   5.417  0.7030 -0.9807  0.2284
   22MOL    H66 7668   5.160   7.430   5.492 -0.0221  0.5564  0.4271
   22MOL    H67 7669   5.009   7.417   5.409  2.2318  1.2686 -2.2562
   22MOL    H68 7670   4.970   7.417   5.638 -1.4645  0.9016  1.0369
   22MOL    H69 7671   4.899   7.559   5.559 -2.6535 -1.0864  4.3451
   22MOL    H70 7672   5.091   7.707   5.663 -0.1333 -0.7953  1.4617
   22MOL    H71 7673   5.159   7.564   5.727 -0.0239 -0.4403 -1.4710
   22MOL    H72 7674   4.895   7.670   5.786 -0.0186 -0.0882 -0.1340
   22MOL    H73 7675   4.988   7.536   5.877 -1.3634 -0.4250 -0.7674
   22MOL    C74 7676   4.993   7.753   6.030 -0.3629 -0.0061 -0.1618
   22MOL    O75 7677   4.908   7.687   6.082 -0.2585 -0.4575  0.0317
   22MOL    C76 7678   5.069   0.024   6.099 -0.2958 -0.7011 -0.2878
   22MOL    C77 7679   5.215   0.001   6.142  0.0920 -0.6737  0.0644
   22MOL    C78 7680   5.231   7.735   6.238  0.2301  0.2611  0.2738
   22MOL    C79 7681   5.250   7.597   6.173  0.0590  0.2296  0.7373
   22MOL    C80 7682   5.218   7.489   6.272  0.0992 -0.1906 -0.4471
   22MOL    O81 7683   5.181   7.364   6.204  0.6322 -0.2092 -0.6666
   22MOL    H82 7684   5.022   0.052   6.193 -1.1980 -0.9840 -0.6457
   22MOL    H83 7685   5.064   0.115   6.040 -2.3479  0.0681  1.0514
   22MOL    H84 7686   5.241   0.087   6.204 -0.0020  0.8790 -2.0003
   22MOL    H85 7687   5.296   7.839   6.070  0.0497 -2.0817  0.1265
   22MOL    H86 7688   5.150   7.724   6.310 -0.6486 -0.7946 -0.8268
   22MOL    H87 7689   5.312   7.759   6.307  0.3587 -1.4001  0.7205
   22MOL    H88 7690   5.349   7.593   6.126 -0.7683  0.2802 -1.0481
   22MOL    H89 7691   5.187   7.588   6.085  1.3817 -1.1224 -0.1087
   22MOL    H90 7692   5.294   7.464   6.346 -1.3697 -0.9341  0.8348
   22MOL    H91 7693   5.126   7.504   6.329  0.2828 -0.3485 -0.1087
   22MOL    C92 7694   5.155   7.252   6.272 -0.2647 -0.1495 -0.4162
   22MOL    O93 7695   5.144   7.238   6.396  0.1018  0.5282 -0.2932
   22MOL    C94 7696   5.149   7.131   6.176 -0.3819  0.5085  0.3354
   22MOL    C95 7697   5.011   7.109   6.115 -0.8421  0.0024  0.6332
   22MOL    C96 7698   4.915   7.019   6.195 -0.3565  0.2057 -0.1500
   22MOL    C97 7699   4.966   6.874   6.195 -0.6468  0.0684  0.3678
   22MOL    C98 7700   4.879   6.776   6.265  0.0194  0.1479  0.5723
   22MOL    O99 7701   4.934   6.645   6.261 -0.0472  0.1461  0.2689
   22MOL   H100 7702   5.187   7.044   6.229 -2.6834 -0.2342  0.8443
   22MOL   H101 7703   5.214   7.157   6.092  0.4632 -3.4399 -0.3219
   22MOL   H102 7704   5.019   7.061   6.018  0.8925 -0.1328  0.8377
   22MOL   H103 7705   4.960   7.202   6.089 -2.7022 -1.4258 -0.9682
   22MOL   H104 7706   4.821   7.003   6.144 -1.7239 -1.4472  2.7174
   22MOL   H105 7707   4.892   7.056   6.295 -0.5703 -0.9981  0.2570
   22MOL   H106 7708   5.061   6.867   6.248  0.2287 -0.8118 -1.2903
   22MOL   H107 7709   4.982   6.833   6.096  0.8637 -0.5224  0.8476
   22MOL   H108 7710   4.863   6.801   6.370  1.1744  3.2434  0.0689
   22MOL   H109 7711   4.781   6.770   6.217 -0.3422 -0.0948  1.3298
   22MOL   C110 7712   4.867   6.544   6.324 -0.3210  0.7795  0.7141
   22MOL   O111 7713   4.768   6.556   6.401 -0.0851  0.1428  0.1292
   22MOL   C112 7714   4.908   6.405   6.280 -0.6328 -0.0815  0.3739
   22MOL   C113 7715   4.836   6.280   6.340 -0.0084  0.3671 -0.5383
   22MOL   C114 7716   4.894   6.135   6.306 -0.7170  0.3517  0.4037
   22MOL   C115 7717   4.835   6.022   6.390 -0.1247  0.1957 -0.4444
   22MOL   C116 7718   4.888   5.888   6.351  0.9228  0.2888  0.9050
   22MOL   O117 7719   4.828   5.851   6.226 -0.1107 -0.2142 -0.4403
   22MOL   H118 7720   5.014   6.393   6.305 -1.1797 -0.6100  2.5500
   22MOL   H119 7721   4.895   6.398   6.172  1.2790 -1.0617  0.1686
   22MOL   H120 7722   4.734   6.272   6.304 -0.7268  0.4564  1.4334
   22MOL   H121 7723   4.806   6.290   6.444  0.9339 -0.7346 -0.1456
   22MOL   H122 7724   5.000   6.127   6.332 -1.0826 -4.0218  0.7881
   22MOL   H123 7725   4.886   6.122   6.198  0.7396 -1.6548  0.5152
   22MOL   H124 7726   4.727   6.017   6.374 -0.2506 -0.2108  0.5090
   22MOL   H125 7727   4.853   6.043   6.496  0.2387 -3.7699  0.3556
   22MOL   H126 7728   4.997   5.897   6.341  0.8278  1.3031  0.6843
   22MOL   H127 7729   4.865   5.812   6.424  1.3676 -1.6314 -0.9073
   22MOL   C128 7730   4.899   5.765   6.147 -0.3001  0.1119  0.5007
   22MOL   O129 7731   5.006   5.704   6.179 -0.3725 -0.0785  0.3885
   22MOL   C130 7732   4.817   5.733   6.024 -0.8669  0.3288 -0.8267
   22MOL   C131 7733   4.866   5.599   5.950  0.1367  0.2188  0.4252
   22MOL   C132 7734   4.808   5.472   6.000  0.2223 -0.4976  0.3167
   22MOL   C133 7735   4.669   5.442   5.949  0.4691  0.2050  0.9151
   22MOL   C134 7736   4.612   5.311   6.001 -0.3363  0.2090 -0.4825
   22MOL   O135 7737   4.482   5.287   5.945 -0.3404 -0.2149  0.0646
   22MOL   H136 7738   4.833   5.822   5.963 -1.1752  0.4323 -0.7609
   22MOL   H137 7739   4.710   5.722   6.040 -0.9083  0.3545 -1.0922
   22MOL   H138 7740   4.973   5.592   5.937  0.2353 -0.0277  1.2857
   22MOL   H139 7741   4.829   5.626   5.851  2.1037 -1.0311 -0.6654
   22MOL   H140 7742   4.819   5.456   6.107  0.4902  1.3923  0.5842
   22MOL   H141 7743   4.864   5.390   5.954 -0.6711 -0.6871 -0.4555
   22MOL   H142 7744   4.666   5.456   5.841 -1.8084 -0.1461  0.9206
   22MOL   H143 7745   4.605   5.518   5.995  0.0963  0.2819  0.2709
   22MOL   H144 7746   4.681   5.229   5.976 -1.1899 -0.5721 -0.3023
   22MOL   H145 7747   4.608   5.309   6.110 -0.3664  0.1491 -0.4837
   22MOL   C146 7748   4.401   5.189   5.994  0.2089 -0.1627 -0.1193
   22MOL   O147 7749   4.424   5.134   6.104  0.3191 -0.4653  0.5098
   22MOL   C148 7750   4.277   5.149   5.915 -0.5828  0.2799 -0.3166
   22MOL   C149 7751   4.299   5.105   5.768 -0.9793 -0.4703  0.0740
   22MOL   C150 7752   4.367   4.972   5.745 -0.6876 -0.1976  0.6016
   22MOL   C151 7753   4.397   4.938   5.598  0.2676  0.5070 -0.8038
   22MOL   C152 7754   4.461   4.805   5.605 -0.1957  0.5621  0.3625
   22MOL   O153 7755   4.483   4.749   5.474  0.4039 -0.8496 -0.2643
   22MOL   H154 7756   4.224   5.244   5.907  0.6202  0.9353 -0.5965
   22MOL   H155 7757   4.211   5.078   5.966  0.4259  0.3548  1.1297
   22MOL   H156 7758   4.349   5.186   5.716  0.1312 -1.1202  0.1139
   22MOL   H157 7759   4.204   5.103   5.715 -0.5580  2.3400 -0.8608
   22MOL   H158 7760   4.314   4.888   5.791  1.1312 -1.2054  0.9284
   22MOL   H159 7761   4.462   4.974   5.798 -1.2993  0.6917  1.6774
   22MOL   H160 7762   4.462   5.016   5.558 -0.6501  2.0988  0.6649
   22MOL   H161 7763   4.310   4.936   5.533 -0.1553 -1.4712 -0.2018
   22MOL   H162 7764   4.561   4.809   5.648  0.8862  0.9641 -2.1243
   22MOL   H163 7765   4.411   4.724   5.660 -1.6053  0.8834 -0.4096
   22MOL   C164 7766   4.397   4.655   5.426  0.1003  1.1924  0.3928
   22MOL   O165 7767   4.280   4.636   5.460  0.0632 -0.0403 -0.4756
   22MOL   C166 7768   4.462   4.552   5.340 -1.1608  1.1275  0.1062
   22MOL   C167 7769   4.544   4.446   5.415 -0.0059 -0.2383 -0.2537
   22MOL   C168 7770   4.632   4.360   5.318  0.0605 -0.2792  0.3553
   22MOL   C169 7771   4.750   4.287   5.378 -0.1794  0.1495 -0.4940
   22MOL   C170 7772   4.813   4.166   5.298 -0.0430 -0.7207 -0.2267
   22MOL   O171 7773   4.926   4.110   5.366 -0.0084  0.2982  0.3793
   22MOL   H172 7774   4.524   4.608   5.271  1.6288 -0.2885  1.3930
   22MOL   H173 7775   4.383   4.497   5.289 -1.0529  0.7678  0.3215
   22MOL   H174 7776   4.476   4.382   5.471 -1.3627 -0.7928 -2.4648
   22MOL   H175 7777   4.613   4.488   5.488 -1.0236  1.0353 -0.0160
   22MOL   H176 7778   4.670   4.422   5.237  0.0579 -0.8574 -0.0979
   22MOL   H177 7779   4.573   4.284   5.266  1.9685 -1.8859  0.4601
   22MOL   H178 7780   4.725   4.238   5.473  2.8525 -0.3415  0.1304
   22MOL   H179 7781   4.823   4.365   5.403 -0.3342 -0.3868  1.8205
   22MOL   H180 7782   4.738   4.089   5.283  1.6191 -2.3961 -0.1503
   22MOL   H181 7783   4.851   4.198   5.201 -0.1329  1.6698  0.4736
   22MOL   C182 7784   4.907   4.033   5.479  0.0075  0.3093  0.2648
   22MOL   O183 7785   4.800   3.992   5.513 -0.0041  0.6003 -0.3235
   22MOL   C184 7786   5.035   3.990   5.549 -0.1344  0.3833 -0.0597
   22MOL   C185 7787   5.096   4.101   5.638 -0.1494 -1.0450 -0.2539
   22MOL   C186 7788   5.221   4.055   5.717  0.3769  0.1572 -0.0014
   22MOL   C187 7789   5.311   4.181   5.734 -0.2588 -0.2597  0.0493
   22MOL   C188 7790   5.455   4.157   5.789 -0.3286  0.2138  0.2511
   22MOL   O189 7791   5.528   4.278   5.761  0.2286  0.2215  0.2849
   22MOL   H190 7792   5.108   3.937   5.488 -0.2192 -0.2302  0.3672
   22MOL   H191 7793   5.003   3.903   5.607  0.0516 -0.2226 -0.8602
   22MOL   H192 7794   5.025   4.142   5.710 -1.0711 -0.7918 -1.2866
   22MOL   H193 7795   5.125   4.189   5.581  1.5112 -0.7539  1.0151
   22MOL   H194 7796   5.283   3.981   5.666 -1.0735 -1.3246  0.3276
   22MOL   H195 7797   5.196   4.015   5.815  2.2692 -0.5809  0.1970
   22MOL   H196 7798   5.262   4.249   5.804  1.1749  0.1639  0.6703
   22MOL   H197 7799   5.328   4.230   5.639  2.0906 -0.9090  0.0951
   22MOL   H198 7800   5.468   4.142   5.896  1.3300  0.2103  0.0629
   22MOL   H199 7801   5.494   4.071   5.736 -1.9711 -1.0233  1.0252
   22MOL   C200 7802   5.638   4.278   5.674  0.8690  0.3174 -1.0645
   22MOL   O201 7803   5.689   4.175   5.636  0.0719  0.0103 -0.1474
   22MOL   C202 7804   5.698   4.418   5.648  0.0628 -0.2440  1.2257
   22MOL   C203 7805   5.604   4.525   5.594 -0.4514  0.1361  0.0844
   22MOL   C204 7806   5.677   4.640   5.523 -0.1475  0.4218 -0.1464
   22MOL   C205 7807   5.566   4.725   5.451 -0.4678  0.1265  0.3655
   22MOL   C206 7808   5.613   4.867   5.408  0.3963 -0.1615  0.3620
   22MOL   O207 7809   5.515   4.946   5.343 -0.1583  0.2756 -0.0908
   22MOL   H208 7810   5.789   4.404   5.589  0.1717  2.1349  0.8082
   22MOL   H209 7811   5.736   4.446   5.746  0.2516 -1.0519  1.3914
   22MOL   H210 7812   5.543   4.559   5.678  1.0749 -0.7129  1.5614
   22MOL   H211 7813   5.530   4.476   5.531  0.4989  0.1387 -1.0341
   22MOL   H212 7814   5.754   4.599   5.458  0.6425  0.0758  0.9918
   22MOL   H213 7815   5.733   4.705   5.590 -0.4494 -0.1517  0.6627
   22MOL   H214 7816   5.489   4.746   5.525 -0.7217  0.4351  0.0136
   22MOL   H215 7817   5.534   4.678   5.358  1.3269 -1.8584  0.7025
   22MOL   H216 7818   5.635   4.920   5.501 -0.6200 -0.6001  0.8553
   22MOL   H217 7819   5.706   4.852   5.353  0.8088  2.3726  0.2983
   22MOL   C218 7820   5.523   5.077   5.338 -0.0194 -0.3634 -0.3622
   22MOL   O219 7821   5.615   5.139   5.393  0.2811 -0.7073 -0.1395
   22MOL   C220 7822   5.423   5.143   5.242 -0.5343 -0.0358 -0.4765
   22MOL   C221 7823   5.475   5.251   5.143 -0.2356 -0.1576 -0.6825
   22MOL   C222 7824   5.375   5.295   5.040  0.3826  0.1379  0.2585
   22MOL   C223 7825   5.434   5.391   4.940 -0.0376  0.2910 -0.5387
   22MOL   C224 7826   5.329   5.443   4.836 -0.0212  0.0648 -0.4558
   22MOL   O225 7827   5.297   5.329   4.756 -0.2378 -0.1949 -0.1773
   22MOL   H226 7828   5.356   5.195   5.310  0.0395  0.3825 -0.2339
   22MOL   H227 7829   5.366   5.062   5.195 -1.3372  0.7344 -0.8325
   22MOL   H228 7830   5.575   5.230   5.105 -0.1409 -1.1845  0.1202
   22MOL   H229 7831   5.482   5.340   5.206  0.1609 -0.9478  0.3965
   22MOL   H230 7832   5.284   5.325   5.092  1.4378  2.4513  0.8165
   22MOL   H231 7833   5.346   5.205   4.986 -0.9991  1.7000 -1.6430
   22MOL   H232 7834   5.502   5.340   4.872 -1.6889  0.1138 -2.0916
   22MOL   H233 7835   5.475   5.476   4.993 -0.6988  0.0391  0.3807
   22MOL   H234 7836   5.240   5.487   4.882 -1.1173 -1.5112 -1.0382
   22MOL   H235 7837   5.375   5.519   4.774  0.9966  1.1433  1.5639
   22MOL   C236 7838   5.195   5.339   4.661  0.8667 -0.0420 -0.2614
   22MOL   O237 7839   5.132   5.442   4.643  0.5076 -0.1388 -0.0314
   22MOL   C238 7840   5.175   5.217   4.580  0.1542  0.0257 -0.2818
   22MOL   C239 7841   5.291   5.118   4.577 -0.7851 -0.3050 -0.0650
   22MOL   C240 7842   5.267   5.001   4.485  0.0658 -0.4287  0.2307
   22MOL   C241 7843   5.396   4.922   4.457 -0.1979  0.3106  0.6754
   22MOL   C242 7844   5.378   4.821   4.348  0.3595 -0.0980  0.0523
   22MOL   O243 7845   5.275   4.728   4.377 -0.7104 -0.2657  0.4980
   22MOL   H244 7846   5.165   5.262   4.481 -2.4277  1.3174  0.5301
   22MOL   H245 7847   5.081   5.170   4.608  0.2404  0.0910  0.1236
   22MOL   H246 7848   5.310   5.081   4.678 -1.2426 -0.9170 -0.1968
   22MOL   H247 7849   5.373   5.179   4.540  0.4942 -0.8794  1.7605
   22MOL   H248 7850   5.223   5.046   4.395  2.4048 -1.6476 -1.5788
   22MOL   H249 7851   5.189   4.936   4.525 -0.1446 -1.7472 -2.1878
   22MOL   H250 7852   5.424   4.865   4.547 -0.0542 -0.4024  0.1863
   22MOL   H251 7853   5.490   4.974   4.437 -0.5775 -0.1648 -2.4975
   22MOL   H252 7854   5.368   4.872   4.252 -0.2890  2.6324  1.5231
   22MOL   H253 7855   5.467   4.759   4.356  0.0678 -0.0951  4.2633
   22MOL   C254 7856   5.252   4.637   4.277 -0.8323  0.3170 -0.1650
   22MOL   O255 7857   5.313   4.630   4.167 -0.4414 -0.1395  0.5436
   22MOL   C256 7858   5.123   4.560   4.306 -0.2180  0.4911 -0.2156
   22MOL   C257 7859   5.134   4.447   4.416  0.3523 -0.4342  0.1442
   22MOL   C258 7860   5.204   4.321   4.381 -0.7536  0.0257  0.0803
   22MOL   C259 7861   5.195   4.227   4.493 -0.4057 -0.7111 -1.1707
   22MOL   C260 7862   5.276   4.098   4.496  0.6442 -0.0134  0.2436
   22MOL   O261 7863   5.406   4.113   4.544 -0.4903  0.6395  0.6755
   22MOL   H262 7864   5.107   4.494   4.221 -1.2027 -1.3722  1.3674
   22MOL   H263 7865   5.050   4.640   4.316  0.6309  1.3172 -0.5705
   22MOL   H264 7866   5.026   4.433   4.424 -0.0797  0.6637 -2.9425
   22MOL   H265 7867   5.181   4.489   4.505 -0.4016 -0.5225  0.5886
   22MOL   H266 7868   5.304   4.358   4.358 -1.6540  1.2461 -2.0002
   22MOL   H267 7869   5.166   4.286   4.285 -0.8474 -2.2803  0.9165
   22MOL   H268 7870   5.090   4.205   4.510 -0.9840  1.2641 -2.0355
   22MOL   H269 7871   5.218   4.286   4.581  2.3348  1.6909 -3.3747
   22MOL   H270 7872   5.214   4.030   4.555 -0.9217  1.8878  0.8546
   22MOL   H271 7873   5.271   4.055   4.397  1.9129  1.4557 -0.4775
   22MOL   C272 7874   5.429   4.104   4.675 -0.2486 -0.1564 -0.7290
   22MOL   O273 7875   5.351   4.064   4.762 -0.2276  0.2861  0.2547
   22MOL   C274 7876   5.557   4.162   4.712  0.5431  0.2833 -1.1336
   22MOL   C275 7877   5.569   4.317   4.685 -0.2851  0.1648  0.4210
   22MOL   C276 7878   5.476   4.407   4.763  0.7026  0.0487  0.2711
   22MOL   C277 7879   5.520   4.553   4.771 -0.1758  0.7403 -0.1307
   22MOL   C278 7880   5.438   4.652   4.863  0.4632  0.3217 -0.3696
   22MOL   O279 7881   5.524   4.767   4.885  0.2853  0.3235  0.3680
   22MOL   H280 7882   5.631   4.113   4.650  0.3690 -2.4289  0.7353
   22MOL   H281 7883   5.568   4.129   4.815  0.2134  0.4032 -1.0592
   22MOL   H282 7884   5.555   4.344   4.580 -0.0911 -1.0432  0.0675
   22MOL   H283 7885   5.672   4.345   4.710 -0.5804  1.7464 -0.0647
   22MOL   H284 7886   5.476   4.367   4.865  1.4756  0.9463  0.6360
   22MOL   H285 7887   5.372   4.417   4.730  0.1607  2.0102  2.3968
   22MOL   H286 7888   5.534   4.601   4.674  1.2353 -0.7775 -0.6877
   22MOL   H287 7889   5.623   4.543   4.806 -0.0594  1.1240 -0.3681
   22MOL   H288 7890   5.335   4.671   4.833  0.7235  2.4046  0.0201
   22MOL   H289 7891   5.418   4.610   4.961 -3.5198  2.0074 -0.3963
   22MOL   C290 7892   5.606   4.778   4.990 -0.2668  0.0800 -0.2063
   22MOL   O291 7893   5.610   4.711   5.091 -0.1132 -0.3643  0.3772
   22MOL   C292 7894   5.707   4.894   4.977 -0.0282  0.5984  0.1752
   22MOL   C293 7895   5.659   5.019   4.895 -0.2747  0.0346  0.2405
   22MOL   C294 7896   5.641   5.006   4.735 -0.1511  0.4347 -0.1197
   22MOL   C295 7897   5.771   4.980   4.654  0.5667 -0.0941 -0.2374
   22MOL   C296 7898   5.741   4.933   4.509 -0.4716 -0.0270  0.0183
   22MOL   O297 7899   5.862   4.917   4.438  0.2005  0.8459 -0.0625
   22MOL   H298 7900   5.794   4.862   4.919 -0.4950 -1.2347  0.4505
   22MOL   H299 7901   5.757   4.935   5.064  0.3037 -2.3662  1.4308
   22MOL   H300 7902   5.723   5.104   4.919  1.4157 -1.1008 -0.1769
   22MOL   H301 7903   5.562   5.045   4.939 -0.8601 -0.1865 -0.9238
   22MOL   H302 7904   5.591   5.094   4.695 -0.2363  0.8976  0.9876
   22MOL   H303 7905   5.573   4.924   4.713  2.0318 -1.1345 -1.1976
   22MOL   H304 7906   5.831   4.897   4.693 -0.1059  0.1038  1.2289
   22MOL   H305 7907   5.831   5.071   4.656  1.4067 -0.6568  0.6187
   22MOL   H306 7908   5.697   4.836   4.487  1.3320 -1.4564  2.4462
   22MOL   H307 7909   5.677   5.012   4.469  0.7957  1.0323  0.0284
   22MOL   C308 7910   5.922   4.996   4.356  0.2632 -0.2236  0.0658
   22MOL   O309 7911   5.879   5.104   4.314  0.3953  0.3800  0.2502
   22MOL   C310 7912   6.058   4.940   4.312 -0.6286  0.3429  0.3860
   22MOL   C311 7913   6.178   4.962   4.405 -0.1504 -0.2467 -0.0782
   22MOL   C312 7914   6.173   4.908   4.546 -0.2084  0.3663  0.3745
   22MOL   C313 7915   6.162   4.755   4.541 -0.4295 -0.0783  0.3132
   22MOL   C314 7916   6.161   4.692   4.682  0.3878  0.5192 -0.2476
   22MOL   O315 7917   6.116   4.558   4.684 -0.1941 -0.2149  0.1588
   22MOL   H316 7918   6.080   4.997   4.221  0.0673 -1.0362 -0.3334
   22MOL   H317 7919   6.056   4.832   4.296  1.9199  0.2169  0.7186
   22MOL   H318 7920   6.205   5.066   4.422  1.7797 -0.4914 -1.4551
   22MOL   H319 7921   6.260   4.920   4.347  0.7798  0.9708  0.3454
   22MOL   H320 7922   6.095   4.961   4.600  0.1448  0.4522  0.8053
   22MOL   H321 7923   6.268   4.932   4.594 -1.8444  1.7148  2.9991
   22MOL   H322 7924   6.242   4.711   4.481  1.4163  4.7181 -0.9314
   22MOL   H323 7925   6.068   4.725   4.495 -0.5903  1.9982 -0.7799
   22MOL   H324 7926   6.267   4.691   4.708  0.3122 -1.0633  0.0248
   22MOL   H325 7927   6.091   4.755   4.739 -2.4181 -2.1598 -0.6418
   22MOL   C326 7928   5.982   4.537   4.687  0.3720  1.1194 -0.1758
   22MOL   O327 7929   5.894   4.620   4.674  0.6503 -0.6678  0.3702
   22MOL   C328 7930   5.943   4.392   4.722 -0.3729 -0.4155 -0.4030
   22MOL   C329 7931   5.916   4.301   4.598  0.1196  0.1893  0.3968
   22MOL   C330 7932   6.051   4.235   4.562 -0.2281 -0.1016 -0.2664
   22MOL   C331 7933   6.028   4.122   4.468  0.4415  0.2416  0.4018
   22MOL   C332 7934   6.150   4.042   4.417  0.7558  0.3303 -0.2422
   22MOL   O333 7935   6.231   4.023   4.534  0.2507 -0.0284 -0.0611
   22MOL   H334 7936   5.858   4.392   4.790  0.6729  0.5304  0.9271
   22MOL   H335 7937   6.022   4.353   4.785 -0.5669 -0.8677 -0.4348
   22MOL   H336 7938   5.885   4.358   4.510  0.6863 -0.9286 -0.5423
   22MOL   H337 7939   5.847   4.224   4.633 -3.3610  2.8649 -0.1866
   22MOL   H338 7940   6.096   4.199   4.655  1.6142  2.0246 -0.2850
   22MOL   H339 7941   6.116   4.316   4.530  0.1855 -0.7747 -1.1409
   22MOL   H340 7942   5.983   4.169   4.380  0.3452 -0.0791  0.2809
   22MOL   H341 7943   5.955   4.055   4.512 -1.4320  1.3212 -1.0150
   22MOL   H342 7944   6.102   3.953   4.378  0.2307  0.5960 -0.2142
   22MOL   H343 7945   6.198   4.102   4.340 -1.4811 -0.4636 -2.3016
   22MOL   C344 7946   6.328   3.931   4.534  0.3512 -0.4979  0.8843
   22MOL   O345 7947   6.351   3.859   4.440  0.1223 -0.1210  0.5404
   22MOL   C346 7948   6.422   3.942   4.650  0.3289  0.5779  0.2913
   22MOL   C347 7949   6.506   3.813   4.653  0.0670 -0.0233 -0.1951
   22MOL   C348 7950   6.583   3.796   4.781 -0.6909 -0.5340  0.3190
   22MOL   C349 7951   6.674   3.673   4.770 -0.1638 -0.2212 -0.0037
   22MOL   C350 7952   6.773   3.687   4.660 -0.1521  0.5474 -0.3698
   22MOL   O351 7953   6.867   3.580   4.673 -0.4621  0.5266 -0.0950
   22MOL   H352 7954   6.360   3.951   4.739 -1.1318  1.0842 -0.7510
   22MOL   H353 7955   6.490   4.028   4.648 -1.2193  1.8159 -1.8629
   22MOL   H354 7956   6.575   3.813   4.568  1.6694  1.2044  1.0845
   22MOL   H355 7957   6.441   3.727   4.637  0.3820 -0.8159  2.5844
   22MOL   H356 7958   6.528   3.795   4.875 -1.6137  1.8702 -0.1601
   22MOL   H357 7959   6.652   3.880   4.787  0.0366 -1.1433  0.5603
   22MOL   H358 7960   6.608   3.586   4.768 -0.6205  0.1295 -0.4311
   22MOL   H359 7961   6.727   3.668   4.865 -0.0106  0.8627 -0.0299
   22MOL   H360 7962   6.737   3.677   4.558 -0.4290  3.6540 -0.6107
   22MOL   H361 7963   6.832   3.779   4.659  0.0318  0.4470  0.8146
   22MOL   H362 7964   6.829   3.504   4.632  1.1005 -0.8537  0.9647
   23MOL     C1 7965   0.580   4.859   0.624  0.0896  0.6011 -1.0124
   23MOL     O2 7966   0.532   4.748   0.615 -0.2770 -0.0499  0.2472
   23MOL     C3 7967   0.543   4.970   0.527 -0.1321 -0.0668 -0.0962
   23MOL     C4 7968   0.395   5.005   0.533  0.4135 -0.8867 -0.7015
   23MOL     C5 7969   0.349   5.071   0.658  0.0102 -0.0901  0.1411
   23MOL     C6 7970   0.429   5.201   0.680  0.6380  0.4649  0.4497
   23MOL     C7 7971   0.363   5.275   0.791 -0.4173 -0.1133 -0.8328
   23MOL     O8 7972   0.427   5.393   0.823  0.0353 -0.1057 -0.0194
   23MOL     H9 7973   0.564   4.922   0.432  0.1155 -1.6866  0.7633
   23MOL    H10 7974   0.607   5.057   0.542 -1.3341  0.6388  1.0491
   23MOL    H11 7975   0.337   4.914   0.521 -2.7142  0.5119  2.9570
   23MOL    H12 7976   0.370   5.064   0.445 -0.4981 -0.9664 -0.5037
   23MOL    H13 7977   0.351   5.002   0.743 -0.1575 -1.4577 -0.9521
   23MOL    H14 7978   0.246   5.104   0.652  0.3673  0.6326 -3.0526
   23MOL    H15 7979   0.431   5.257   0.586  1.5922 -0.6801 -0.2352
   23MOL    H16 7980   0.536   5.188   0.696  0.6511  0.5050  0.3926
   23MOL    H17 7981   0.258   5.296   0.768 -0.5290 -0.1012 -0.3026
   23MOL    H18 7982   0.352   5.215   0.881 -1.2327 -1.7272 -1.9591
   23MOL    H19 7983   0.665   4.879   0.689  0.1021 -0.9581 -0.5301
   23MOL    C20 7984   0.388   5.504   0.761  0.6797 -0.1823 -0.3966
   23MOL    O21 7985   0.320   5.507   0.658 -0.1479 -0.4753  0.2501
   23MOL    C22 7986   0.442   5.629   0.829 -0.0750 -0.3561  0.3539
   23MOL    C23 7987   0.348   5.713   0.914 -0.0973  0.3292 -0.0246
   23MOL    C24 7988   0.325   5.664   1.055  0.0402  0.6020  0.4954
   23MOL    C25 7989   0.213   5.741   1.131 -0.0264 -0.6576 -0.3672
   23MOL    C26 7990   0.184   5.682   1.268 -0.3107  0.2921  0.0653
   23MOL    O27 7991   0.127   5.554   1.273 -0.5652 -0.1376 -0.4285
   23MOL    H28 7992   0.457   5.697   0.745  1.7941 -1.9023 -0.6131
   23MOL    H29 7993   0.538   5.611   0.879  0.3464 -0.1124 -0.3543
   23MOL    H30 7994   0.251   5.708   0.865 -1.5646 -1.5961  2.9449
   23MOL    H31 7995   0.376   5.818   0.915 -0.2126  0.3635 -0.3100
   23MOL    H32 7996   0.414   5.669   1.119 -0.7046  0.6786  1.5401
   23MOL    H33 7997   0.293   5.561   1.042  0.8200  0.4164  0.0154
   23MOL    H34 7998   0.117   5.735   1.079 -0.3679 -1.0557  0.3149
   23MOL    H35 7999   0.230   5.848   1.146 -2.1595 -0.1948 -1.0286
   23MOL    H36 8000   0.263   5.678   1.342  0.2498 -1.0848 -0.6103
   23MOL    H37 8001   0.125   5.749   1.331  1.8251  1.7815  0.5371
   23MOL    C38 8002   0.046   5.512   1.375 -0.4176 -0.7595  0.0550
   23MOL    O39 8003   0.009   5.586   1.467 -0.4316 -0.6619  0.5058
   23MOL    C40 8004   0.006   5.367   1.367  0.3746  0.4138  0.5387
   23MOL    C41 8005   7.721   5.345   1.280 -0.1523  0.5452  0.0084
   23MOL    C42 8006   7.597   5.406   1.349 -0.2716  0.0398 -0.3709
   23MOL    C43 8007   7.481   5.395   1.257 -0.3860  0.1073 -0.2006
   23MOL    C44 8008   7.342   5.391   1.332 -1.5319  0.2673 -0.4807
   23MOL    O45 8009   7.241   5.320   1.259  0.1046 -0.9150  0.1830
   23MOL    H46 8010   7.830   5.332   1.468  1.1787  0.2314  0.6428
   23MOL    H47 8011   0.095   5.312   1.335 -0.5917 -1.3531  0.8358
   23MOL    H48 8012   7.702   5.238   1.274  1.6468  0.0914  1.9095
   23MOL    H49 8013   7.729   5.388   1.180 -0.6370 -1.4604 -0.9298
   23MOL    H50 8014   7.619   5.511   1.366  0.2416 -0.5235  2.7812
   23MOL    H51 8015   7.572   5.362   1.446  1.0618 -0.7681 -0.3920
   23MOL    H52 8016   7.487   5.301   1.202 -0.5350  0.4564 -0.8197
   23MOL    H53 8017   7.482   5.464   1.172 -0.5181  0.2664 -0.0735
   23MOL    H54 8018   7.355   5.335   1.425 -2.4645  0.2972 -0.3274
   23MOL    H55 8019   7.319   5.490   1.371 -0.3091 -1.0990  4.0177
   23MOL    C56 8020   7.193   5.368   1.141  0.7492 -0.2743  0.4180
   23MOL    O57 8021   7.240   5.458   1.078  0.0426 -0.0968  0.1397
   23MOL    C58 8022   7.066   5.291   1.106  0.9645 -0.9911  0.4251
   23MOL    C59 8023   6.961   5.347   1.004  0.6185  0.1311  0.5814
   23MOL    C60 8024   6.998   5.322   0.854 -0.3115 -0.3083  0.2766
   23MOL    C61 8025   6.895   5.395   0.763 -0.1992 -0.6355  1.3173
   23MOL    C62 8026   6.916   5.374   0.611 -0.2112  0.1435 -0.0875
   23MOL    O63 8027   7.057   5.363   0.579 -0.5836 -0.7541 -0.0996
   23MOL    H64 8028   7.012   5.270   1.198 -0.4932 -4.0531 -1.0668
   23MOL    H65 8029   7.090   5.191   1.070 -1.4564 -0.9730 -1.3598
   23MOL    H66 8030   6.950   5.453   1.025  0.2950  0.2497 -0.1762
   23MOL    H67 8031   6.861   5.309   1.025  0.0875  0.7948 -0.7266
   23MOL    H68 8032   6.989   5.217   0.826 -1.8503 -0.4557  1.2503
   23MOL    H69 8033   7.101   5.355   0.843 -0.2686 -0.0727  1.3639
   23MOL    H70 8034   6.900   5.503   0.773  0.4679 -0.1208 -3.5341
   23MOL    H71 8035   6.795   5.368   0.796  0.2121 -0.5817  2.6640
   23MOL    H72 8036   6.883   5.276   0.577  1.5612  0.2041 -2.1495
   23MOL    H73 8037   6.857   5.440   0.547  0.4606 -0.5011 -1.3948
   23MOL    C74 8038   7.105   5.335   0.456  0.5322  0.0281  0.1176
   23MOL    O75 8039   7.033   5.304   0.361  0.2933  0.0871  0.4008
   23MOL    C76 8040   7.263   5.332   0.444 -0.2260 -0.5071 -0.1560
   23MOL    C77 8041   7.335   5.469   0.457  0.6131 -0.1347 -0.0957
   23MOL    C78 8042   7.483   5.450   0.433 -0.0925 -0.0791 -0.6334
   23MOL    C79 8043   7.566   5.580   0.451 -0.0543  0.3679 -0.0963
   23MOL    C80 8044   7.540   5.680   0.340  0.0901 -0.9221 -0.2357
   23MOL    O81 8045   7.573   5.808   0.400  0.8306  0.7905 -0.8647
   23MOL    H82 8046   7.291   5.276   0.354 -0.2698  0.1025 -0.5479
   23MOL    H83 8047   7.292   5.265   0.526  0.6690  1.3977  1.1095
   23MOL    H84 8048   7.312   5.522   0.549  1.9454  1.6383 -0.7604
   23MOL    H85 8049   7.298   5.535   0.378 -2.5543 -0.8695  0.6817
   23MOL    H86 8050   7.497   5.408   0.333  0.4054  1.4462 -1.2161
   23MOL    H87 8051   7.532   5.382   0.502 -1.2255  0.8460  1.1170
   23MOL    H88 8052   7.670   5.561   0.477 -0.1694  0.9632  0.8272
   23MOL    H89 8053   7.529   5.620   0.545  0.2106  1.9483 -0.6424
   23MOL    H90 8054   7.595   5.667   0.247 -1.5381  0.5418 -1.4206
   23MOL    H91 8055   7.436   5.675   0.309 -0.1950  0.0548  0.5606
   23MOL    C92 8056   7.520   5.919   0.344  0.3703 -0.7438  1.2424
   23MOL    O93 8057   7.436   5.925   0.253  0.4238  0.7619  0.0833
   23MOL    C94 8058   7.571   6.047   0.408  0.2714 -0.8269 -0.2103
   23MOL    C95 8059   7.539   6.072   0.559  0.1849  0.0973 -0.0706
   23MOL    C96 8060   7.387   6.091   0.587 -0.0566  0.4230  0.8545
   23MOL    C97 8061   7.353   6.113   0.729 -0.1901 -0.1602  0.3284
   23MOL    C98 8062   7.415   6.245   0.778 -0.2136 -0.1786 -0.3136
   23MOL    O99 8063   7.377   6.365   0.707 -0.2641 -0.0386  0.3272
   23MOL   H100 8064   7.537   6.142   0.367 -2.4321 -1.9321 -0.6266
   23MOL   H101 8065   7.678   6.036   0.386  0.5500  0.6885  0.3384
   23MOL   H102 8066   7.584   6.168   0.586  0.4826 -0.3831  1.2085
   23MOL   H103 8067   7.580   5.990   0.618 -0.0179 -0.5169 -0.7766
   23MOL   H104 8068   7.326   6.013   0.541 -1.9722  0.6735  2.8510
   23MOL   H105 8069   7.379   6.189   0.541 -1.0425  0.2322  0.6043
   23MOL   H106 8070   7.411   6.043   0.789  1.1793 -0.4305 -1.2933
   23MOL   H107 8071   7.246   6.096   0.741 -0.0072 -1.0375  0.7473
   23MOL   H108 8072   7.386   6.274   0.879 -0.7348 -0.5027 -0.3697
   23MOL   H109 8073   7.524   6.247   0.785 -0.1894  0.7022 -0.9570
   23MOL   C110 8074   7.249   6.395   0.686 -0.0561  0.1995  0.1891
   23MOL   O111 8075   7.152   6.328   0.724 -0.4475  0.0302 -0.0371
   23MOL   C112 8076   7.236   6.531   0.606 -0.0611 -0.1237  0.1076
   23MOL   C113 8077   7.199   6.649   0.694 -0.2735 -0.0007 -0.2234
   23MOL   C114 8078   7.287   6.667   0.823 -0.0261  0.4362 -0.2131
   23MOL   C115 8079   7.261   6.793   0.898 -0.0550 -0.7672 -0.6696
   23MOL   C116 8080   7.290   6.766   1.045 -0.3219  0.5357  0.3725
   23MOL   O117 8081   7.327   6.888   1.114  0.2377  0.7742  0.0666
   23MOL   H118 8082   7.176   6.517   0.516  1.6286 -1.0970 -0.8999
   23MOL   H119 8083   7.332   6.550   0.559 -0.7704  0.6967 -1.0617
   23MOL   H120 8084   7.092   6.644   0.712 -0.0988  1.5644  1.3627
   23MOL   H121 8085   7.224   6.742   0.643  2.3577 -0.8312 -0.5222
   23MOL   H122 8086   7.395   6.668   0.804  0.3637 -0.1846  1.8655
   23MOL   H123 8087   7.283   6.587   0.896  0.7199 -0.8044 -1.5137
   23MOL   H124 8088   7.155   6.817   0.893  0.4239  1.9801  0.9089
   23MOL   H125 8089   7.327   6.872   0.862  2.4060 -1.4503  2.1245
   23MOL   H126 8090   7.211   6.718   1.101 -0.0979  0.1106  0.3275
   23MOL   H127 8091   7.372   6.694   1.046  0.9030  1.8916  0.0290
   23MOL   C128 8092   7.338   6.886   1.251  0.0636  0.1763  0.4128
   23MOL   O129 8093   7.293   6.791   1.318 -0.0842 -0.3679  0.5781
   23MOL   C130 8094   7.402   7.020   1.299  0.7946  0.1585 -0.0168
   23MOL   C131 8095   7.426   7.014   1.453 -0.2748 -1.0011  0.4837
   23MOL   C132 8096   7.303   7.007   1.554  0.0473 -0.0875  1.3922
   23MOL   C133 8097   7.227   7.139   1.567 -0.7891 -0.4401 -0.6536
   23MOL   C134 8098   7.138   7.142   1.688 -0.7613 -0.0876  0.3613
   23MOL   O135 8099   7.091   7.274   1.687 -0.3887 -0.5232  0.0427
   23MOL   H136 8100   7.324   7.095   1.288 -1.7253 -1.7316  3.7303
   23MOL   H137 8101   7.490   7.047   1.241 -0.4398  1.8044 -1.1484
   23MOL   H138 8102   7.484   7.103   1.477 -0.1874 -0.8537 -0.2574
   23MOL   H139 8103   7.497   6.934   1.472  1.0540  0.2586  0.8899
   23MOL   H140 8104   7.360   6.980   1.643  0.2876  0.3415  1.3728
   23MOL   H141 8105   7.232   6.930   1.525  0.0272  0.8224 -1.1391
   23MOL   H142 8106   7.174   7.160   1.474 -0.3138  1.9683 -0.4117
   23MOL   H143 8107   7.292   7.227   1.575 -1.7594  0.3493 -1.3386
   23MOL   H144 8108   7.054   7.078   1.661 -0.1463 -0.2038 -1.2908
   23MOL   H145 8109   7.191   7.116   1.780 -0.7647 -0.1069  0.3580
   23MOL   C146 8110   7.075   7.350   1.806 -0.6813  0.8875  0.0162
   23MOL   O147 8111   7.108   7.301   1.908  0.3927  0.0757 -0.1555
   23MOL   C148 8112   7.015   7.492   1.795  0.4252  0.0433  0.0372
   23MOL   C149 8113   7.115   7.602   1.767  0.2780 -0.5515  0.1302
   23MOL   C150 8114   7.206   7.584   1.642  0.0945  0.0106  0.4840
   23MOL   C151 8115   7.342   7.534   1.671 -0.5714 -0.0188 -0.3708
   23MOL   C152 8116   7.445   7.549   1.557  0.0856  0.3623 -0.5018
   23MOL   O153 8117   7.563   7.486   1.588  0.1198  0.4456  0.0103
   23MOL   H154 8118   6.958   7.521   1.883  0.5716  0.6095 -0.0493
   23MOL   H155 8119   6.953   7.485   1.706 -1.6290 -0.6692  1.5079
   23MOL   H156 8120   7.178   7.630   1.851  1.1762 -3.9241  0.6872
   23MOL   H157 8121   7.057   7.693   1.752 -0.9667 -1.6771 -2.3117
   23MOL   H158 8122   7.228   7.688   1.621  0.6763 -0.0636  0.6911
   23MOL   H159 8123   7.151   7.545   1.556  1.7624  1.4919 -1.3234
   23MOL   H160 8124   7.336   7.427   1.693  1.7275 -0.1951 -0.5262
   23MOL   H161 8125   7.357   7.573   1.771 -2.8205  0.1804 -0.0796
   23MOL   H162 8126   7.405   7.513   1.462 -1.3762 -1.3525  0.7341
   23MOL   H163 8127   7.466   7.650   1.523  0.2213  1.0588  1.5854
   23MOL   C164 8128   7.612   7.388   1.505 -0.2426 -0.7225  0.5532
   23MOL   O165 8129   7.564   7.354   1.395  0.6345  0.1104 -0.2575
   23MOL   C166 8130   7.741   7.328   1.555  0.2256  0.1567  0.1607
   23MOL   C167 8131   0.015   7.429   1.599  0.8023  0.7153  0.2323
   23MOL   C168 8132   0.041   7.548   1.502 -0.3160 -1.4885 -0.1523
   23MOL   C169 8133   0.073   7.517   1.364  0.4683 -0.6556 -0.6259
   23MOL   C170 8134   0.081   7.640   1.272  0.0590 -0.1861 -0.3135
   23MOL   O171 8135   7.795   7.689   1.247  0.0664  0.2168 -0.6339
   23MOL   H172 8136   7.790   7.267   1.479 -0.4380  1.9180 -1.7384
   23MOL   H173 8137   7.733   7.262   1.641  1.0044  0.4393  0.4602
   23MOL   H174 8138   0.110   7.377   1.613 -0.2347 -1.2297  0.2684
   23MOL   H175 8139   7.828   7.464   1.697 -2.3335  0.0569 -0.4752
   23MOL   H176 8140   0.128   7.603   1.539  0.8428 -1.6080 -2.6140
   23MOL   H177 8141   7.804   7.621   1.499  0.2836 -0.8509 -1.0822
   23MOL   H178 8142   0.003   7.441   1.328 -0.9150  0.5396 -0.5005
   23MOL   H179 8143   0.165   7.459   1.358 -0.9548 -2.8032 -3.0156
   23MOL   H180 8144   0.138   7.721   1.317 -0.9776  0.3253  0.1071
   23MOL   H181 8145   0.127   7.617   1.176  1.0612  0.5944 -0.0287
   23MOL   C182 8146   7.781   7.805   1.200  0.3341 -0.3099 -0.1715
   23MOL   O183 8147   0.023   0.032   1.149 -0.8607 -0.1374 -0.2284
   23MOL   C184 8148   7.638   0.003   1.220 -0.3125 -0.6845  0.3186
   23MOL   C185 8149   7.603   0.134   1.136  0.1618  0.4283 -0.1153
   23MOL   C186 8150   7.459   0.179   1.165  0.2054  0.1648  0.1577
   23MOL   C187 8151   7.393   0.297   1.089 -0.3583 -0.6613 -0.5317
   23MOL   C188 8152   7.251   0.324   1.143 -0.0001  0.0708  0.3764
   23MOL   O189 8153   7.201   0.450   1.086 -0.2733  0.4479 -0.2519
   23MOL   H190 8154   7.630   0.023   1.327 -1.9238  0.2784  0.0412
   23MOL   H191 8155   7.566   7.767   1.201 -0.4889 -0.7834  1.3802
   23MOL   H192 8156   7.614   0.114   1.029  0.5522  0.0431 -0.0063
   23MOL   H193 8157   7.682   0.205   1.160  0.6030 -0.4710  1.1994
   23MOL   H194 8158   7.438   0.190   1.272 -1.6634 -0.3961 -0.1228
   23MOL   H195 8159   7.394   0.097   1.133  0.8245 -0.3421  0.1979
   23MOL   H196 8160   7.407   0.289   0.981 -2.7820  0.7466 -0.9838
   23MOL   H197 8161   7.442   0.392   1.109  0.9324 -1.5618  0.6600
   23MOL   H198 8162   7.188   0.241   1.112  0.8289  0.4979 -2.5855
   23MOL   H199 8163   7.246   0.329   1.252 -0.0998 -0.3843  0.3961
   23MOL   C200 8164   7.077   0.454   1.047 -0.4022 -0.8057 -0.2275
   23MOL   O201 8165   6.985   0.369   1.052 -0.1127  0.0284 -0.0224
   23MOL   C202 8166   7.046   0.596   0.990  0.8541 -0.3586  0.0499
   23MOL   C203 8167   6.951   0.677   1.078  0.0638 -0.1878  0.0447
   23MOL   C204 8168   7.024   0.742   1.197 -0.3431  0.0669  0.8344
   23MOL   C205 8169   6.932   0.813   1.288  0.5383 -0.2653 -0.3926
   23MOL   C206 8170   6.982   0.845   1.420  0.1348 -0.2981  0.6077
   23MOL   O207 8171   6.890   0.931   1.488  0.2487  0.2742  0.5969
   23MOL   H208 8172   6.998   0.581   0.893  0.4537  1.7525 -0.1040
   23MOL   H209 8173   7.139   0.650   0.970 -0.0487 -0.3063 -4.6986
   23MOL   H210 8174   6.871   0.610   1.110  1.1700 -1.1582  0.8536
   23MOL   H211 8175   6.899   0.751   1.018 -0.7525 -0.5052  0.3394
   23MOL   H212 8176   7.107   0.808   1.170 -1.7754  1.5819  0.0969
   23MOL   H213 8177   7.072   0.660   1.251  1.2560  0.0008 -0.6237
   23MOL   H214 8178   6.840   0.755   1.287  0.9201 -0.9632 -4.3325
   23MOL   H215 8179   6.905   0.906   1.239  0.0677 -0.3455 -0.2904
   23MOL   H216 8180   6.998   0.752   1.474 -1.3111 -2.3310 -2.3521
   23MOL   H217 8181   7.077   0.896   1.403 -0.7228  0.6109 -1.6390
   23MOL   C218 8182   6.930   0.996   1.597  0.0218  0.0298  0.1247
   23MOL   O219 8183   7.042   0.995   1.643 -0.2177  0.6665 -0.4235
   23MOL   C220 8184   6.836   1.092   1.656 -0.4356 -0.3414  0.0814
   23MOL   C221 8185   6.905   1.202   1.743 -0.2263 -0.3599 -0.5230
   23MOL   C222 8186   6.800   1.299   1.806  0.0368 -0.1901  0.7368
   23MOL   C223 8187   6.710   1.385   1.708 -0.9036 -0.4068  0.5025
   23MOL   C224 8188   6.615   1.471   1.793  0.3505  0.1550  0.5786
   23MOL   O225 8189   6.543   1.379   1.871  0.9576 -0.0442 -0.0398
   23MOL   H226 8190   6.762   1.033   1.712 -0.2065  0.1911  0.9570
   23MOL   H227 8191   6.788   1.149   1.576 -1.3640 -2.5500 -0.9758
   23MOL   H228 8192   6.982   1.248   1.681  0.2958  0.5291  0.7705
   23MOL   H229 8193   6.961   1.145   1.817 -1.4448  1.6099  1.9961
   23MOL   H230 8194   6.855   1.364   1.874 -1.1357  1.1509  0.4307
   23MOL   H231 8195   6.724   1.247   1.865  1.1332  0.5322  2.8188
   23MOL   H232 8196   6.654   1.326   1.635 -1.8053  0.3575  0.5804
   23MOL   H233 8197   6.779   1.451   1.655  0.0478 -1.2284  0.7091
   23MOL   H234 8198   6.662   1.553   1.847 -1.5026  1.7128 -0.1129
   23MOL   H235 8199   6.546   1.523   1.726 -1.9388 -1.5013  1.5583
   23MOL   C236 8200   6.420   1.412   1.905  0.1627  0.7451 -0.1376
   23MOL   O237 8201   6.356   1.512   1.875 -0.1506 -0.3027 -0.3475
   23MOL   C238 8202   6.365   1.293   1.971 -0.1637  0.3644  0.3306
   23MOL   C239 8203   6.451   1.227   2.072 -0.4238 -0.3962  1.0898
   23MOL   C240 8204   6.403   1.093   2.139 -0.6795  0.1283  0.2590
   23MOL   C241 8205   6.498   1.035   2.252  0.0885  0.0848  0.0436
   23MOL   C242 8206   6.431   0.923   2.326 -0.4065 -0.3225 -0.0844
   23MOL   O243 8207   6.320   0.972   2.402  0.2285 -0.2880  0.3427
   23MOL   H244 8208   6.331   1.236   1.885 -1.9180  2.2752 -0.2662
   23MOL   H245 8209   6.274   1.313   2.027  1.5259  1.2059  2.8804
   23MOL   H246 8210   6.493   1.293   2.148  1.8926 -0.3263 -0.1807
   23MOL   H247 8211   6.537   1.190   2.015  0.9675  2.5970  1.1420
   23MOL   H248 8212   6.392   1.011   2.068  2.9567 -0.1190 -0.1107
   23MOL   H249 8213   6.300   1.101   2.172 -0.3828 -0.8427  1.4589
   23MOL   H250 8214   6.522   1.111   2.326 -1.2402  0.2581  0.3155
   23MOL   H251 8215   6.591   0.990   2.215 -0.3767 -1.1076  0.2844
   23MOL   H252 8216   6.412   0.844   2.253 -0.2336  0.5069 -1.0435
   23MOL   H253 8217   6.507   0.895   2.399  1.0868  0.5836 -1.2771
   23MOL   C254 8218   6.260   0.894   2.493  0.1701 -0.0257  0.0896
   23MOL   O255 8219   6.295   0.784   2.523 -0.2798  0.2586  0.4487
   23MOL   C256 8220   6.151   0.960   2.579 -0.0320  0.9079 -0.0411
   23MOL   C257 8221   6.101   0.884   2.701  0.0523 -0.2268  0.0083
   23MOL   C258 8222   6.014   0.964   2.789 -0.1105 -0.3052 -1.1268
   23MOL   C259 8223   5.943   0.869   2.890 -0.1301 -0.7848 -0.9620
   23MOL   C260 8224   5.839   0.942   2.991  0.1262  0.8137 -0.5048
   23MOL   O261 8225   5.902   1.044   3.068  0.0487  0.0459  0.0150
   23MOL   H262 8226   6.067   0.967   2.509 -0.4463 -1.3844  0.1703
   23MOL   H263 8227   6.175   1.060   2.613  1.5455  0.3241  0.6018
   23MOL   H264 8228   6.188   0.859   2.761  1.0213  1.4835 -0.6494
   23MOL   H265 8229   6.050   0.792   2.672  3.6201 -2.1952 -0.2924
   23MOL   H266 8230   5.940   1.025   2.737 -2.2733 -0.3958  1.7754
   23MOL   H267 8231   6.070   1.029   2.855 -0.9555 -1.3758  0.6686
   23MOL   H268 8232   6.030   0.829   2.941  0.2964  0.2323 -0.8667
   23MOL   H269 8233   5.895   0.784   2.842 -0.7964  0.6976 -3.0366
   23MOL   H270 8234   5.757   0.979   2.930 -0.5947 -0.9642 -0.6529
   23MOL   H271 8235   5.802   0.864   3.057  2.1120  0.0006 -0.3121
   23MOL   C272 8236   5.828   1.123   3.147 -0.3827 -0.6395 -0.3626
   23MOL   O273 8237   5.718   1.102   3.195  0.5834  0.2554 -0.1053
   23MOL   C274 8238   5.905   1.250   3.192  0.2464  0.2868  0.6931
   23MOL   C275 8239   5.919   1.364   3.088 -0.5136 -0.0464 -0.2104
   23MOL   C276 8240   5.786   1.433   3.044  0.1834 -0.1597  0.0527
   23MOL   C277 8241   5.812   1.542   2.932  0.4732  0.4307 -0.5613
   23MOL   C278 8242   5.689   1.625   2.908  0.2965 -0.0509 -0.2840
   23MOL   O279 8243   5.651   1.707   3.022  0.0888  0.2109 -0.0320
   23MOL   H280 8244   6.005   1.211   3.210  0.8467  0.9653 -1.0131
   23MOL   H281 8245   5.857   1.283   3.284 -3.0557 -1.5977 -0.2674
   23MOL   H282 8246   5.951   1.326   2.991  0.8551 -0.6207  0.4424
   23MOL   H283 8247   5.993   1.438   3.120 -0.0906 -0.8431  0.6693
   23MOL   H284 8248   5.733   1.485   3.123 -0.7895 -1.0032 -0.0383
   23MOL   H285 8249   5.715   1.358   3.010 -0.0620  0.1617 -0.1399
   23MOL   H286 8250   5.834   1.494   2.836 -0.8766 -0.3241 -0.5110
   23MOL   H287 8251   5.894   1.609   2.956  0.2495  0.2842  0.6698
   23MOL   H288 8252   5.703   1.690   2.821  0.1237 -2.0711 -1.8605
   23MOL   H289 8253   5.608   1.564   2.867 -0.9725  1.5370 -0.1847
   23MOL   C290 8254   5.567   1.808   2.993  0.7285 -0.0171 -0.6309
   23MOL   O291 8255   5.513   1.835   2.885  0.0648  0.3846  0.3728
   23MOL   C292 8256   5.519   1.892   3.121 -0.1820  0.4472  0.2487
   23MOL   C293 8257   5.628   1.911   3.229 -0.1337  0.3202  0.6557
   23MOL   C294 8258   5.575   1.948   3.365  0.4450  0.5946  0.3374
   23MOL   C295 8259   5.661   1.892   3.478  0.5508 -0.0039 -1.1126
   23MOL   C296 8260   5.614   1.932   3.617 -0.1290  0.5379 -0.7392
   23MOL   O297 8261   5.661   1.850   3.730  0.1962 -0.2291 -0.3698
   23MOL   H298 8262   5.439   1.834   3.167 -0.1819 -1.7257 -2.3661
   23MOL   H299 8263   5.472   1.981   3.081 -0.3866 -0.0004 -0.5186
   23MOL   H300 8264   5.715   1.975   3.213  0.1540 -0.0328  0.8020
   23MOL   H301 8265   5.676   1.815   3.248  1.6081  0.7350 -1.4730
   23MOL   H302 8266   5.471   1.926   3.392  0.5316  0.6837  0.7389
   23MOL   H303 8267   5.578   2.056   3.351  0.4825  0.4407 -0.9176
   23MOL   H304 8268   5.760   1.937   3.471  0.7326 -0.4350 -1.3003
   23MOL   H305 8269   5.670   1.784   3.465  1.4505 -0.2877  1.5822
   23MOL   H306 8270   5.648   2.032   3.645  1.9790 -0.3411 -0.0556
   23MOL   H307 8271   5.505   1.941   3.625  0.0005 -0.5556  3.8890
   23MOL   C308 8272   5.656   1.892   3.854 -0.7901  0.0938  0.2387
   23MOL   O309 8273   5.593   1.990   3.889 -0.2191 -0.3697  0.1391
   23MOL   C310 8274   5.709   1.783   3.949 -0.3681  0.0960 -0.7658
   23MOL   C311 8275   5.589   1.706   4.006 -0.6136 -0.3686  0.2868
   23MOL   C312 8276   5.634   1.592   4.099 -0.5111 -0.4755 -0.7153
   23MOL   C313 8277   5.687   1.651   4.232 -0.9635 -0.5267  0.3061
   23MOL   C314 8278   5.708   1.533   4.325 -0.6670  0.2781  0.8536
   23MOL   O315 8279   5.723   1.588   4.460  1.1357  0.4503  0.6333
   23MOL   H316 8280   5.758   1.828   4.036  2.2310 -0.0934 -2.0851
   23MOL   H317 8281   5.773   1.709   3.900 -1.2325 -0.7194 -0.6733
   23MOL   H318 8282   5.549   1.655   3.918  1.8579  0.6542 -1.4709
   23MOL   H319 8283   5.519   1.778   4.048  0.1135  1.5598 -1.7206
   23MOL   H320 8284   5.708   1.544   4.035 -0.2009  0.7163 -1.2626
   23MOL   H321 8285   5.552   1.520   4.113 -1.0643  0.3135  0.1423
   23MOL   H322 8286   5.619   1.721   4.281 -0.2621 -1.2427  2.3970
   23MOL   H323 8287   5.780   1.703   4.211 -2.2452  1.3341 -0.8012
   23MOL   H324 8288   5.624   1.464   4.320  0.6169 -1.1902 -1.3645
   23MOL   H325 8289   5.801   1.483   4.297 -0.5631  0.7581  0.3459
   23MOL   C326 8290   5.705   1.503   4.565 -0.2280 -0.0742  0.9168
   23MOL   O327 8291   5.692   1.381   4.555  0.0552 -0.6721 -0.1215
   23MOL   C328 8292   5.716   1.569   4.698  0.2946 -0.3543  0.1573
   23MOL   C329 8293   5.808   1.485   4.792  0.2656 -0.4336 -0.0299
   23MOL   C330 8294   5.793   1.542   4.938 -0.7005  0.3247  0.9965
   23MOL   C331 8295   5.863   1.445   5.035 -0.5429  0.3314 -0.2947
   23MOL   C332 8296   5.866   1.494   5.186  0.2901 -0.4897  1.2513
   23MOL   O333 8297   5.738   1.471   5.234 -0.7819  0.3847  0.0970
   23MOL   H334 8298   5.618   1.562   4.744 -0.0377 -2.3740 -0.7825
   23MOL   H335 8299   5.731   1.676   4.686  1.0404 -0.6597 -1.9359
   23MOL   H336 8300   5.912   1.473   4.761 -0.2291 -0.1687 -1.8511
   23MOL   H337 8301   5.776   1.382   4.801  1.3453 -0.7894 -0.1544
   23MOL   H338 8302   5.689   1.550   4.967 -1.6606 -1.4738 -1.7184
   23MOL   H339 8303   5.842   1.639   4.943 -0.7970  0.3279  1.8743
   23MOL   H340 8304   5.960   1.419   4.992 -0.2745  0.8333  0.0066
   23MOL   H341 8305   5.812   1.349   5.034  0.7764 -0.3746 -0.6696
   23MOL   H342 8306   5.942   1.438   5.241 -0.4361 -2.3485  0.4054
   23MOL   H343 8307   5.878   1.602   5.192 -1.1319 -0.2567  0.0911
   23MOL   C344 8308   5.700   1.528   5.351 -0.3273 -0.7597 -0.0469
   23MOL   O345 8309   5.773   1.605   5.413 -0.0809 -0.4040  0.3307
   23MOL   C346 8310   5.568   1.472   5.398 -0.1431 -0.0783  0.7243
   23MOL   C347 8311   5.576   1.379   5.515 -0.8719  0.0605 -0.2557
   23MOL   C348 8312   5.558   1.456   5.648  0.1586 -0.2468 -0.5074
   23MOL   C349 8313   5.539   1.367   5.767  0.6598 -0.4215 -0.4948
   23MOL   C350 8314   5.553   1.449   5.902 -0.0943 -0.1272  0.3479
   23MOL   O351 8315   5.560   1.374   6.017  0.6311  0.6989 -0.3262
   23MOL   H352 8316   5.519   1.432   5.309  0.1967  1.2104 -0.0492
   23MOL   H353 8317   5.512   1.560   5.430  0.2781  0.0633  1.0834
   23MOL   H354 8318   5.675   1.336   5.508 -0.5390  1.1958 -3.0199
   23MOL   H355 8319   5.508   1.295   5.504  1.6818 -1.9433 -1.0993
   23MOL   H356 8320   5.475   1.527   5.653 -0.5234 -1.0154 -0.6911
   23MOL   H357 8321   5.651   1.512   5.660  0.6186 -1.1103 -0.0478
   23MOL   H358 8322   5.607   1.283   5.756 -1.6685 -2.0746 -2.5781
   23MOL   H359 8323   5.443   1.320   5.748  2.4798 -3.9176 -1.3690
   23MOL   H360 8324   5.642   1.510   5.890 -0.5286  0.5530  0.5467
   23MOL   H361 8325   5.479   1.528   5.914 -0.4497 -0.6410  1.6074
   23MOL   H362 8326   5.623   1.404   6.081  0.2751  1.3523 -0.2749
   24MOL     C1 8327   2.239   0.862   7.736 -0.0088  0.1120 -0.2859
   24MOL     O2 8328   2.165   0.771   7.704 -0.1060 -0.2586  0.1107
   24MOL     C3 8329   2.203   1.005   7.699 -0.1153  0.2930  0.4285
   24MOL     C4 8330   2.082   1.012   7.599 -0.2667 -0.2876  0.3761
   24MOL     C5 8331   2.118   1.006   7.444 -0.5112  0.2787 -0.2816
   24MOL     C6 8332   2.183   1.145   7.395 -0.3238 -0.6197  0.5223
   24MOL     C7 8333   2.214   1.146   7.240 -0.0831  0.3725  0.1031
   24MOL     O8 8334   2.290   1.259   7.197  0.1426  0.1039  0.0781
   24MOL     H9 8335   2.292   1.050   7.656 -1.2072  3.2649  1.1722
   24MOL    H10 8336   2.191   1.055   7.795 -1.1932  0.4537  0.2194
   24MOL    H11 8337   2.041   1.112   7.613 -0.4863 -0.6456  2.5067
   24MOL    H12 8338   2.000   0.943   7.618 -3.4007  3.2729  0.1878
   24MOL    H13 8339   2.023   0.992   7.392  0.8154 -0.0737 -2.7096
   24MOL    H14 8340   2.195   0.929   7.436 -0.8699  0.1586 -3.4016
   24MOL    H15 8341   2.277   1.152   7.449 -1.3012  0.8405  2.1246
   24MOL    H16 8342   2.125   1.233   7.424  1.3295  0.4704  0.5715
   24MOL    H17 8343   2.268   1.054   7.221  0.1261  0.5941 -0.3781
   24MOL    H18 8344   2.126   1.135   7.177 -0.0091 -0.5483  0.1527
   24MOL    H19 8345   2.323   0.848   7.803  0.0335 -0.8037 -0.5252
   24MOL    C20 8346   2.346   1.261   7.075 -0.2257  0.2584  0.0099
   24MOL    O21 8347   2.314   1.193   6.980  0.2697  0.1949  0.2301
   24MOL    C22 8348   2.471   1.345   7.080  0.0532 -0.1895  0.4736
   24MOL    C23 8349   2.597   1.273   7.131  0.1906 -0.1238 -0.3728
   24MOL    C24 8350   2.700   1.369   7.204  0.2139  0.2648  0.3373
   24MOL    C25 8351   2.850   1.318   7.200 -0.0347  0.0636 -0.0631
   24MOL    C26 8352   2.945   1.420   7.264  0.0876  0.4197 -0.1930
   24MOL    O27 8353   3.048   1.346   7.326 -0.1148  0.2488 -0.0697
   24MOL    H28 8354   2.449   1.434   7.139 -3.2494 -1.8670  1.9283
   24MOL    H29 8355   2.473   1.383   6.978 -1.0618 -0.2447  0.4230
   24MOL    H30 8356   2.636   1.228   7.039 -0.7656 -0.2999 -0.7035
   24MOL    H31 8357   2.575   1.184   7.189  1.0254 -1.0909 -1.5212
   24MOL    H32 8358   2.665   1.378   7.307 -0.3623  2.6786 -0.0535
   24MOL    H33 8359   2.697   1.470   7.163 -2.4423 -0.1046 -0.5044
   24MOL    H34 8360   2.874   1.306   7.095  1.5628  1.0329  0.1765
   24MOL    H35 8361   2.846   1.221   7.250 -0.3021  0.4631  0.7035
   24MOL    H36 8362   2.975   1.489   7.184  0.2751 -0.6922 -1.0989
   24MOL    H37 8363   2.896   1.468   7.349  0.8709 -0.9354  1.0341
   24MOL    C38 8364   3.042   1.283   7.441  0.2743  0.0018  0.3326
   24MOL    O39 8365   2.949   1.281   7.521 -0.5493 -0.5149 -0.4941
   24MOL    C40 8366   3.171   1.204   7.474 -0.5326  0.6552  0.7076
   24MOL    C41 8367   3.202   1.089   7.386 -0.4833  0.8154  0.4326
   24MOL    C42 8368   3.246   1.135   7.245 -0.3368  0.5103  0.0069
   24MOL    C43 8369   3.262   1.015   7.147  0.2714  0.5123  0.0476
   24MOL    C44 8370   3.382   1.045   7.048  0.0682 -0.1510  0.2612
   24MOL    O45 8371   3.341   1.166   6.975  0.3328 -0.5426  0.4073
   24MOL    H46 8372   3.150   1.165   7.574  1.0227  0.3503  0.9262
   24MOL    H47 8373   3.260   1.265   7.483  0.5061 -0.6390 -0.6796
   24MOL    H48 8374   3.113   1.026   7.385  0.1265 -0.0591 -0.5675
   24MOL    H49 8375   3.271   1.019   7.433 -1.0041  0.6016  0.8820
   24MOL    H50 8376   3.332   1.201   7.246  0.6233 -0.7287  1.8287
   24MOL    H51 8377   3.162   1.186   7.197 -0.5320  0.9426  0.7913
   24MOL    H52 8378   3.170   0.988   7.095  0.5318 -1.3948  0.5420
   24MOL    H53 8379   3.280   0.919   7.195 -2.7637 -0.9872 -1.6801
   24MOL    H54 8380   3.476   1.070   7.099 -0.5474 -3.2952  3.0953
   24MOL    H55 8381   3.389   0.956   6.985 -2.2176 -0.0876 -0.1192
   24MOL    C56 8382   3.413   1.203   6.875  0.7743 -0.6474 -0.0720
   24MOL    O57 8383   3.503   1.140   6.827  0.4385  0.4218  0.5938
   24MOL    C58 8384   3.360   1.328   6.805  0.3939  0.1819 -0.0992
   24MOL    C59 8385   3.459   1.452   6.808 -0.5104 -0.3742 -0.0194
   24MOL    C60 8386   3.397   1.576   6.735 -0.2691 -0.7136  0.1008
   24MOL    C61 8387   3.513   1.684   6.715 -0.1626  0.1904  0.5476
   24MOL    C62 8388   3.534   1.758   6.847  1.2466 -0.3802 -0.0307
   24MOL    O63 8389   3.440   1.870   6.865 -0.4869 -0.2127 -0.4339
   24MOL    H64 8390   3.266   1.367   6.843 -0.7460 -0.2292 -2.3966
   24MOL    H65 8391   3.342   1.296   6.702 -0.3317 -1.9001  0.6410
   24MOL    H66 8392   3.559   1.432   6.768  0.7927  0.5930  2.6721
   24MOL    H67 8393   3.479   1.473   6.913 -2.2072 -1.9446  0.6455
   24MOL    H68 8394   3.315   1.622   6.791  1.6763  3.7975 -0.5173
   24MOL    H69 8395   3.367   1.543   6.635  0.7709  2.0431 -1.1837
   24MOL    H70 8396   3.483   1.746   6.630 -0.6514 -0.4581  0.2461
   24MOL    H71 8397   3.603   1.626   6.695 -0.0957 -0.0974  1.6613
   24MOL    H72 8398   3.523   1.701   6.939 -0.4398  1.0755  0.6921
   24MOL    H73 8399   3.638   1.793   6.851  1.6116 -1.1961 -1.8773
   24MOL    C74 8400   3.446   1.980   6.782  0.8920 -0.9400  0.1838
   24MOL    O75 8401   3.539   2.009   6.706  0.0490  0.3031 -0.1019
   24MOL    C76 8402   3.324   2.065   6.793 -0.2598 -0.0392  0.4558
   24MOL    C77 8403   3.341   2.170   6.899 -1.0214 -0.7794  0.6184
   24MOL    C78 8404   3.217   2.257   6.907 -1.0574  0.2252  0.7295
   24MOL    C79 8405   3.240   2.361   7.018  0.1875 -0.5354 -0.0274
   24MOL    C80 8406   3.119   2.456   7.022 -0.3204 -0.0691 -0.3302
   24MOL    O81 8407   3.118   2.524   7.151 -0.0405 -0.5031 -0.0966
   24MOL    H82 8408   3.232   2.008   6.809  1.1701 -1.6432  3.1291
   24MOL    H83 8409   3.303   2.114   6.698 -1.1504 -1.7932 -0.2842
   24MOL    H84 8410   3.423   2.233   6.866 -1.0539 -1.0134  0.0880
   24MOL    H85 8411   3.365   2.125   6.995 -1.1502 -0.5134  0.7775
   24MOL    H86 8412   3.124   2.202   6.923 -1.3405  0.6113  0.4006
   24MOL    H87 8413   3.196   2.295   6.807  0.9433  0.1197  0.2562
   24MOL    H88 8414   3.336   2.409   6.997  0.0965  0.2233  1.2544
   24MOL    H89 8415   3.261   2.323   7.118 -0.1439  2.9058  1.4061
   24MOL    H90 8416   3.123   2.541   6.954 -2.1030  1.2349  1.1349
   24MOL    H91 8417   3.018   2.418   7.010 -0.2814 -0.4235  0.4319
   24MOL    C92 8418   3.007   2.585   7.185 -0.1957  0.1139 -0.2018
   24MOL    O93 8419   2.904   2.587   7.122  0.4243  0.2334  0.0153
   24MOL    C94 8420   3.023   2.663   7.313  0.1740 -0.5504 -0.6302
   24MOL    C95 8421   2.987   2.814   7.305  0.3215 -0.1431 -0.1548
   24MOL    C96 8422   2.842   2.861   7.325  0.2251  0.8525 -0.3082
   24MOL    C97 8423   2.780   2.845   7.454  0.2293 -0.1974 -0.2345
   24MOL    C98 8424   2.631   2.890   7.453 -0.1843  0.0014  0.2837
   24MOL    O99 8425   2.630   3.030   7.457 -0.0740 -0.0291 -0.3441
   24MOL   H100 8426   3.132   2.664   7.318  0.1607 -0.2908 -0.3968
   24MOL   H101 8427   2.977   2.607   7.394 -1.3657  0.1946 -0.9772
   24MOL   H102 8428   3.023   2.855   7.211 -2.6707  2.2792 -0.3021
   24MOL   H103 8429   3.048   2.855   7.386  0.2171  0.1406 -0.2212
   24MOL   H104 8430   2.778   2.807   7.255  0.4494  0.2654 -0.0632
   24MOL   H105 8431   2.836   2.964   7.288 -0.6560  0.5273 -1.0804
   24MOL   H106 8432   2.836   2.909   7.523 -0.3323 -0.2632  0.2899
   24MOL   H107 8433   2.794   2.740   7.482 -0.0585 -0.8413 -2.4698
   24MOL   H108 8434   2.597   2.843   7.361 -0.0950  0.5251 -0.0203
   24MOL   H109 8435   2.580   2.838   7.534 -1.0092  0.6897  0.2123
   24MOL   C110 8436   2.524   3.084   7.513  0.1598  0.1152 -0.1642
   24MOL   O111 8437   2.410   3.041   7.517  0.2059  0.8442 -0.3507
   24MOL   C112 8438   2.549   3.225   7.561 -0.3127  0.1019 -0.1427
   24MOL   C113 8439   2.580   3.228   7.711  0.0243  0.3579 -0.4494
   24MOL   C114 8440   2.731   3.186   7.742  0.0521  0.1528  0.3266
   24MOL   C115 8441   2.753   3.209   0.051  0.4383  0.4009  0.4639
   24MOL   C116 8442   2.885   3.141   0.096 -0.1835 -0.2094  0.5161
   24MOL   O117 8443   2.901   3.142   0.232  0.3212 -0.0004 -0.1448
   24MOL   H118 8444   2.466   3.294   7.549 -0.2448  0.0340 -1.0428
   24MOL   H119 8445   2.636   3.260   7.506 -2.1817 -1.1766 -4.1093
   24MOL   H120 8446   2.505   3.172   7.767 -1.6198  0.9281 -2.0366
   24MOL   H121 8447   2.562   3.330   7.746  0.3729  0.3459 -0.2320
   24MOL   H122 8448   2.784   3.267   7.692  1.2524 -0.0910  1.1929
   24MOL   H123 8449   2.765   3.091   7.701 -0.3173 -0.7940  2.1691
   24MOL   H124 8450   2.680   3.174   0.125  1.3819 -0.9313  0.7948
   24MOL   H125 8451   2.752   3.316   0.068  1.2456  0.1447  2.2922
   24MOL   H126 8452   2.899   3.038   0.061  0.2510 -0.1785  0.6040
   24MOL   H127 8453   2.973   3.193   0.059 -0.0071 -0.8499  0.0340
   24MOL   C128 8454   2.963   3.246   0.297  0.1232 -0.5059 -0.5911
   24MOL   O129 8455   2.993   3.353   0.253  0.2020 -0.3444  0.2900
   24MOL   C130 8456   2.981   3.218   0.443 -0.0183 -0.3234  0.1380
   24MOL   C131 8457   2.846   3.177   0.511 -0.1409  0.0116 -0.7494
   24MOL   C132 8458   2.867   3.130   0.658  0.2862  0.1946  0.2034
   24MOL   C133 8459   2.912   3.243   0.744  0.3304  0.0350  0.1372
   24MOL   C134 8460   2.917   3.211   0.894  0.5739 -0.2677  0.4048
   24MOL   O135 8461   2.948   3.330   0.971  0.8941 -0.2313  0.0780
   24MOL   H136 8462   3.027   3.305   0.489 -0.2319 -0.1754  0.0683
   24MOL   H137 8463   3.046   3.132   0.464 -0.6285 -1.0099 -0.7178
   24MOL   H138 8464   2.797   3.101   0.450 -1.7090  1.8034 -1.7683
   24MOL   H139 8465   2.786   3.268   0.508  1.0694  0.8705  0.3287
   24MOL   H140 8466   2.945   3.057   0.676  0.4365 -0.1943 -1.8439
   24MOL   H141 8467   2.774   3.090   0.698  0.1519  0.2067 -0.0920
   24MOL   H142 8468   2.850   3.330   0.728  0.8558  0.1136 -1.5210
   24MOL   H143 8469   3.016   3.269   0.723  0.7248 -0.7744  1.0039
   24MOL   H144 8470   2.833   3.150   0.925 -1.1121 -0.0327 -3.4706
   24MOL   H145 8471   3.003   3.145   0.909 -0.2714 -1.3830  0.3808
   24MOL   C146 8472   2.969   3.315   1.099 -0.7554 -0.8166  0.3001
   24MOL   O147 8473   2.971   3.213   1.165 -0.2050  0.8844  0.1206
   24MOL   C148 8474   3.022   3.445   1.160  0.1451 -0.6105  0.2237
   24MOL   C149 8475   3.162   3.439   1.218  0.0266 -0.4018 -1.0647
   24MOL   C150 8476   3.169   3.446   1.370 -0.0395 -0.3109 -0.1922
   24MOL   C151 8477   3.167   3.589   1.432 -0.4265  0.1678  0.2146
   24MOL   C152 8478   3.182   3.596   1.588 -0.4066  0.0728  0.4477
   24MOL   O153 8479   3.311   3.585   1.618  0.3748 -0.2716 -0.0648
   24MOL   H154 8480   2.954   3.484   1.236  0.6672  2.1385 -0.6638
   24MOL   H155 8481   3.009   3.517   1.079 -0.6923 -0.2411  0.6775
   24MOL   H156 8482   3.221   3.519   1.175  1.0395  0.9780  2.7197
   24MOL   H157 8483   3.213   3.350   1.180  1.8625 -0.3405  1.1821
   24MOL   H158 8484   3.269   3.421   1.406  0.4090  2.6027  0.7446
   24MOL   H159 8485   3.090   3.388   1.417  1.2019 -3.3728 -1.8167
   24MOL   H160 8486   3.084   3.636   1.379 -1.3280  1.5005  2.7527
   24MOL   H161 8487   3.259   3.629   1.388  2.4450 -1.8808  4.0754
   24MOL   H162 8488   3.145   3.693   1.623  1.5185  1.7520 -1.9642
   24MOL   H163 8489   3.128   3.513   1.633  0.9159 -1.4035 -0.6453
   24MOL   C164 8490   3.359   3.551   1.733  0.3380  0.0407  0.3123
   24MOL   O165 8491   3.283   3.525   1.828 -0.3016 -0.1632 -0.2079
   24MOL   C166 8492   3.506   3.523   1.729 -0.3227 -0.5561 -0.3054
   24MOL   C167 8493   3.538   3.403   1.636 -0.4650 -0.7323 -0.0570
   24MOL   C168 8494   3.468   3.268   1.668  0.0457  0.2171  0.0446
   24MOL   C169 8495   3.529   3.148   1.591 -0.0332  0.2510 -1.1283
   24MOL   C170 8496   3.513   3.150   1.442  0.0769  0.0279  0.5360
   24MOL   O171 8497   3.375   3.136   1.414 -0.5030 -0.0671 -0.3302
   24MOL   H172 8498   3.535   3.506   1.833 -0.2500  4.6720  0.6715
   24MOL   H173 8499   3.556   3.612   1.692 -1.2139  0.2153  0.3174
   24MOL   H174 8500   3.644   3.380   1.644 -0.6126 -1.2973  0.2918
   24MOL   H175 8501   3.530   3.439   1.533 -0.3693 -0.1842  0.1223
   24MOL   H176 8502   3.362   3.274   1.643 -0.3844 -0.5663  1.6473
   24MOL   H177 8503   3.477   3.241   1.773 -1.4928  1.3344  0.4783
   24MOL   H178 8504   3.490   3.055   1.631  1.4537  0.2277  0.3284
   24MOL   H179 8505   3.632   3.142   1.627  0.2713  1.3273 -1.8144
   24MOL   H180 8506   3.566   3.228   1.388  0.5885 -1.6737 -1.4984
   24MOL   H181 8507   3.556   3.058   1.402 -1.9101 -0.6879 -0.0354
   24MOL   C182 8508   3.338   3.075   1.305 -0.4052 -0.8383 -0.1972
   24MOL   O183 8509   3.412   3.040   1.212 -0.8923  0.3716 -0.3190
   24MOL   C184 8510   3.188   3.038   1.309  0.0727  1.0347  0.0530
   24MOL   C185 8511   3.153   2.940   1.425 -0.4940  0.3984 -0.6640
   24MOL   C186 8512   3.048   2.996   1.525 -1.1080  0.4406  0.9802
   24MOL   C187 8513   3.112   3.105   1.616  0.4262 -0.4211  0.6560
   24MOL   C188 8514   3.015   3.155   1.719  0.0456  0.1637 -0.0092
   24MOL   O189 8515   3.012   3.052   1.816  0.3020  0.4442 -0.1543
   24MOL   H190 8516   3.166   3.005   1.207  0.9367  2.1525 -0.5019
   24MOL   H191 8517   3.132   3.131   1.323  1.2160  1.9073 -1.0279
   24MOL   H192 8518   3.242   2.902   1.476 -1.7456  0.9784  2.0302
   24MOL   H193 8519   3.127   2.848   1.372 -2.4226  0.0508  0.8119
   24MOL   H194 8520   3.023   2.905   1.581  4.4767 -3.0685 -1.7385
   24MOL   H195 8521   2.960   3.029   1.471 -0.1123  1.4891 -0.0348
   24MOL   H196 8522   3.116   3.188   1.546 -1.7477 -1.3349 -0.6126
   24MOL   H197 8523   3.207   3.067   1.653  0.2251 -0.9262  0.6711
   24MOL   H198 8524   3.056   3.251   1.750 -0.3009 -0.7491  3.4852
   24MOL   H199 8525   2.915   3.171   1.679 -0.8261 -4.6439 -0.1451
   24MOL   C200 8526   2.998   3.074   1.947 -0.4460  0.8311  0.0599
   24MOL   O201 8527   2.985   3.186   1.998 -0.9945 -0.4377  0.2344
   24MOL   C202 8528   2.998   2.942   2.024 -0.1128 -0.9089  0.0306
   24MOL   C203 8529   2.863   2.864   2.024 -0.5604  0.0083 -0.4847
   24MOL   C204 8530   2.836   2.792   1.885  0.1972 -0.2260 -0.2200
   24MOL   C205 8531   2.725   2.696   1.907  0.5471 -0.0042 -0.6363
   24MOL   C206 8532   2.684   2.616   1.782 -0.2112 -0.0840  0.0238
   24MOL   O207 8533   2.627   2.698   1.682  0.6282  0.6560  0.5591
   24MOL   H208 8534   3.025   2.968   2.126 -2.2557 -0.7655  0.5893
   24MOL   H209 8535   3.086   2.885   1.994  2.4167  1.2270  3.0576
   24MOL   H210 8536   2.791   2.937   2.062  0.2118  0.6992 -0.3545
   24MOL   H211 8537   2.876   2.788   2.101 -0.4586  0.2650 -0.2474
   24MOL   H212 8538   2.929   2.747   1.851  1.0798  1.4428 -0.0273
   24MOL   H213 8539   2.798   2.860   1.809 -0.0775 -0.1098  0.0190
   24MOL   H214 8540   2.643   2.756   1.946  0.9998  0.9288 -1.1229
   24MOL   H215 8541   2.733   2.624   1.989  0.1350 -2.7801 -2.9399
   24MOL   H216 8542   2.783   2.580   1.753  0.0577 -0.3390  1.2483
   24MOL   H217 8543   2.616   2.535   1.808  0.9337 -0.7208  1.0815
   24MOL   C218 8544   2.612   2.655   1.558  0.2961 -0.3377 -0.8313
   24MOL   O219 8545   2.651   2.544   1.519  0.2286  0.3618  0.0584
   24MOL   C220 8546   2.542   2.741   1.467  0.1077 -0.3247  0.6479
   24MOL   C221 8547   2.402   2.794   1.514  0.3201  0.2176  0.8699
   24MOL   C222 8548   2.330   2.868   1.397  0.2594 -0.2577  1.0969
   24MOL   C223 8549   2.203   2.930   1.451  0.6329 -0.5601 -0.2814
   24MOL   C224 8550   2.115   2.998   1.339  0.5858 -0.2057 -0.2354
   24MOL   O225 8551   1.993   3.063   1.383 -0.4661  0.3878  0.1792
   24MOL   H226 8552   2.525   2.690   1.373 -1.2530  1.3063 -0.0320
   24MOL   H227 8553   2.614   2.822   1.455  0.3780 -0.5744  0.5936
   24MOL   H228 8554   2.417   2.848   1.608  0.8977  0.3613  0.7005
   24MOL   H229 8555   2.336   2.711   1.538 -0.0227 -0.5892 -2.5632
   24MOL   H230 8556   2.298   2.808   1.312  0.4347 -0.2722  1.0416
   24MOL   H231 8557   2.393   2.948   1.358 -1.5089  1.0217  0.7981
   24MOL   H232 8558   2.225   3.012   1.519 -1.8246  2.4333 -2.9259
   24MOL   H233 8559   2.143   2.851   1.495  2.2852 -2.6981 -1.7560
   24MOL   H234 8560   2.166   3.066   1.271 -0.2734 -0.1637 -0.8501
   24MOL   H235 8561   2.077   2.923   1.269 -1.1160  0.5028 -0.0873
   24MOL   C236 8562   1.980   3.192   1.401 -0.3707 -0.3158 -0.9159
   24MOL   O237 8563   2.072   3.276   1.405 -0.4460 -0.1491  0.2932
   24MOL   C238 8564   1.828   3.227   1.420  0.5648 -0.4972  0.7250
   24MOL   C239 8565   1.796   3.377   1.464  0.5377  0.8035  0.1785
   24MOL   C240 8566   1.859   3.434   1.588  0.0318  0.4971  0.3353
   24MOL   C241 8567   1.881   3.587   1.587  0.3052  0.5696  0.2082
   24MOL   C242 8568   1.921   3.639   1.725  0.4130 -0.6691 -0.3372
   24MOL   O243 8569   1.902   3.781   1.742 -0.0948 -0.0389 -0.3899
   24MOL   H244 8570   1.779   3.154   1.485  0.5094 -0.8193  0.3285
   24MOL   H245 8571   1.771   3.203   1.331 -0.5116 -0.2775  1.3474
   24MOL   H246 8572   1.688   3.389   1.473  0.4091 -0.0627 -0.2236
   24MOL   H247 8573   1.816   3.443   1.379  1.4953  2.9623  2.0150
   24MOL   H248 8574   1.954   3.388   1.616 -0.0004  0.5766  0.5789
   24MOL   H249 8575   1.800   3.390   1.669  1.0970 -2.9153 -0.6576
   24MOL   H250 8576   1.786   3.633   1.561  0.2202 -0.5001 -1.4210
   24MOL   H251 8577   1.948   3.615   1.505 -2.7824  1.3519 -2.1291
   24MOL   H252 8578   1.861   3.592   1.803 -0.2052  0.5983 -0.0325
   24MOL   H253 8579   2.026   3.616   1.744  0.7298 -1.0254 -2.4188
   24MOL   C254 8580   1.996   3.836   1.832 -0.6248 -0.7956  0.0785
   24MOL   O255 8581   2.089   3.775   1.894  1.0030 -0.0582 -0.7257
   24MOL   C256 8582   1.991   3.991   1.814 -0.4303  0.7605 -0.2464
   24MOL   C257 8583   2.020   4.050   1.677  0.2261  0.5586 -0.2451
   24MOL   C258 8584   2.041   4.199   1.677  0.1363  0.2008 -0.0321
   24MOL   C259 8585   1.907   4.270   1.704 -0.0523 -0.2281  0.2767
   24MOL   C260 8586   1.939   4.422   1.690 -0.3181 -0.0624 -0.8076
   24MOL   O261 8587   1.950   4.456   1.548  0.2817  0.1746  0.1092
   24MOL   H262 8588   2.042   4.034   1.900 -0.5606  0.5067 -0.0420
   24MOL   H263 8589   1.894   4.032   1.843 -0.0428  1.3031  0.2856
   24MOL   H264 8590   1.941   4.025   1.606 -1.2267 -1.7054  2.0457
   24MOL   H265 8591   2.117   4.015   1.643 -0.6030 -0.4176 -1.6484
   24MOL   H266 8592   2.084   4.232   1.582  0.8242  1.1691  0.6035
   24MOL   H267 8593   2.108   4.232   1.756  0.5919  1.3478 -0.8794
   24MOL   H268 8594   1.879   4.241   1.805 -1.0109  2.7621  0.9402
   24MOL   H269 8595   1.821   4.244   1.642  1.8782 -0.4816 -2.3948
   24MOL   H270 8596   1.878   4.480   1.760  1.7997  0.4285  0.6985
   24MOL   H271 8597   2.034   4.447   1.737 -1.3818  2.5064  0.0958
   24MOL   C272 8598   1.846   4.501   1.480  0.1587 -0.5021  0.0266
   24MOL   O273 8599   1.733   4.523   1.534 -0.5522  0.3059  0.0673
   24MOL   C274 8600   1.884   4.542   1.334 -1.0152 -0.0243 -0.1445
   24MOL   C275 8601   1.873   4.691   1.309 -0.1332 -0.1317  0.9966
   24MOL   C276 8602   1.910   4.727   1.163 -0.7492  0.2404 -0.1905
   24MOL   C277 8603   1.912   4.878   1.135 -0.5865  0.2397  0.0972
   24MOL   C278 8604   1.922   4.920   0.992 -0.3740 -0.1202 -0.2468
   24MOL   O279 8605   1.936   5.060   0.973 -0.2722 -0.0237 -1.1603
   24MOL   H280 8606   1.821   4.497   1.257  0.9815  0.2782 -1.9932
   24MOL   H281 8607   1.977   4.487   1.320 -0.8071  0.3480 -0.2276
   24MOL   H282 8608   1.943   4.743   1.374  3.1264 -0.3684 -2.1315
   24MOL   H283 8609   1.774   4.725   1.338 -1.7512 -1.7210 -2.3947
   24MOL   H284 8610   1.829   4.692   1.098  0.4555 -1.4167 -0.8422
   24MOL   H285 8611   2.005   4.689   1.126  0.0168  0.4445  1.5220
   24MOL   H286 8612   1.999   4.916   1.190 -1.4764  1.3075  0.8065
   24MOL   H287 8613   1.827   4.927   1.184 -0.0963  0.8632  0.3365
   24MOL   H288 8614   2.011   4.872   0.951  1.4161  2.1303  0.8929
   24MOL   H289 8615   1.838   4.885   0.932  0.0151  3.1740 -2.8474
   24MOL   C290 8616   2.045   5.109   0.927 -0.1117 -0.2243  0.6191
   24MOL   O291 8617   2.134   5.044   0.886  0.0053  0.1532 -0.0112
   24MOL   C292 8618   2.053   5.254   0.960 -0.4446  0.0072 -0.6217
   24MOL   C293 8619   2.181   5.286   1.043  0.1353 -0.0817 -0.0647
   24MOL   C294 8620   2.201   5.438   1.057 -0.1744 -0.4985 -0.4581
   24MOL   C295 8621   2.320   5.467   1.153 -0.3625  0.4454  0.4471
   24MOL   C296 8622   2.288   5.422   1.297 -0.5837 -0.2179  0.8864
   24MOL   O297 8623   2.360   5.498   1.390 -0.3570  0.4295 -0.0884
   24MOL   H298 8624   1.963   5.275   1.019  0.9106 -1.3466  2.0009
   24MOL   H299 8625   2.054   5.313   0.868 -1.9298 -0.7008 -1.1059
   24MOL   H300 8626   2.276   5.247   1.006 -0.1280 -2.6987  1.8725
   24MOL   H301 8627   2.153   5.244   1.139  1.3482  3.0067  1.7028
   24MOL   H302 8628   2.107   5.482   1.092  0.4633  1.0816 -0.6772
   24MOL   H303 8629   2.218   5.479   0.957  0.7104  2.1267  0.7331
   24MOL   H304 8630   2.343   5.573   1.164  1.4489  0.0836  0.3992
   24MOL   H305 8631   2.412   5.417   1.121  0.4344  3.1397 -1.6879
   24MOL   H306 8632   2.180   5.427   1.308 -0.5929 -0.9614  1.1432
   24MOL   H307 8633   2.326   5.320   1.304  0.3992  0.0268 -0.5872
   24MOL   C308 8634   2.302   5.546   1.502 -0.4501  0.0078  0.5074
   24MOL   O309 8635   2.190   5.531   1.556  0.2850 -0.2807  0.1247
   24MOL   C310 8636   2.398   5.646   1.559 -0.3133  0.3301  0.7266
   24MOL   C311 8637   2.456   5.627   1.706 -0.1334 -0.0659 -0.3929
   24MOL   C312 8638   2.576   5.715   1.742  0.2721  0.6303 -0.8974
   24MOL   C313 8639   2.706   5.673   1.678  1.0218  0.1075 -0.1161
   24MOL   C314 8640   2.817   5.752   1.754  0.1585 -0.0182 -0.1994
   24MOL   O315 8641   2.938   5.746   1.688  0.3614  0.4659 -0.1949
   24MOL   H316 8642   2.353   5.745   1.550  0.8937  0.7785 -0.5046
   24MOL   H317 8643   2.479   5.654   1.487 -1.2559  0.8344 -0.2912
   24MOL   H318 8644   2.484   5.522   1.714 -0.1209  0.0595  1.4682
   24MOL   H319 8645   2.373   5.655   1.770 -0.0705 -0.7758  0.0023
   24MOL   H320 8646   2.591   5.723   1.849 -2.2540 -0.8106 -0.3849
   24MOL   H321 8647   2.561   5.821   1.725  2.9774  0.9979 -1.0972
   24MOL   H322 8648   2.705   5.694   1.571 -0.1627  0.6868 -0.0000
   24MOL   H323 8649   2.715   5.564   1.679 -0.5970 -0.0806 -2.2578
   24MOL   H324 8650   2.785   5.855   1.770 -1.3534 -0.7616  1.6451
   24MOL   H325 8651   2.825   5.727   1.859 -2.8243 -0.4377 -0.0288
   24MOL   C326 8652   3.021   5.639   1.732 -0.0028 -0.3191  0.7078
   24MOL   O327 8653   3.001   5.562   1.825  0.3847 -0.5693  0.0657
   24MOL   C328 8654   3.157   5.634   1.657 -0.2439  0.4062 -0.5637
   24MOL   C329 8655   3.147   5.623   1.506  0.6873  0.3553 -0.5003
   24MOL   C330 8656   3.225   5.506   1.440  0.4829 -0.6556 -0.4459
   24MOL   C331 8657   3.177   5.366   1.485 -0.3753 -0.9103 -0.0052
   24MOL   C332 8658   3.230   5.255   1.389 -0.4996 -0.7976  0.3668
   24MOL   O333 8659   3.199   5.129   1.437  0.2367 -0.2053 -0.5193
   24MOL   H334 8660   3.201   5.548   1.708 -0.4050  0.4176 -0.4023
   24MOL   H335 8661   3.215   5.719   1.690 -1.8715  0.6692  1.7209
   24MOL   H336 8662   3.191   5.715   1.470  4.2151 -1.4407 -0.9997
   24MOL   H337 8663   3.045   5.618   1.469  0.4524 -2.5818  0.3997
   24MOL   H338 8664   3.331   5.516   1.461  0.3976 -1.5844  0.4749
   24MOL   H339 8665   3.223   5.536   1.335  0.8778 -1.4112 -0.6750
   24MOL   H340 8666   3.068   5.365   1.495 -0.1062  0.7709  4.3578
   24MOL   H341 8667   3.212   5.345   1.586  1.7477  0.5406 -0.4026
   24MOL   H342 8668   3.196   5.257   1.286  0.5846 -1.6357 -0.0225
   24MOL   H343 8669   3.339   5.264   1.384 -0.5469 -0.4432 -0.1471
   24MOL   C344 8670   3.267   5.017   1.402  0.2744  0.0649  0.3856
   24MOL   O345 8671   3.361   5.006   1.324 -0.0979 -0.1411 -0.0504
   24MOL   C346 8672   3.200   4.889   1.473 -0.3167 -0.3896 -0.2956
   24MOL   C347 8673   3.279   4.763   1.444  0.3631  0.1267 -0.3476
   24MOL   C348 8674   3.212   4.641   1.504 -0.0512 -0.1708 -0.3716
   24MOL   C349 8675   3.316   4.525   1.495  0.1325 -0.2571 -0.6047
   24MOL   C350 8676   3.270   4.380   1.537  0.7595 -0.0443 -0.4045
   24MOL   O351 8677   3.200   4.335   1.429  0.1931  0.2135 -0.4628
   24MOL   H352 8678   3.101   4.880   1.429 -0.8812  2.0381  0.4232
   24MOL   H353 8679   3.181   4.903   1.579 -0.8901 -1.7034 -0.2064
   24MOL   H354 8680   3.384   4.769   1.474  0.1360  0.0397  0.4689
   24MOL   H355 8681   3.292   4.740   1.338  2.2440  1.2360 -0.3896
   24MOL   H356 8682   3.119   4.608   1.456 -0.6601  0.0814  0.6282
   24MOL   H357 8683   3.191   4.663   1.608 -1.4607  0.3675 -0.7583
   24MOL   H358 8684   3.407   4.553   1.548 -2.0761  2.2297  2.0516
   24MOL   H359 8685   3.353   4.517   1.392 -1.5370 -1.6774 -1.1160
   24MOL   H360 8686   3.356   4.314   1.546  1.7056  1.2046 -0.0742
   24MOL   H361 8687   3.211   4.374   1.629 -0.8069  0.3117 -1.3666
   24MOL   H362 8688   3.113   4.372   1.435 -0.2364 -0.8676 -0.0070
   25MOL     C1 8689   4.086   0.618   3.817  0.3519 -0.3992 -0.0121
   25MOL     O2 8690   4.143   0.590   3.924  0.3220 -0.0555  0.3330
   25MOL     C3 8691   3.962   0.706   3.826  0.0105 -0.2911  0.5963
   25MOL     C4 8692   3.918   0.739   3.972 -0.7377 -0.2152  0.3725
   25MOL     C5 8693   3.803   0.837   3.955  0.1397  0.2317  0.3352
   25MOL     C6 8694   3.743   0.883   4.084  0.4229 -0.1009  0.6421
   25MOL     C7 8695   3.615   0.968   4.075 -0.0492 -0.6883 -0.4426
   25MOL     O8 8696   3.590   1.042   4.198 -0.6765 -0.0972  0.3630
   25MOL     H9 8697   3.884   0.656   3.769 -1.1163  1.1736  0.8279
   25MOL    H10 8698   3.970   0.794   3.763 -0.6224  0.1367  1.0978
   25MOL    H11 8699   3.997   0.776   4.037  0.2054  2.1706 -2.0647
   25MOL    H12 8700   3.889   0.648   4.024  1.3880 -0.5596  1.0026
   25MOL    H13 8701   3.719   0.789   3.905  0.1365 -0.0805  0.6347
   25MOL    H14 8702   3.817   0.929   3.899 -1.0793  0.6283  0.6569
   25MOL    H15 8703   3.817   0.946   4.134  0.4772  0.2400  0.1325
   25MOL    H16 8704   3.718   0.805   4.156 -0.4267  0.8895  1.4392
   25MOL    H17 8705   3.607   1.026   3.983 -2.4416  1.4720  1.0664
   25MOL    H18 8706   3.533   0.897   4.069  0.2317 -0.8560 -2.5935
   25MOL    H19 8707   4.112   0.588   3.716 -1.2143  1.9475 -1.1355
   25MOL    C20 8708   3.549   1.173   4.195  0.5964  0.6260  0.6182
   25MOL    O21 8709   3.505   1.225   4.093  0.4059  0.0836 -0.3569
   25MOL    C22 8710   3.574   1.261   4.315 -0.5614 -0.1902  0.1155
   25MOL    C23 8711   3.672   1.380   4.281 -0.0679 -1.4463 -0.2533
   25MOL    C24 8712   3.671   1.490   4.393  0.4241  0.2625 -0.4992
   25MOL    C25 8713   3.752   1.610   4.346 -0.0451 -0.3279  0.0081
   25MOL    C26 8714   3.789   1.710   4.459  0.2013  0.5576 -0.1588
   25MOL    O27 8715   3.830   1.834   4.399  0.2982  0.0758  0.0418
   25MOL    H28 8716   3.612   1.198   4.396  0.4565  1.8926  1.2812
   25MOL    H29 8717   3.478   1.300   4.349 -0.0311 -1.3061  3.0291
   25MOL    H30 8718   3.641   1.423   4.185  0.8515 -0.6477 -0.1994
   25MOL    H31 8719   3.772   1.338   4.274  0.6918  0.4780 -1.5694
   25MOL    H32 8720   3.703   1.450   4.489 -1.2660  1.2392  0.4895
   25MOL    H33 8721   3.567   1.522   4.398 -0.4986 -2.5770 -0.3441
   25MOL    H34 8722   3.703   1.669   4.268  1.1802  1.2895  0.4222
   25MOL    H35 8723   3.849   1.578   4.307  0.4739 -0.7752  1.6380
   25MOL    H36 8724   3.703   1.733   4.521 -1.4602  0.5586 -2.4163
   25MOL    H37 8725   3.861   1.661   4.525  0.2810 -1.7188 -1.8575
   25MOL    C38 8726   3.834   1.945   4.483 -0.4157  1.0899 -0.1356
   25MOL    O39 8727   3.782   1.943   4.596  0.2530  0.0778  0.2140
   25MOL    C40 8728   3.917   2.059   4.429  0.1430  0.0536 -0.1690
   25MOL    C41 8729   3.892   2.188   4.511  0.2018  0.0289  0.0950
   25MOL    C42 8730   3.893   2.321   4.436 -0.2767 -0.0926  0.0802
   25MOL    C43 8731   3.783   2.328   4.333 -0.2072  0.3593 -0.1748
   25MOL    C44 8732   3.788   2.446   4.235  0.1739  0.0688 -0.3246
   25MOL    O45 8733   3.693   2.441   4.122 -0.2429  0.2694 -0.7304
   25MOL    H46 8734   3.897   2.072   4.323  0.5493  3.9294  0.1612
   25MOL    H47 8735   4.018   2.020   4.426 -0.2079 -1.1181  1.7510
   25MOL    H48 8736   3.959   2.196   4.597 -1.2183 -0.1972  1.2562
   25MOL    H49 8737   3.799   2.191   4.569  1.9411 -0.2785  3.0191
   25MOL    H50 8738   3.989   2.341   4.388  0.7355  2.0006  2.7898
   25MOL    H51 8739   3.885   2.410   4.499 -1.1741  0.5242 -0.8887
   25MOL    H52 8740   3.683   2.326   4.377 -0.0189 -0.5328  0.2200
   25MOL    H53 8741   3.781   2.238   4.271  0.0586 -1.0424  1.8292
   25MOL    H54 8742   3.770   2.536   4.294 -0.4346  0.3281 -0.8954
   25MOL    H55 8743   3.890   2.455   4.197  1.0873  2.4765  2.4704
   25MOL    C56 8744   3.691   2.547   4.047 -0.4202 -0.1530  0.0188
   25MOL    O57 8745   3.776   2.632   4.036 -0.0895 -0.0460 -0.3262
   25MOL    C58 8746   3.576   2.554   3.943 -0.3033  0.2499 -0.5971
   25MOL    C59 8747   3.580   2.442   3.834 -0.1586 -0.8499 -0.1384
   25MOL    C60 8748   3.458   2.463   3.746  0.1568  0.3805 -0.1659
   25MOL    C61 8749   3.418   2.340   3.661 -0.3635 -1.1071 -0.9680
   25MOL    C62 8750   3.373   2.228   3.744 -0.1707 -0.5308 -0.6754
   25MOL    O63 8751   3.319   2.115   3.668 -0.2610  0.5106  0.5140
   25MOL    H64 8752   3.587   2.648   3.888 -2.2325  0.7983 -0.0912
   25MOL    H65 8753   3.484   2.547   4.001  1.1578 -1.0700  1.6146
   25MOL    H66 8754   3.585   2.342   3.877 -0.7535 -0.4246  0.9509
   25MOL    H67 8755   3.673   2.459   3.779 -0.9321 -1.2858 -1.6157
   25MOL    H68 8756   3.480   2.555   3.692  0.9185  0.9256  1.0530
   25MOL    H69 8757   3.370   2.490   3.803  0.0972  0.1777 -0.1634
   25MOL    H70 8758   3.494   2.310   3.589 -1.6306  0.6249 -3.0606
   25MOL    H71 8759   3.335   2.382   3.605 -0.1340 -0.1406 -0.5896
   25MOL    H72 8760   3.455   2.193   3.807 -0.8168  0.9671  1.0379
   25MOL    H73 8761   3.293   2.265   3.808  0.5820  1.3226 -0.7713
   25MOL    C74 8762   3.260   2.011   3.733  0.1949 -0.9094  0.3117
   25MOL    O75 8763   3.254   2.002   3.854 -0.2277  0.0028  0.0282
   25MOL    C76 8764   3.207   1.897   3.642 -0.3909  0.0417 -0.0505
   25MOL    C77 8765   3.087   1.946   3.561  0.4452 -0.0805 -0.8235
   25MOL    C78 8766   3.028   1.845   3.458 -0.5588  0.0563 -0.5573
   25MOL    C79 8767   2.969   1.714   3.527 -0.6594 -0.2067 -0.3027
   25MOL    C80 8768   2.902   1.607   3.437  0.1746 -0.1665 -0.2201
   25MOL    O81 8769   2.980   1.571   3.330 -0.5611  0.3558  0.3939
   25MOL    H82 8770   3.185   1.801   3.687 -0.1236  0.8284  1.8045
   25MOL    H83 8771   3.291   1.869   3.578 -0.9606 -2.5194  0.2660
   25MOL    H84 8772   3.119   2.034   3.506 -0.0498  1.2427  0.9895
   25MOL    H85 8773   3.011   1.992   3.624  0.8983  1.2947 -1.2634
   25MOL    H86 8774   3.107   1.817   3.388  0.2165  0.1470  0.2768
   25MOL    H87 8775   2.952   1.902   3.404 -0.3572  0.6923 -0.1845
   25MOL    H88 8776   2.891   1.736   3.599 -1.8009 -2.8856 -0.6846
   25MOL    H89 8777   3.051   1.658   3.572 -0.0238  0.4603 -0.6165
   25MOL    H90 8778   2.886   1.516   3.496 -0.9044  0.7006  0.8421
   25MOL    H91 8779   2.805   1.645   3.405  0.3495 -0.1856 -0.7817
   25MOL    C92 8780   2.944   1.600   3.203 -0.0345  0.9779  0.3755
   25MOL    O93 8781   2.864   1.682   3.158 -0.0834  0.2114 -0.2366
   25MOL    C94 8782   3.036   1.518   3.107  0.2018 -0.6080  0.1290
   25MOL    C95 8783   3.010   1.567   2.963  0.4521  0.0654 -0.0345
   25MOL    C96 8784   3.068   1.707   2.934 -0.2832 -0.1635 -0.1133
   25MOL    C97 8785   3.219   1.713   2.942 -0.3407 -0.6860 -0.1055
   25MOL    C98 8786   3.277   1.831   2.865 -0.0020  0.0174  0.2827
   25MOL    O99 8787   3.408   1.861   2.894  0.1935  0.1855  0.2381
   25MOL   H100 8788   3.013   1.412   3.114 -1.2025 -0.4595 -1.7711
   25MOL   H101 8789   3.138   1.535   3.140  1.1745 -0.1208 -2.9581
   25MOL   H102 8790   2.903   1.562   2.942  0.2319  2.6973  0.2746
   25MOL   H103 8791   3.047   1.500   2.886 -1.4963  0.7743 -1.6353
   25MOL   H104 8792   3.028   1.785   2.998 -1.2133 -2.0131  1.6155
   25MOL   H105 8793   3.038   1.736   2.834  0.3502 -0.8560 -0.5075
   25MOL   H106 8794   3.269   1.625   2.903 -0.5232 -0.8673  0.0699
   25MOL   H107 8795   3.251   1.723   3.045 -1.3036 -1.6355  0.2893
   25MOL   H108 8796   3.268   1.821   2.757  2.1427  0.6781  0.0247
   25MOL   H109 8797   3.218   1.919   2.893  1.4722  0.5782  1.7330
   25MOL   C110 8798   3.468   1.954   2.811 -0.7702 -0.2786  0.0350
   25MOL   O111 8799   3.405   2.032   2.738 -0.4303  0.3102 -0.4358
   25MOL   C112 8800   3.628   1.949   2.822 -0.8865  0.2543  0.5500
   25MOL   C113 8801   3.685   2.018   2.937 -0.1813 -1.1610  0.2615
   25MOL   C114 8802   3.671   2.176   2.947 -0.3185 -0.2387  0.2394
   25MOL   C115 8803   3.766   2.240   2.843  0.8271  0.2769 -0.4503
   25MOL   C116 8804   3.769   2.392   2.835  0.3097  0.3616  0.1938
   25MOL   O117 8805   3.642   2.440   2.800 -0.5105 -0.2962 -0.1816
   25MOL   H118 8806   3.680   1.987   2.735  0.6662 -0.0941  1.3075
   25MOL   H119 8807   3.662   1.846   2.834  1.3789  0.6458 -2.0763
   25MOL   H120 8808   3.792   1.997   2.944  0.3714  0.9596 -1.4051
   25MOL   H121 8809   3.650   1.972   3.030  1.4865  0.3083  1.6653
   25MOL   H122 8810   3.699   2.206   3.048  1.2007  1.5656 -0.6958
   25MOL   H123 8811   3.568   2.201   2.922 -0.3867 -0.7782 -0.0435
   25MOL   H124 8812   3.748   2.201   2.743 -0.9478 -4.0503  1.3889
   25MOL   H125 8813   3.865   2.212   2.879  0.6476  0.4470  0.1814
   25MOL   H126 8814   3.796   2.425   2.935  0.4284  2.9777 -0.6710
   25MOL   H127 8815   3.851   2.426   2.772 -1.2987  2.5616 -0.7729
   25MOL   C128 8816   3.634   2.547   2.726 -0.3466 -0.4709 -0.4147
   25MOL   O129 8817   3.730   2.619   2.680 -0.1182  0.0233 -0.3239
   25MOL   C130 8818   3.492   2.593   2.711 -0.0103  0.3808 -0.4910
   25MOL   C131 8819   3.393   2.476   2.709 -0.5988 -0.4195  0.0930
   25MOL   C132 8820   3.248   2.529   2.687  0.1737  0.3432 -0.5710
   25MOL   C133 8821   3.157   2.404   2.675 -0.0869 -0.4553  0.4415
   25MOL   C134 8822   3.123   2.361   2.820  0.2842 -0.8003 -0.3105
   25MOL   O135 8823   3.074   2.465   2.902 -0.0885 -0.1699  0.4525
   25MOL   H136 8824   3.489   2.648   2.617 -0.6170 -0.0379 -0.7203
   25MOL   H137 8825   3.466   2.663   2.790  0.4070  1.4485 -1.2810
   25MOL   H138 8826   3.395   2.422   2.804 -1.0564 -0.3023  0.1737
   25MOL   H139 8827   3.412   2.412   2.623  0.7357 -1.0826  0.8763
   25MOL   H140 8828   3.244   2.586   2.594  4.2842  1.1520 -0.3210
   25MOL   H141 8829   3.225   2.605   2.762 -0.8458 -1.5720  1.1042
   25MOL   H142 8830   3.208   2.322   2.624 -3.7141 -3.0505  0.7765
   25MOL   H143 8831   3.072   2.435   2.614  1.0684  3.1027  0.5388
   25MOL   H144 8832   3.050   2.281   2.829 -0.2615 -0.6597 -3.0140
   25MOL   H145 8833   3.210   2.323   2.873 -0.2311  0.4174  1.4476
   25MOL   C146 8834   2.935   2.483   2.916 -0.7042 -0.0310 -0.1858
   25MOL   O147 8835   2.837   2.431   2.858  0.3939 -0.4757  0.4383
   25MOL   C148 8836   2.898   2.589   3.017 -0.3772 -0.1785 -0.3413
   25MOL   C149 8837   2.922   2.736   2.969  0.4579 -0.1893 -0.0336
   25MOL   C150 8838   2.800   2.817   2.929 -0.0919  0.1992 -0.4681
   25MOL   C151 8839   2.715   2.850   3.054  0.3545 -0.5668 -0.6982
   25MOL   C152 8840   2.591   2.934   3.019 -0.0001  0.1775  0.0029
   25MOL   O153 8841   2.628   3.050   2.950  0.0433  0.1715 -0.1018
   25MOL   H154 8842   2.954   2.579   3.110 -0.7490  2.9372  0.2760
   25MOL   H155 8843   2.794   2.579   3.048 -0.5285 -1.8510 -1.3432
   25MOL   H156 8844   2.999   2.721   2.893  3.9354  0.7810  3.1646
   25MOL   H157 8845   2.965   2.798   3.047 -0.5737 -1.4229  1.5492
   25MOL   H158 8846   2.745   2.748   2.864 -1.3417 -0.4087  1.1907
   25MOL   H159 8847   2.849   2.901   2.881  0.1503 -0.0665 -0.6915
   25MOL   H160 8848   2.775   2.895   3.132 -0.2446  1.9616 -1.6186
   25MOL   H161 8849   2.680   2.754   3.092 -0.5625 -0.0447 -0.2081
   25MOL   H162 8850   2.529   2.879   2.948  0.8207  0.9761 -1.3558
   25MOL   H163 8851   2.546   2.954   3.116 -1.0903  1.9385 -0.8359
   25MOL   C164 8852   2.533   3.134   2.907  0.2553 -1.1432  0.1856
   25MOL   O165 8853   2.411   3.112   2.915 -0.1746 -0.0470  0.1238
   25MOL   C166 8854   2.594   3.266   2.861  0.1547  0.1222  0.0165
   25MOL   C167 8855   2.495   3.371   2.821  0.2725 -0.1667 -0.2777
   25MOL   C168 8856   2.456   3.373   2.671  0.2276  0.2384 -0.2845
   25MOL   C169 8857   2.370   3.500   2.635 -0.1698 -0.3326 -0.7110
   25MOL   C170 8858   2.320   3.493   2.490 -1.2360  0.3589 -0.0479
   25MOL   O171 8859   2.262   3.623   2.449 -0.0036  0.7288 -0.2403
   25MOL   H172 8860   2.648   3.249   2.768 -0.7905 -0.2161 -0.4835
   25MOL   H173 8861   2.657   3.301   2.942 -1.5732  1.9297  0.6138
   25MOL   H174 8862   2.537   3.465   2.857 -0.9214  0.5485 -0.7192
   25MOL   H175 8863   2.406   3.361   2.884  2.8339 -0.9028  3.4223
   25MOL   H176 8864   2.399   3.283   2.646 -1.6509  0.9025  1.4500
   25MOL   H177 8865   2.542   3.380   2.605 -0.8458  1.5453 -1.5499
   25MOL   H178 8866   2.435   3.586   2.652 -1.0371  0.0352  0.8905
   25MOL   H179 8867   2.293   3.525   2.708  1.6647  0.6986  0.9269
   25MOL   H180 8868   2.407   3.470   2.429 -1.5120 -1.4779  0.2185
   25MOL   H181 8869   2.254   3.408   2.469  1.5784 -1.8155 -0.4604
   25MOL   C182 8870   2.140   3.638   2.393  0.1642 -0.2555 -0.2398
   25MOL   O183 8871   2.045   3.556   2.392 -0.1318 -0.5216  0.2402
   25MOL   C184 8872   2.128   3.781   2.342 -0.4426  0.0028  0.9927
   25MOL   C185 8873   2.007   3.820   2.257 -1.0710 -0.0520  0.3726
   25MOL   C186 8874   1.873   3.826   2.326 -0.5667  0.3642  0.2561
   25MOL   C187 8875   1.866   3.899   2.463  0.0059 -0.5058  0.1758
   25MOL   C188 8876   1.736   3.889   2.537  0.2905 -0.2963  0.3093
   25MOL   O189 8877   1.627   3.922   2.458 -0.0685 -0.1184 -0.2582
   25MOL   H190 8878   2.224   3.813   2.302 -2.0839  0.7038 -2.5839
   25MOL   H191 8879   2.122   3.837   2.435 -0.3631  0.5647  0.6614
   25MOL   H192 8880   2.000   3.765   2.163  1.5846 -0.9688  0.6627
   25MOL   H193 8881   2.045   3.920   2.233 -0.3233 -0.4533 -0.1326
   25MOL   H194 8882   1.850   3.723   2.354 -0.2623 -0.3711 -2.1121
   25MOL   H195 8883   1.804   3.874   2.256  0.8649 -0.2306 -1.6122
   25MOL   H196 8884   1.880   4.003   2.433  0.8169 -0.8088 -0.5293
   25MOL   H197 8885   1.947   3.874   2.532 -0.2984 -1.5117  0.1728
   25MOL   H198 8886   1.717   3.787   2.570 -0.8492 -1.0431 -2.4610
   25MOL   H199 8887   1.743   3.956   2.622 -0.9592  1.0975 -0.6595
   25MOL   C200 8888   1.504   3.926   2.507  1.0181 -0.2771  0.1371
   25MOL   O201 8889   1.474   3.876   2.617  0.3684 -0.2542  0.4138
   25MOL   C202 8890   1.396   3.986   2.413 -0.3311 -0.4283 -0.1153
   25MOL   C203 8891   1.360   3.897   2.292  1.1436  0.4314 -0.1788
   25MOL   C204 8892   1.470   3.858   2.195 -0.4591  0.4318 -0.0719
   25MOL   C205 8893   1.398   3.789   2.077 -0.0047  1.1877  0.3034
   25MOL   C206 8894   1.495   3.749   1.966 -0.3268  0.0935  0.1729
   25MOL   O207 8895   1.597   3.676   2.031 -0.0144  0.2993 -0.4389
   25MOL   H208 8896   1.424   4.084   2.374  0.2580 -0.1080  1.0891
   25MOL   H209 8897   1.307   4.006   2.473  0.0758 -2.8508  1.3925
   25MOL   H210 8898   1.275   3.940   2.239  0.8605  0.8264  0.5843
   25MOL   H211 8899   1.315   3.813   2.344  1.3806  0.6487  0.3846
   25MOL   H212 8900   1.541   3.804   2.258  2.5905  1.5207 -2.4490
   25MOL   H213 8901   1.518   3.949   2.159 -0.6028 -0.1431 -1.7646
   25MOL   H214 8902   1.321   3.852   2.034  0.2870  0.5758 -1.1367
   25MOL   H215 8903   1.355   3.701   2.126  0.1646  2.2758  2.4953
   25MOL   H216 8904   1.453   3.690   1.884 -0.5592 -0.1633  0.4796
   25MOL   H217 8905   1.546   3.834   1.920  0.9352 -1.7500 -1.9507
   25MOL   C218 8906   1.628   3.552   1.996 -0.7754  0.3219  0.0946
   25MOL   O219 8907   1.567   3.484   1.910  0.6266 -0.1385 -0.2599
   25MOL   C220 8908   1.755   3.503   2.069  0.3884 -0.0762  0.4063
   25MOL   C221 8909   1.817   3.386   1.995 -0.6753 -0.1414 -0.4868
   25MOL   C222 8910   1.921   3.324   2.084 -0.0081  0.6372 -0.1046
   25MOL   C223 8911   2.057   3.381   2.096  0.2695 -0.5356  0.7824
   25MOL   C224 8912   2.142   3.318   2.211 -0.5647 -0.5589  0.8706
   25MOL   O225 8913   2.172   3.174   2.185  0.0177 -0.2464 -0.0132
   25MOL   H226 8914   1.723   3.468   2.167 -0.7909  0.5062  0.2402
   25MOL   H227 8915   1.816   3.591   2.092  0.0708  0.3740 -0.4482
   25MOL   H228 8916   1.854   3.415   1.897  0.5471  0.4209  0.1404
   25MOL   H229 8917   1.740   3.311   1.975 -1.4232  0.1045  1.3848
   25MOL   H230 8918   1.923   3.217   2.062 -4.6770  0.2935  0.5368
   25MOL   H231 8919   1.873   3.306   2.180 -0.5536  0.5741 -0.3859
   25MOL   H232 8920   2.045   3.486   2.125  0.4765  0.1117 -1.4037
   25MOL   H233 8921   2.107   3.372   2.000 -0.9615 -2.3315  0.3075
   25MOL   H234 8922   2.236   3.373   2.206 -0.5697 -0.6284 -0.0907
   25MOL   H235 8923   2.091   3.336   2.306  1.5086 -3.0116  2.5420
   25MOL   C236 8924   2.280   3.121   2.261  0.5194  0.0131  0.2791
   25MOL   O237 8925   2.342   3.182   2.345  0.3957 -0.2551  0.2110
   25MOL   C238 8926   2.315   2.987   2.211  0.3353 -0.2906 -0.7786
   25MOL   C239 8927   2.438   2.929   2.281 -0.9361  0.4365 -0.1489
   25MOL   C240 8928   2.490   2.793   2.218  0.0455  0.0943 -0.2160
   25MOL   C241 8929   2.385   2.688   2.247 -0.0514  0.1594 -0.1203
   25MOL   C242 8930   2.419   2.550   2.176 -0.1163  0.3609 -0.3975
   25MOL   O243 8931   2.385   2.564   2.037 -0.0200 -0.0626  0.3755
   25MOL   H244 8932   2.323   2.984   2.102  0.4683  0.3906 -0.7890
   25MOL   H245 8933   2.228   2.923   2.228  1.4265 -1.2995  1.1662
   25MOL   H246 8934   2.421   2.912   2.387  0.3589 -1.1826 -0.1736
   25MOL   H247 8935   2.518   3.002   2.271 -1.9796  1.4681 -1.0271
   25MOL   H248 8936   2.588   2.789   2.265  2.0147  2.0360 -3.9774
   25MOL   H249 8937   2.510   2.795   2.111 -3.5511  0.8289 -0.9341
   25MOL   H250 8938   2.285   2.722   2.225  0.7478  1.8330 -1.2329
   25MOL   H251 8939   2.382   2.675   2.356 -0.2099  3.0628  0.2728
   25MOL   H252 8940   2.521   2.515   2.195 -0.2213 -0.3015 -1.0373
   25MOL   H253 8941   2.364   2.467   2.221 -0.5709 -0.2850 -2.1227
   25MOL   C254 8942   2.356   2.458   1.962 -0.1141 -0.0904  0.3606
   25MOL   O255 8943   2.359   2.339   1.996 -0.2075  0.2656  0.0388
   25MOL   C256 8944   2.321   2.491   1.814 -0.7240  0.0198 -0.1971
   25MOL   C257 8945   2.175   2.517   1.781  0.0931  0.4732  0.4916
   25MOL   C258 8946   2.108   2.644   1.839  0.4016 -0.4795 -0.5566
   25MOL   C259 8947   2.188   2.775   1.841  0.3014  0.2332 -0.2035
   25MOL   C260 8948   2.099   2.890   1.897 -0.0195  1.1634  0.2475
   25MOL   O261 8949   2.010   2.937   1.800  0.5544 -0.1967  0.1642
   25MOL   H262 8950   2.354   2.407   1.753  0.9112  1.4298 -1.2868
   25MOL   H263 8951   2.384   2.575   1.787  1.9508 -1.6823  0.5547
   25MOL   H264 8952   2.110   2.429   1.775  0.9938 -0.0718 -2.4334
   25MOL   H265 8953   2.187   2.527   1.673  0.4995 -0.5186  0.4392
   25MOL   H266 8954   2.085   2.627   1.944  0.9130 -0.5238 -0.4511
   25MOL   H267 8955   2.023   2.643   1.771  0.2220 -0.2056 -0.3399
   25MOL   H268 8956   2.220   2.808   1.743 -0.6549  1.4655 -0.1146
   25MOL   H269 8957   2.278   2.772   1.902  1.1843  1.9211 -1.3974
   25MOL   H270 8958   2.049   2.858   1.988  1.2185  1.6483  1.1209
   25MOL   H271 8959   2.170   2.964   1.936  1.0978 -0.2331  0.9166
   25MOL   C272 8960   1.891   2.977   1.831 -0.2010 -0.4712  1.2976
   25MOL   O273 8961   1.844   2.999   1.943 -0.9815 -0.3916  0.2643
   25MOL   C274 8962   1.809   3.003   1.704 -0.2842  0.3364 -0.1906
   25MOL   C275 8963   1.730   2.884   1.663 -0.1171  0.1236 -0.4135
   25MOL   C276 8964   1.615   2.843   1.757 -0.3048 -0.6672  0.5757
   25MOL   C277 8965   1.481   2.916   1.731  0.0378 -0.1110  0.6818
   25MOL   C278 8966   1.367   2.884   1.835  0.5642 -0.2643  0.1309
   25MOL   O279 8967   1.320   2.751   1.822 -0.3127 -0.4021 -0.1332
   25MOL   H280 8968   1.870   3.046   1.625 -0.5164 -0.0533 -0.5865
   25MOL   H281 8969   1.740   3.087   1.716 -0.5316  0.2583 -1.0579
   25MOL   H282 8970   1.795   2.796   1.665 -3.2014 -2.2925 -1.3067
   25MOL   H283 8971   1.682   2.882   1.565 -0.6623 -1.2768 -0.1328
   25MOL   H284 8972   1.651   2.857   1.859 -0.3294 -0.0755  0.5041
   25MOL   H285 8973   1.595   2.736   1.743  1.3993 -0.6822 -1.9851
   25MOL   H286 8974   1.443   2.893   1.631 -0.0771  0.5516  0.5742
   25MOL   H287 8975   1.505   3.022   1.729 -0.5687  0.0158 -2.8144
   25MOL   H288 8976   1.411   2.893   1.935 -0.6008  0.0908  0.6213
   25MOL   H289 8977   1.290   2.961   1.828  0.3804 -0.4012  0.6364
   25MOL   C290 8978   1.231   2.716   1.735  0.1954 -0.5472 -0.0810
   25MOL   O291 8979   1.188   2.785   1.642 -0.3119  0.4054 -0.4304
   25MOL   C292 8980   1.178   2.565   1.750 -0.3227  0.2016 -0.6321
   25MOL   C293 8981   1.284   2.458   1.752 -0.4550  0.6395  1.1306
   25MOL   C294 8982   1.232   2.326   1.679  0.5175  0.3006  0.0352
   25MOL   C295 8983   1.340   2.217   1.669 -0.5013  0.1219 -0.7275
   25MOL   C296 8984   1.302   2.099   1.579 -0.6389  0.4359  0.7645
   25MOL   O297 8985   1.279   2.139   1.448  0.2192  0.7063 -0.3665
   25MOL   H298 8986   1.102   2.537   1.677 -2.5535  0.2325  1.6003
   25MOL   H299 8987   1.118   2.570   1.841  0.6625 -0.6538  0.0583
   25MOL   H300 8988   1.317   2.437   1.854 -1.8557  0.0339  1.4684
   25MOL   H301 8989   1.375   2.482   1.698 -1.8067 -1.6347 -2.3074
   25MOL   H302 8990   1.184   2.363   1.588  1.8310 -0.7254 -1.1062
   25MOL   H303 8991   1.149   2.283   1.733 -1.6292  1.7261 -2.0064
   25MOL   H304 8992   1.363   2.184   1.770  0.1029  0.0401 -0.8915
   25MOL   H305 8993   1.438   2.258   1.644 -1.3632  3.0699  0.4996
   25MOL   H306 8994   1.386   2.032   1.597 -0.3160  0.8647  0.8653
   25MOL   H307 8995   1.221   2.039   1.620 -1.0207 -0.0292 -0.6364
   25MOL   C308 8996   1.258   2.065   1.345  0.4086  0.0059  0.3778
   25MOL   O309 8997   1.276   1.940   1.347  0.3160  0.2650  0.1033
   25MOL   C310 8998   1.233   2.141   1.218  0.0210 -0.1721 -0.2258
   25MOL   C311 8999   1.200   2.063   1.091 -0.0770  0.0388 -0.0723
   25MOL   C312 9000   1.313   1.973   1.028  0.0324  0.1640 -0.2612
   25MOL   C313 9001   1.261   1.890   0.907 -0.0742 -0.4039 -0.1975
   25MOL   C314 9002   1.351   1.774   0.866 -0.7244  0.3628  0.0617
   25MOL   O315 9003   1.268   1.682   0.791  0.3302 -0.8073  0.1118
   25MOL   H316 9004   1.328   2.194   1.213 -0.4746  0.7409  0.0303
   25MOL   H317 9005   1.168   2.225   1.240  2.9154  1.4402  2.5934
   25MOL   H318 9006   1.175   2.134   1.013 -0.4606 -0.3889 -0.3348
   25MOL   H319 9007   1.115   1.998   1.110 -0.4443  0.7952  0.8960
   25MOL   H320 9008   1.369   1.916   1.103  1.9782 -1.8590 -3.1468
   25MOL   H321 9009   1.391   2.044   1.001 -1.2653  1.2364 -1.2666
   25MOL   H322 9010   1.257   1.951   0.817 -0.4366  2.2808  1.5702
   25MOL   H323 9011   1.164   1.854   0.938  0.0580 -0.0933  0.6078
   25MOL   H324 9012   1.430   1.802   0.797  0.5770 -0.3500  1.2372
   25MOL   H325 9013   1.397   1.728   0.953  0.7921 -2.3297 -2.0617
   25MOL   C326 9014   1.255   1.702   0.665  0.0509 -0.3271  0.3646
   25MOL   O327 9015   1.296   1.802   0.599 -0.3466  0.0167 -0.2741
   25MOL   C328 9016   1.183   1.586   0.599 -0.3146 -0.2542 -0.5913
   25MOL   C329 9017   1.025   1.595   0.610  0.5083  0.3810  0.1058
   25MOL   C330 9018   0.975   1.546   0.745 -0.1562  0.0597 -0.1879
   25MOL   C331 9019   1.005   1.398   0.775 -0.1293  0.0788 -0.0800
   25MOL   C332 9020   0.960   1.376   0.920 -0.2265  1.2503  0.0087
   25MOL   O333 9021   1.049   1.426   1.016 -0.4510 -0.1422  0.3192
   25MOL   H334 9022   1.225   1.492   0.633 -2.0401 -0.4009  1.2537
   25MOL   H335 9023   1.194   1.593   0.490 -0.2663 -2.0327 -0.7173
   25MOL   H336 9024   0.989   1.533   0.529 -1.0546  0.2356  0.8896
   25MOL   H337 9025   1.011   1.703   0.602  0.3860  0.6590  3.2307
   25MOL   H338 9026   0.868   1.566   0.733 -0.6646 -0.2854  3.3131
   25MOL   H339 9027   1.012   1.602   0.830  0.6730 -2.3004  1.0559
   25MOL   H340 9028   1.112   1.379   0.772  0.0739  1.5099 -2.8448
   25MOL   H341 9029   0.953   1.336   0.702 -0.8321  0.8238 -0.2189
   25MOL   H342 9030   0.859   1.414   0.935 -0.8084 -0.2554 -0.0919
   25MOL   H343 9031   0.953   1.268   0.933  2.6794  1.0717  0.4429
   25MOL   C344 9032   1.154   1.358   1.052  0.0365 -0.1541  0.1553
   25MOL   O345 9033   1.179   1.250   1.003  0.7088  0.2629  0.6516
   25MOL   C346 9034   1.241   1.404   1.159  0.3207 -0.4377  0.3969
   25MOL   C347 9035   1.234   1.554   1.166 -0.0290  0.5864 -1.1558
   25MOL   C348 9036   1.344   1.620   1.250 -0.4930  0.5374  0.4060
   25MOL   C349 9037   1.350   1.574   1.398 -0.1202 -0.0953 -0.3699
   25MOL   C350 9038   1.452   1.650   1.495  0.2296  0.2685 -0.5447
   25MOL   O351 9039   1.386   1.766   1.543  0.6235 -0.2573 -0.1738
   25MOL   H352 9040   1.343   1.372   1.137 -0.0366  0.2279 -2.3657
   25MOL   H353 9041   1.219   1.360   1.257 -0.1892  1.7402  1.2863
   25MOL   H354 9042   1.137   1.595   1.195 -0.7024 -2.0304  0.4337
   25MOL   H355 9043   1.251   1.593   1.065  0.7652  1.1385 -0.8184
   25MOL   H356 9044   1.340   1.728   1.240  1.0841  0.5061 -0.7350
   25MOL   H357 9045   1.444   1.604   1.211 -0.1801 -0.7930  1.6769
   25MOL   H358 9046   1.355   1.466   1.409 -0.1520 -0.2596 -1.8841
   25MOL   H359 9047   1.249   1.592   1.437 -0.6496 -0.1016 -1.7080
   25MOL   H360 9048   1.469   1.583   1.580 -0.1549 -0.2411 -0.8732
   25MOL   H361 9049   1.552   1.672   1.456  0.2492  1.7038  0.2768
   25MOL   H362 9050   1.346   1.810   1.470  1.3731 -0.6011 -0.7940
   26MOL     C1 9051   7.002   2.997   5.878  0.6056  0.9080 -0.5334
   26MOL     O2 9052   6.941   3.092   5.919 -0.6331 -0.1409  0.2285
   26MOL     C3 9053   7.139   3.007   5.819  0.3293 -0.5053  0.3620
   26MOL     C4 9054   7.216   3.144   5.837 -0.4666  0.3720 -0.4879
   26MOL     C5 9055   7.281   3.167   5.976 -0.0825  0.0999 -0.1808
   26MOL     C6 9056   7.383   3.285   5.982  0.4825 -0.6717  0.1131
   26MOL     C7 9057   7.448   3.319   6.119 -0.4928  1.2108  0.5515
   26MOL     O8 9058   7.504   3.198   6.169 -0.5757 -0.2781  0.0802
   26MOL     H9 9059   7.122   2.992   5.713  0.5608  1.2481  0.0645
   26MOL    H10 9060   7.206   2.926   5.849  0.9311 -0.3363 -0.5249
   26MOL    H11 9061   7.144   3.226   5.829  0.8653  1.5261 -0.8014
   26MOL    H12 9062   7.289   3.158   5.758  0.2533  0.0628  0.1083
   26MOL    H13 9063   7.337   3.078   6.004 -0.4245 -0.4387 -1.1634
   26MOL    H14 9064   7.202   3.190   6.048  0.6525 -0.4858  0.8173
   26MOL    H15 9065   7.332   3.371   5.940  1.0332  0.2252  1.2621
   26MOL    H16 9066   7.458   3.268   5.904 -0.2038  2.3431 -1.2580
   26MOL    H17 9067   7.527   3.390   6.096  1.8436 -1.9538 -1.4337
   26MOL    H18 9068   7.382   3.373   6.188  0.0145  1.5721  0.7532
   26MOL    H19 9069   6.958   2.899   5.900 -0.2696  1.0130 -1.7729
   26MOL    C20 9070   7.574   3.205   6.289 -0.4384  0.0374 -0.1859
   26MOL    O21 9071   7.574   3.304   6.362 -0.0639 -0.1656  0.2880
   26MOL    C22 9072   7.654   3.085   6.322 -0.1055 -0.5493 -0.3513
   26MOL    C23 9073   7.754   3.049   6.209 -0.4370  0.5521 -0.3417
   26MOL    C24 9074   7.836   2.919   6.253  1.0484 -0.2071 -0.1536
   26MOL    C25 9075   0.110   2.882   6.156 -0.2083 -0.1930 -0.5410
   26MOL    C26 9076   0.168   2.741   6.192 -0.3316 -0.4359  0.4719
   26MOL    O27 9077   0.221   2.736   6.325  0.3907 -0.2727  0.1777
   26MOL    H28 9078   7.574   3.013   6.338  0.9449 -1.5467  0.4971
   26MOL    H29 9079   7.703   3.095   6.419  1.1710  0.9423 -1.1276
   26MOL    H30 9080   7.818   3.138   6.209  1.2901 -0.6733  0.0208
   26MOL    H31 9081   7.708   3.050   6.110 -0.7053  2.4876 -0.2207
   26MOL    H32 9082   7.767   2.836   6.269 -0.3572  0.7119 -1.3150
   26MOL    H33 9083   0.032   2.939   6.352 -0.6814  1.5535  0.2280
   26MOL    H34 9084   0.200   2.944   6.158 -2.1147  2.6715  1.1786
   26MOL    H35 9085   0.081   2.885   6.051 -0.7446 -0.3907 -0.4005
   26MOL    H36 9086   0.090   2.667   6.180 -0.9115 -0.0864  2.0327
   26MOL    H37 9087   0.250   2.723   6.122 -0.5914  1.5034 -0.3726
   26MOL    C38 9088   0.260   2.627   6.385  0.2470 -0.5569 -0.8965
   26MOL    O39 9089   0.241   2.515   6.333 -0.2240 -0.2677 -0.2253
   26MOL    C40 9090   0.329   2.633   6.517  0.1688 -0.1033 -0.4282
   26MOL    C41 9091   0.366   2.500   6.582 -0.4130 -0.4562 -0.6041
   26MOL    C42 9092   0.494   2.429   6.522  0.5492  0.3329  0.1449
   26MOL    C43 9093   0.505   2.290   6.583 -0.9103 -0.4210  0.7427
   26MOL    C44 9094   0.616   2.205   6.505 -0.0664  0.4953  0.0440
   26MOL    O45 9095   0.668   2.095   6.574  0.2692  0.5872 -0.2609
   26MOL    H46 9096   0.258   2.697   6.570 -0.1136 -0.1824 -0.7089
   26MOL    H47 9097   0.417   2.695   6.500  1.0605 -0.8506  1.3322
   26MOL    H48 9098   0.283   2.430   6.569  0.0153 -0.9985 -0.4380
   26MOL    H49 9099   0.366   2.509   6.690 -0.0994  0.8023 -0.7088
   26MOL    H50 9100   0.583   2.491   6.535  0.9801 -0.2910  0.2169
   26MOL    H51 9101   0.490   2.414   6.414 -0.0178  1.4314  0.0049
   26MOL    H52 9102   0.407   2.243   6.576 -0.7135 -0.8900  1.1213
   26MOL    H53 9103   0.535   2.289   6.688 -0.3502  1.6375  0.6167
   26MOL    H54 9104   0.566   2.159   6.420  1.3545 -0.6669 -0.1603
   26MOL    H55 9105   0.699   2.268   6.475  0.5025 -1.9287 -3.6585
   26MOL    C56 9106   0.772   2.024   6.524 -0.7386  0.4225  0.2058
   26MOL    O57 9107   0.848   2.074   6.438 -0.0822 -0.3013  0.0172
   26MOL    C58 9108   0.794   1.892   6.603  0.4157 -0.2160 -0.1572
   26MOL    C59 9109   0.918   1.810   6.552  0.8432 -0.1110  0.0727
   26MOL    C60 9110   0.931   1.679   6.636  1.0960 -0.4831  0.0886
   26MOL    C61 9111   1.055   1.599   6.595 -0.4677  0.6184 -0.1725
   26MOL    C62 9112   1.050   1.456   6.641  0.1806  0.7448 -0.9923
   26MOL    O63 9113   1.066   1.407   6.778 -0.3029  0.2704  0.3990
   26MOL    H64 9114   0.706   1.829   6.592 -0.3168  0.7057  0.4165
   26MOL    H65 9115   0.807   1.931   6.704 -1.1218  2.3368 -0.8977
   26MOL    H66 9116   1.005   1.871   6.578  0.7702 -0.3316  0.8424
   26MOL    H67 9117   0.919   1.788   6.446 -2.2687  0.7795 -0.1976
   26MOL    H68 9118   0.847   1.614   6.614  0.4038  1.0264 -1.9261
   26MOL    H69 9119   0.933   1.708   6.741  0.1124  1.0006 -0.2876
   26MOL    H70 9120   1.146   1.653   6.624  0.2184 -0.8333  0.4142
   26MOL    H71 9121   1.048   1.596   6.487 -3.4159 -0.6259  0.0024
   26MOL    H72 9122   0.956   1.418   6.601 -0.4608 -0.0394  1.1837
   26MOL    H73 9123   1.123   1.404   6.579  0.9523  1.3479 -0.6052
   26MOL    C74 9124   1.048   1.280   6.814  0.5007  0.1767  0.1595
   26MOL    O75 9125   0.995   1.198   6.742  0.2230 -0.0024  1.2241
   26MOL    C76 9126   1.088   1.253   6.963  0.7918 -0.3592  0.1096
   26MOL    C77 9127   1.245   1.255   6.992 -0.0498  0.4117 -0.0034
   26MOL    C78 9128   1.309   1.391   7.001 -0.2427  0.0465  0.5835
   26MOL    C79 9129   1.462   1.385   7.041  0.0898 -0.2702  0.1799
   26MOL    C80 9130   1.538   1.511   7.067  0.0587  0.2468  0.8549
   26MOL    O81 9131   1.462   1.620   7.129 -0.1516  0.2755 -0.1037
   26MOL    H82 9132   1.038   1.159   6.983  1.6600 -0.8504  0.0003
   26MOL    H83 9133   1.047   1.327   7.032 -2.0108  0.5991 -2.4951
   26MOL    H84 9134   1.292   1.189   6.919 -0.3056  0.5947 -0.3322
   26MOL    H85 9135   1.246   1.210   7.091 -3.7053 -0.5441 -0.3596
   26MOL    H86 9136   1.267   1.450   7.083  1.2629 -1.1232  2.2455
   26MOL    H87 9137   1.295   1.447   6.909  0.9787 -0.5785  0.0054
   26MOL    H88 9138   1.520   1.333   6.965 -1.0230 -1.5963  0.2302
   26MOL    H89 9139   1.458   1.331   7.135  1.2887  0.5295  0.6966
   26MOL    H90 9140   1.625   1.488   7.130  1.4263  0.4916 -0.9021
   26MOL    H91 9141   1.588   1.549   6.978  3.4930  0.1827  2.6423
   26MOL    C92 9142   1.447   1.615   7.263  0.6663  0.3115 -0.3857
   26MOL    O93 9143   1.484   1.526   7.339 -0.2492  0.3263 -0.2005
   26MOL    C94 9144   1.376   1.743   7.312  0.4884 -0.1982 -0.4622
   26MOL    C95 9145   1.391   1.761   7.462 -0.4289  0.0422 -0.4621
   26MOL    C96 9146   1.357   1.909   7.486 -0.9394  0.3260  0.0572
   26MOL    C97 9147   1.338   1.939   7.634 -0.2664  0.3751  0.0392
   26MOL    C98 9148   1.265   2.068   7.654 -0.1479 -0.5171 -0.4558
   26MOL    O99 9149   1.355   2.180   7.628  0.2370 -0.0448 -0.2074
   26MOL   H100 9150   1.269   1.745   7.293  0.7420  1.4939 -1.7976
   26MOL   H101 9151   1.412   1.829   7.257  2.4432  0.3634  1.6056
   26MOL   H102 9152   1.494   1.734   7.485 -1.6720 -3.2147  1.5488
   26MOL   H103 9153   1.324   1.700   7.522  4.6356 -3.6702  1.7326
   26MOL   H104 9154   1.264   1.948   7.444 -2.0696 -1.6010  0.6950
   26MOL   H105 9155   1.439   1.966   7.444 -0.8969 -0.2717 -0.6729
   26MOL   H106 9156   1.429   1.935   7.694 -0.6329 -1.9585  0.4738
   26MOL   H107 9157   1.270   1.867   7.679  0.1095  0.4523  0.7412
   26MOL   H108 9158   1.171   2.079   7.599  0.4172 -2.0034 -1.7411
   26MOL   H109 9159   1.235   2.085   7.758  1.8415  0.6348 -0.0441
   26MOL   C110 9160   1.324   2.299   7.669 -0.4785 -1.5064 -0.2002
   26MOL   O111 9161   1.221   2.331   7.727 -0.0912  0.1373 -0.3875
   26MOL   C112 9162   1.441   2.400   7.641 -0.5351 -0.6510  0.0256
   26MOL   C113 9163   1.475   2.415   7.489 -0.4983 -0.9832  0.1849
   26MOL   C114 9164   1.598   2.325   7.455 -0.2019  0.2094 -0.0673
   26MOL   C115 9165   1.619   2.316   7.304 -0.7203 -0.5558 -0.3981
   26MOL   C116 9166   1.744   2.235   7.260  0.9120 -0.0575 -0.3424
   26MOL   O117 9167   1.723   2.090   7.259  0.0460  0.0783 -0.1116
   26MOL   H118 9168   1.530   2.372   7.698 -0.9630 -1.2495  0.4069
   26MOL   H119 9169   1.419   2.498   7.684  0.0521 -0.9392  1.0133
   26MOL   H120 9170   1.481   2.520   7.462 -1.6846 -1.1089 -0.5785
   26MOL   H121 9171   1.390   2.376   7.434  1.0725 -1.2205 -2.1206
   26MOL   H122 9172   1.584   2.225   7.497 -3.0437  0.9092  0.8397
   26MOL   H123 9173   1.684   2.349   7.517  0.2754 -2.1036  0.2250
   26MOL   H124 9174   1.643   2.417   7.273  0.1835 -1.2211 -1.9392
   26MOL   H125 9175   1.534   2.273   7.251 -0.0577 -0.7543 -1.3251
   26MOL   H126 9176   1.768   2.264   7.157 -0.4794  1.1499 -0.3535
   26MOL   H127 9177   1.831   2.273   7.313 -0.2196  1.1112  0.7139
   26MOL   C128 9178   1.775   2.020   7.355  0.1241  0.2136  0.5748
   26MOL   O129 9179   1.833   2.069   7.449 -0.0733  0.2015  0.2315
   26MOL   C130 9180   1.742   1.873   7.350  0.6448  0.5560  0.3930
   26MOL   C131 9181   1.864   1.784   7.323 -0.7205 -0.7892  0.3486
   26MOL   C132 9182   1.818   1.640   7.290 -0.5295 -0.3586 -0.1495
   26MOL   C133 9183   1.935   1.544   7.276 -0.3922 -0.5276 -0.0317
   26MOL   C134 9184   1.903   1.413   7.208  0.1618  0.2030  0.5310
   26MOL   O135 9185   1.810   1.340   7.290 -0.0156 -0.5395  0.6138
   26MOL   H136 9186   1.675   1.860   7.265  1.3304 -1.1246  0.0916
   26MOL   H137 9187   1.686   1.847   7.440 -0.5218  0.0935 -0.4540
   26MOL   H138 9188   1.929   1.787   7.410  0.3807  0.8275 -0.4944
   26MOL   H139 9189   1.935   1.814   7.246 -1.2696 -0.2929  0.0240
   26MOL   H140 9190   1.761   1.645   7.197  1.2296  1.4398 -1.1731
   26MOL   H141 9191   1.736   1.596   7.347 -2.7141  1.2293 -1.9806
   26MOL   H142 9192   1.973   1.519   7.376 -0.0052 -1.0252 -0.3036
   26MOL   H143 9193   2.016   1.600   7.230  0.0120  0.0959  1.4083
   26MOL   H144 9194   1.865   1.448   7.112 -2.2955 -4.2470 -0.2469
   26MOL   H145 9195   1.995   1.359   7.186  1.4872  2.6099 -0.0852
   26MOL   C146 9196   1.805   1.209   7.291 -0.4607 -0.3184 -0.0040
   26MOL   O147 9197   1.874   1.136   7.216 -0.8100  0.0309 -0.6049
   26MOL   C148 9198   1.701   1.142   7.382  0.1638  0.1550 -0.6232
   26MOL   C149 9199   1.721   1.173   7.534 -0.2450  0.1524 -0.6134
   26MOL   C150 9200   1.655   1.311   7.571 -0.0376  0.5850  0.1175
   26MOL   C151 9201   1.624   1.309   7.717  0.6359 -0.0789  0.2829
   26MOL   C152 9202   1.564   1.447   7.761 -0.3477  0.4475  0.2351
   26MOL   O153 9203   1.661   1.544   7.788 -0.5311 -0.0056 -0.2678
   26MOL   H154 9204   1.711   1.035   7.366  1.8868  0.5294 -2.2299
   26MOL   H155 9205   1.608   1.189   7.348  0.3390  0.1250 -1.1388
   26MOL   H156 9206   1.824   1.183   7.567 -0.4786 -1.1054  0.5331
   26MOL   H157 9207   1.690   1.095   7.604  1.6663 -1.8272 -1.9035
   26MOL   H158 9208   1.561   1.325   7.518  0.0301 -1.1730 -0.4948
   26MOL   H159 9209   1.718   1.397   7.550 -0.0281  0.1262 -1.8515
   26MOL   H160 9210   1.711   1.277   7.776  0.9670 -3.2692 -1.7757
   26MOL   H161 9211   1.552   1.230   7.738 -0.1785  0.6928  0.4073
   26MOL   H162 9212   1.503   1.482   7.677  0.2259  1.3674  0.1984
   26MOL   H163 9213   1.503   1.441   0.007  0.4909 -0.5016  0.7495
   26MOL   C164 9214   1.632   1.669   7.801 -0.3627 -0.3962 -0.1300
   26MOL   O165 9215   1.525   1.718   7.779 -0.1243 -0.0346  0.1295
   26MOL   C166 9216   1.754   1.753   7.843  0.3418 -0.9585 -0.1677
   26MOL   C167 9217   1.832   1.797   7.710 -0.0439 -0.0656  0.2197
   26MOL   C168 9218   1.939   1.897   7.732 -0.5764  0.1594  0.2067
   26MOL   C169 9219   1.916   2.021   7.813 -0.7046 -0.6127  0.1621
   26MOL   C170 9220   2.034   2.116   7.841 -0.4173  0.2547 -0.8288
   26MOL   O171 9221   2.160   2.066   0.038 -0.1615  0.2172  0.1146
   26MOL   H172 9222   1.826   1.710   0.068 -1.0121 -2.8135  0.1364
   26MOL   H173 9223   1.705   1.840   0.042  0.9573 -0.6895 -0.0034
   26MOL   H174 9224   1.758   1.832   7.638 -0.0433  0.5964  0.5390
   26MOL   H175 9225   1.873   1.705   7.668 -2.1358  0.2769 -2.7617
   26MOL   H176 9226   1.979   1.928   7.636 -2.9182 -1.3530 -1.3030
   26MOL   H177 9227   2.018   1.852   7.792  0.1090  0.2780 -0.5962
   26MOL   H178 9228   1.871   1.996   0.065 -2.0463 -0.7610 -0.4985
   26MOL   H179 9229   1.840   2.087   7.772 -0.6144  0.5005  1.7332
   26MOL   H180 9230   2.042   2.172   7.747  0.2440  0.6252 -0.5538
   26MOL   H181 9231   2.002   2.180   0.080 -0.5809 -1.9386  0.8224
   26MOL   C182 9232   2.164   2.026   0.168 -0.1618  0.2458  0.1274
   26MOL   O183 9233   2.066   2.018   0.247  0.0708 -0.4895 -0.5064
   26MOL   C184 9234   2.305   1.988   0.212  0.0264  0.6246 -0.1899
   26MOL   C185 9235   2.363   1.864   0.137 -0.7430 -0.1191 -0.4791
   26MOL   C186 9236   2.507   1.847   0.160 -0.0199 -0.3301 -0.5428
   26MOL   C187 9237   2.542   1.771   0.281 -0.0649 -1.2467  0.3259
   26MOL   C188 9238   2.687   1.792   0.337 -0.7209  0.2583  0.3991
   26MOL   O189 9239   2.713   1.916   0.392 -0.5009  0.2234  0.1489
   26MOL   H190 9240   2.293   1.980   0.320 -1.4833 -0.0962 -0.4006
   26MOL   H191 9241   2.366   2.074   0.185 -1.3528  1.2473 -1.3776
   26MOL   H192 9242   2.355   1.853   0.029  2.6441  0.3226 -0.8237
   26MOL   H193 9243   2.312   1.777   0.178  0.4418 -0.4172  0.3763
   26MOL   H194 9244   2.544   1.949   0.164 -2.8199  0.6944  0.5246
   26MOL   H195 9245   2.561   1.804   0.075  0.6521 -0.9598  0.2010
   26MOL   H196 9246   2.532   1.664   0.265  0.2501 -1.0426 -1.3417
   26MOL   H197 9247   2.475   1.794   0.363 -0.7531 -0.2896 -0.4819
   26MOL   H198 9248   2.705   1.717   0.413 -1.2377 -2.0439 -1.7025
   26MOL   H199 9249   2.757   1.767   0.258 -1.3980 -1.4888  0.3492
   26MOL   C200 9250   2.783   2.015   0.320 -0.4671  0.8564 -0.1347
   26MOL   O201 9251   2.837   1.996   0.208 -0.1330  0.0228 -0.0335
   26MOL   C202 9252   2.792   2.145   0.394  0.0557  0.3262  0.0077
   26MOL   C203 9253   2.662   2.201   0.441  0.1383 -0.2369 -0.3754
   26MOL   C204 9254   2.570   2.253   0.327 -0.7259 -0.1149  0.0884
   26MOL   C205 9255   2.627   2.384   0.268 -0.0661 -0.2839  0.0687
   26MOL   C206 9256   2.547   2.452   0.158  0.1265  1.1409  0.0055
   26MOL   O207 9257   2.411   2.494   0.187  0.6261  0.2409 -0.1527
   26MOL   H208 9258   2.827   2.226   0.330  1.2260  0.3558  0.6812
   26MOL   H209 9259   2.850   2.133   0.485 -0.1818  0.9292  0.2399
   26MOL   H210 9260   2.670   2.271   0.524  0.3091 -2.1413  1.2444
   26MOL   H211 9261   2.611   2.112   0.478  1.5569 -0.5390  0.8853
   26MOL   H212 9262   2.485   2.283   0.389 -1.5367 -0.6064 -0.7682
   26MOL   H213 9263   2.547   2.192   0.240 -0.0789 -1.0352  0.5614
   26MOL   H214 9264   2.727   2.361   0.230  1.1726  0.7488  2.5913
   26MOL   H215 9265   2.633   2.461   0.346  0.4951 -0.7541  0.4955
   26MOL   H216 9266   2.595   2.545   0.126  1.5269  1.1006  1.8673
   26MOL   H217 9267   2.554   2.393   0.068 -0.4463 -0.1099  0.7722
   26MOL   C218 9268   2.307   2.412   0.159 -0.4402 -0.0404  0.5486
   26MOL   O219 9269   2.318   2.301   0.109 -0.4522 -1.0273  0.3762
   26MOL   C220 9270   2.178   2.465   0.217  0.6959  0.3175  0.0196
   26MOL   C221 9271   2.112   2.372   0.319  0.6641  1.0062 -0.2797
   26MOL   C222 9272   2.209   2.318   0.427  0.3108 -0.5971 -0.1229
   26MOL   C223 9273   2.141   2.268   0.554 -0.4014  0.3304  0.3131
   26MOL   C224 9274   2.245   2.227   0.653 -0.6813  0.3402  0.4338
   26MOL   O225 9275   2.192   2.145   0.755  0.4209  0.2965 -0.4804
   26MOL   H226 9276   2.113   2.484   0.132 -1.1896 -1.0495  1.0946
   26MOL   H227 9277   2.194   2.567   0.251 -5.0516  2.0688 -1.9719
   26MOL   H228 9278   2.056   2.294   0.267 -1.0411  0.2890  2.4928
   26MOL   H229 9279   2.039   2.420   0.385 -0.3291 -1.0566  0.1705
   26MOL   H230 9280   2.272   2.396   0.469 -2.6723 -0.0568  3.6040
   26MOL   H231 9281   2.270   2.235   0.391  0.4702 -0.2726 -0.6008
   26MOL   H232 9282   2.078   2.188   0.514  1.3727 -1.5303  1.1660
   26MOL   H233 9283   2.066   2.336   0.597 -0.1585  1.2263 -0.6448
   26MOL   H234 9284   2.313   2.160   0.601  0.1019  0.7158  0.9748
   26MOL   H235 9285   2.306   2.306   0.696  0.5708  0.0821 -0.8605
   26MOL   C236 9286   2.138   2.204   0.860  0.3406 -0.6309  0.4030
   26MOL   O237 9287   2.129   2.327   0.871 -0.3620 -0.3343  0.0640
   26MOL   C238 9288   2.097   2.097   0.962 -0.0043 -0.2272 -0.2048
   26MOL   C239 9289   2.219   2.042   1.047  0.3647 -0.4137  0.7575
   26MOL   C240 9290   2.180   1.969   1.174  0.0704 -0.0549  0.4824
   26MOL   C241 9291   2.297   1.941   1.265  0.1009 -0.4562  0.2233
   26MOL   C242 9292   2.246   1.896   1.404  0.4588  0.6112 -0.2558
   26MOL   O243 9293   2.196   2.009   1.474  0.6665  0.4800 -0.5655
   26MOL   H244 9294   2.055   2.012   0.908  0.5016 -2.1948  2.3592
   26MOL   H245 9295   2.012   2.137   1.016  0.9756  0.1595  1.0806
   26MOL   H246 9296   2.282   2.128   1.074 -0.9319  0.8090 -0.0451
   26MOL   H247 9297   2.276   1.969   0.991 -0.3835 -1.6407  1.5695
   26MOL   H248 9298   2.129   1.878   1.141 -0.7032  0.8567 -0.8909
   26MOL   H249 9299   2.104   2.022   1.231 -0.2816 -0.1106  0.0741
   26MOL   H250 9300   2.356   2.032   1.266 -2.8043  1.4834  1.4058
   26MOL   H251 9301   2.362   1.870   1.214 -1.6706 -1.8287 -0.1638
   26MOL   H252 9302   2.171   1.817   1.400  0.9177  0.1892 -0.7412
   26MOL   H253 9303   2.330   1.848   1.454 -1.0661 -1.7025  0.1696
   26MOL   C254 9304   2.063   2.013   1.508 -0.0978  0.3262  0.0470
   26MOL   O255 9305   1.979   1.936   1.459  0.3074  0.4532  0.2064
   26MOL   C256 9306   2.029   2.122   1.608  0.5048  0.4609  0.3295
   26MOL   C257 9307   2.010   2.066   1.745  0.6855 -0.7832  0.1842
   26MOL   C258 9308   2.133   2.072   1.835  0.2208 -0.2008  0.2692
   26MOL   C259 9309   2.115   2.029   1.985 -0.6402  0.6854  0.0126
   26MOL   C260 9310   2.244   2.014   2.073 -0.3239  0.5447  0.2640
   26MOL   O261 9311   2.304   1.896   2.020  0.0974 -0.3207 -0.5891
   26MOL   H262 9312   1.937   2.171   1.575 -0.3758 -1.0874  0.4181
   26MOL   H263 9313   2.109   2.195   1.602  1.4905 -0.5845  0.5433
   26MOL   H264 9314   1.972   1.964   1.747 -0.7123 -0.2613  0.8138
   26MOL   H265 9315   1.925   2.116   1.790 -2.0995 -1.7730 -3.7638
   26MOL   H266 9316   2.155   2.179   1.841 -0.9636  0.0879 -0.2307
   26MOL   H267 9317   2.218   2.016   1.798  1.8200  1.6717  1.0418
   26MOL   H268 9318   2.067   1.932   1.973  0.7497  0.0900 -0.8382
   26MOL   H269 9319   2.046   2.097   2.036  0.9348  0.9166  1.9043
   26MOL   H270 9320   2.313   2.098   2.074 -0.0470  0.3317 -0.9059
   26MOL   H271 9321   2.228   2.001   2.180 -1.3844  0.4920  0.0987
   26MOL   C272 9322   2.409   1.830   2.071 -0.0629  0.5690 -0.3841
   26MOL   O273 9323   2.453   1.841   2.183  0.9325 -0.2477 -0.0155
   26MOL   C274 9324   2.454   1.722   1.981 -0.3123  0.2429  0.7491
   26MOL   C275 9325   2.587   1.652   2.012  0.4579 -0.0338 -0.0409
   26MOL   C276 9326   2.637   1.528   1.933 -0.0760 -0.3323  0.0438
   26MOL   C277 9327   2.739   1.451   2.016 -0.0826  0.1045 -0.3875
   26MOL   C278 9328   2.747   1.311   1.970 -0.0876  0.1456 -0.4157
   26MOL   O279 9329   2.817   1.232   2.063  0.1232 -0.3778  0.4263
   26MOL   H280 9330   2.470   1.773   1.887 -2.9367 -0.5996 -0.2151
   26MOL   H281 9331   2.362   1.663   1.971 -2.1491  3.4439 -2.5813
   26MOL   H282 9332   2.574   1.622   2.116 -1.3599 -0.0848 -0.2742
   26MOL   H283 9333   2.662   1.731   2.022 -0.5977  0.6992  2.7167
   26MOL   H284 9334   2.673   1.557   1.834  0.9973  0.1130  0.5625
   26MOL   H285 9335   2.546   1.469   1.924  0.2488 -0.9981  1.1225
   26MOL   H286 9336   2.719   1.452   2.123  0.8817  0.1362 -0.1974
   26MOL   H287 9337   2.841   1.490   2.012  0.3134 -0.9694 -1.2383
   26MOL   H288 9338   2.647   1.268   1.955 -0.7453  1.7714 -0.7675
   26MOL   H289 9339   2.796   1.296   1.874 -1.3324 -0.4143 -0.9875
   26MOL   C290 9340   2.819   1.098   2.037 -0.2962  0.1100 -0.2099
   26MOL   O291 9341   2.783   1.043   1.932 -0.3066 -0.1978  0.4329
   26MOL   C292 9342   2.884   1.023   2.156  0.5078  0.8511  0.0303
   26MOL   C293 9343   2.810   1.045   2.297 -0.1755  0.1977  0.5392
   26MOL   C294 9344   2.658   1.002   2.320  0.3598  0.0379 -0.4189
   26MOL   C295 9345   2.605   1.058   2.451 -0.6866 -0.3628 -0.6431
   26MOL   C296 9346   2.471   0.996   2.506  0.5896  0.7253  0.1706
   26MOL   O297 9347   2.486   0.853   2.529  0.5284  0.0626 -0.6294
   26MOL   H298 9348   2.988   1.054   2.167  0.3059  1.9316 -1.0309
   26MOL   H299 9349   2.877   0.915   2.140 -2.1522  0.8809  0.7765
   26MOL   H300 9350   2.822   1.151   2.318 -1.1671  0.5825 -0.7954
   26MOL   H301 9351   2.870   0.992   2.371  0.8022 -1.1557 -1.1908
   26MOL   H302 9352   2.644   0.896   2.300  3.5103 -0.7691  1.3750
   26MOL   H303 9353   2.603   1.053   2.240 -0.8468 -1.8633 -0.8138
   26MOL   H304 9354   2.588   1.164   2.439 -0.3784 -0.0212  1.6778
   26MOL   H305 9355   2.684   1.054   2.526 -0.2003 -0.1636 -1.1364
   26MOL   H306 9356   2.439   1.044   2.599  0.6045  1.1652 -0.0490
   26MOL   H307 9357   2.385   1.006   2.440  1.0685  0.5163 -0.4895
   26MOL   C308 9358   2.545   0.806   2.630  0.3214  0.1330 -0.3131
   26MOL   O309 9359   2.602   0.876   2.712 -0.1048 -0.8958  0.3492
   26MOL   C310 9360   2.539   0.659   2.650  0.0688  0.2070 -0.0590
   26MOL   C311 9361   2.447   0.628   2.767 -0.4889 -0.2172 -0.3342
   26MOL   C312 9362   2.507   0.639   2.905 -0.4690 -0.2357  0.0533
   26MOL   C313 9363   2.407   0.604   3.025  0.8005 -0.4484 -0.8017
   26MOL   C314 9364   2.467   0.600   3.164  0.2790 -0.3912  0.3404
   26MOL   O315 9365   2.508   0.726   3.203  0.4482 -0.5878 -0.1689
   26MOL   H316 9366   2.643   0.628   2.655  0.9516  2.7546 -1.7322
   26MOL   H317 9367   2.484   0.624   2.562 -1.5633 -1.1670  1.4620
   26MOL   H318 9368   2.403   0.528   2.762 -1.0909  0.0523 -0.5349
   26MOL   H319 9369   2.369   0.704   2.773  0.5283  0.7654  0.6330
   26MOL   H320 9370   2.551   0.737   2.926  1.2017 -1.0062  0.1640
   26MOL   H321 9371   2.590   0.569   2.911 -0.2405  0.0284 -0.0169
   26MOL   H322 9372   2.359   0.509   2.999  0.0308  0.2704 -2.0492
   26MOL   H323 9373   2.325   0.676   3.027 -0.3857 -1.7957  0.5862
   26MOL   H324 9374   2.391   0.568   3.235 -1.3528  0.5894 -0.9048
   26MOL   H325 9375   2.550   0.531   3.159  2.7577  2.4801  0.7438
   26MOL   C326 9376   2.604   0.755   3.283 -0.6808 -0.2259  0.1011
   26MOL   O327 9377   2.679   0.672   3.332 -0.4822  0.0717  0.6405
   26MOL   C328 9378   2.627   0.904   3.291 -0.1974  0.6629 -0.1164
   26MOL   C329 9379   2.616   0.993   3.160 -0.0978 -0.4887 -0.3213
   26MOL   C330 9380   2.726   0.965   3.059 -0.7574 -0.1333 -0.7432
   26MOL   C331 9381   2.727   1.070   2.945  0.3340 -0.1390  0.1565
   26MOL   C332 9382   2.841   1.043   2.843 -0.3449 -0.4746 -0.1973
   26MOL   O333 9383   2.856   1.143   2.741  0.6154 -0.7041 -0.6970
   26MOL   H334 9384   2.722   0.934   3.336  0.2462 -1.0479  0.0982
   26MOL   H335 9385   2.557   0.946   3.363  0.5005 -1.7318  2.0201
   26MOL   H336 9386   2.632   1.096   3.191 -0.6758 -0.1739 -1.0342
   26MOL   H337 9387   2.512   0.996   3.127  0.6169  2.7340 -2.4798
   26MOL   H338 9388   2.710   0.866   3.015 -0.9453 -0.9635  1.1599
   26MOL   H339 9389   2.820   0.982   3.111 -0.7385 -0.0158 -0.8163
   26MOL   H340 9390   2.733   1.171   2.987  0.0246 -1.3248  3.1687
   26MOL   H341 9391   2.634   1.072   2.888  0.8453  2.3009 -0.6756
   26MOL   H342 9392   2.937   1.028   2.893  0.0141  1.1487 -0.3478
   26MOL   H343 9393   2.814   0.951   2.791 -1.3981  0.1224 -0.7266
   26MOL   C344 9394   2.942   1.238   2.751 -0.4119 -0.3053 -0.4801
   26MOL   O345 9395   2.993   1.259   2.859 -0.3754  0.2395 -0.0186
   26MOL   C346 9396   2.969   1.312   2.620  0.1473 -0.4329 -0.6650
   26MOL   C347 9397   2.881   1.436   2.611 -0.0172  0.4191 -0.0167
   26MOL   C348 9398   2.908   1.519   2.486 -0.5142  0.0940 -0.2881
   26MOL   C349 9399   2.838   1.652   2.490 -0.0456 -0.0674 -1.0586
   26MOL   C350 9400   2.838   1.715   2.357  0.1418 -0.4835 -0.9474
   26MOL   O351 9401   2.970   1.749   2.311 -0.5294 -0.0456  0.8470
   26MOL   H352 9402   2.969   1.247   2.533  1.8259 -0.5199 -0.6260
   26MOL   H353 9403   3.071   1.349   2.618 -0.4339  1.0968 -3.2164
   26MOL   H354 9404   2.913   1.501   2.693  0.1399 -0.6458  0.7711
   26MOL   H355 9405   2.773   1.422   2.616  0.4473 -3.3631  0.6924
   26MOL   H356 9406   2.866   1.474   2.396 -2.1662  0.1970  0.4014
   26MOL   H357 9407   3.014   1.540   2.483 -0.1519 -0.7349  3.7221
   26MOL   H358 9408   2.888   1.712   2.566 -1.0532 -1.5390  0.7897
   26MOL   H359 9409   2.737   1.646   2.530  0.9543  1.4692  1.7919
   26MOL   H360 9410   2.774   1.661   2.287  0.1716 -1.1580 -0.4580
   26MOL   H361 9411   2.781   1.809   2.362  2.1438  0.7430 -0.7919
   26MOL   H362 9412   2.996   1.672   2.264 -1.4342  1.0900 -1.5776
   27MOL     C1 9413   4.601   2.114   6.631 -0.5194 -0.4027  0.3379
   27MOL     O2 9414   4.665   2.093   6.529  0.0189 -0.3809 -0.0279
   27MOL     C3 9415   4.642   2.201   6.746 -0.2158  0.1317 -0.1780
   27MOL     C4 9416   4.611   2.351   6.712 -0.6192 -0.2555 -0.2341
   27MOL     C5 9417   4.634   2.437   6.840  0.5911  0.6568 -0.4188
   27MOL     C6 9418   4.670   2.580   6.803  0.0670  0.1548 -0.2348
   27MOL     C7 9419   4.713   2.671   6.923  0.6337  0.1264 -0.0247
   27MOL     O8 9420   4.834   2.624   6.982 -0.2432  0.2442 -0.1406
   27MOL     H9 9421   4.748   2.188   6.768 -0.3786 -0.9506 -0.0293
   27MOL    H10 9422   4.586   2.176   6.836  0.9411 -0.3982  0.4051
   27MOL    H11 9423   4.504   2.348   6.689 -0.3193  0.4092 -1.8145
   27MOL    H12 9424   4.673   2.393   6.632 -1.1411  0.9416 -0.0266
   27MOL    H13 9425   4.722   2.395   6.888  0.2859 -0.5923 -0.9250
   27MOL    H14 9426   4.547   2.434   6.905 -0.7562 -0.0690 -2.2265
   27MOL    H15 9427   4.582   2.629   6.761 -0.6012 -0.6900  0.1682
   27MOL    H16 9428   4.734   2.582   6.715 -0.7101  1.4319 -0.7796
   27MOL    H17 9429   4.740   2.772   6.891  1.1235  0.1531  0.4687
   27MOL    H18 9430   4.634   2.685   6.996  1.6483  1.1811  0.8999
   27MOL    H19 9431   4.507   2.062   6.652 -0.9615  0.3212  0.2022
   27MOL    C20 9432   4.861   2.657   7.101 -0.1122 -0.5533 -0.1438
   27MOL    O21 9433   4.808   2.740   7.174  0.6912  0.4053 -0.0795
   27MOL    C22 9434   4.977   2.573   7.149  0.5598 -0.3908  0.1278
   27MOL    C23 9435   4.971   2.487   7.266  0.4789  0.3086  0.4351
   27MOL    C24 9436   4.857   2.382   7.255  0.2905 -0.3062 -0.5517
   27MOL    C25 9437   4.872   2.284   7.141  0.7870  0.0362  0.8661
   27MOL    C26 9438   4.763   2.171   7.147 -0.9147 -0.3260  0.1555
   27MOL    O27 9439   4.641   2.212   7.095 -0.2671  0.0831 -0.8570
   27MOL    H28 9440   5.064   2.638   7.162 -0.0165  1.1024 -2.8987
   27MOL    H29 9441   4.999   2.508   7.065  1.4478  1.2760 -0.9702
   27MOL    H30 9442   4.958   2.551   7.353  0.3006  0.3740  0.3598
   27MOL    H31 9443   5.072   2.446   7.269 -0.4847 -2.0554  2.5714
   27MOL    H32 9444   4.757   2.426   7.257  0.1774 -0.5772  0.3629
   27MOL    H33 9445   4.847   2.320   7.345 -1.1963  0.0831 -0.4250
   27MOL    H34 9446   4.966   2.229   7.148  1.4768  1.2183  0.9937
   27MOL    H35 9447   4.876   2.335   7.044 -0.8519 -1.2235  0.1289
   27MOL    H36 9448   4.800   2.088   7.088 -1.5031 -0.9661  0.6840
   27MOL    H37 9449   4.763   2.134   7.250 -0.3844 -0.2024  0.2025
   27MOL    C38 9450   4.550   2.265   7.175 -0.1803  0.1602  0.3172
   27MOL    O39 9451   4.557   2.299   7.294  0.6306 -0.2881 -0.2410
   27MOL    C40 9452   4.407   2.267   7.115  0.4622  0.6322 -0.1639
   27MOL    C41 9453   4.310   2.141   7.148  0.9051  0.1942  0.1691
   27MOL    C42 9454   4.204   2.174   7.257  0.4169 -0.0960  0.7912
   27MOL    C43 9455   4.080   2.252   7.210 -0.1966 -0.0960  1.0563
   27MOL    C44 9456   3.979   2.309   7.313 -0.1124  0.4272 -0.1044
   27MOL    O45 9457   4.035   2.422   7.375 -0.1365  0.6378  0.2571
   27MOL    H46 9458   4.422   2.265   7.007 -0.6916 -0.9248 -0.3193
   27MOL    H47 9459   4.357   2.362   7.130 -1.7005 -0.5508  0.4021
   27MOL    H48 9460   4.375   2.055   7.162 -0.6360 -0.7095  2.0665
   27MOL    H49 9461   4.261   2.122   7.053  0.8352  0.5458  0.1328
   27MOL    H50 9462   4.246   2.224   7.344  0.7029 -1.1872  1.2887
   27MOL    H51 9463   4.162   2.082   7.298 -1.0275  0.4526  0.5712
   27MOL    H52 9464   4.016   2.187   7.150  0.7984  1.1498 -1.4244
   27MOL    H53 9465   4.112   2.326   7.137 -1.2706  0.1430  0.8157
   27MOL    H54 9466   3.887   2.332   7.260  1.1237 -1.4290 -3.1684
   27MOL    H55 9467   3.943   2.240   7.389  0.2324 -0.5798 -0.8500
   27MOL    C56 9468   3.974   2.469   7.475  0.3630 -0.0444 -0.7724
   27MOL    O57 9469   3.866   2.427   7.526  0.4810  0.0710  0.3046
   27MOL    C58 9470   4.042   2.595   7.534  0.3676  0.1620 -0.5654
   27MOL    C59 9471   3.977   2.727   7.504 -0.0964 -0.1624  0.5246
   27MOL    C60 9472   3.850   2.758   7.577  0.0794  0.2121  0.0920
   27MOL    C61 9473   3.802   2.904   7.548 -0.5194  0.5853 -0.2726
   27MOL    C62 9474   3.656   2.926   7.589 -0.5605  0.1413 -0.1715
   27MOL    O63 9475   3.635   2.925   7.723  0.4089 -0.3716  0.1065
   27MOL    H64 9476   4.140   2.595   7.486  1.2648 -2.6583  1.1349
   27MOL    H65 9477   4.062   2.567   7.637  0.0241  2.5304  0.1770
   27MOL    H66 9478   3.962   2.724   7.396  4.3277 -1.6983 -0.1641
   27MOL    H67 9479   4.052   2.805   7.518  0.7792 -1.2178  1.8785
   27MOL    H68 9480   3.865   2.745   7.684  1.4275 -0.0284 -0.1195
   27MOL    H69 9481   3.772   2.689   7.546 -0.2246 -0.1668  1.6450
   27MOL    H70 9482   3.808   2.936   7.444  0.9474  0.1302 -0.3288
   27MOL    H71 9483   3.868   2.968   7.606 -0.0168  1.3768 -1.6816
   27MOL    H72 9484   3.620   3.022   7.551 -0.7410  1.0209  2.0768
   27MOL    H73 9485   3.596   2.850   7.540 -1.1937  0.8254 -0.4524
   27MOL    C74 9486   3.576   2.816   7.776  0.1096 -0.0998  0.2806
   27MOL    O75 9487   3.523   2.721   7.716  0.0966  0.2768  0.4791
   27MOL    C76 9488   3.552   2.823   0.090 -0.1927 -0.3185  0.0457
   27MOL    C77 9489   3.660   2.902   0.163  0.3766 -0.6034 -0.4524
   27MOL    C78 9490   3.613   2.951   0.299  0.0624  0.2446 -0.3090
   27MOL    C79 9491   3.592   2.834   0.398  0.6188 -0.3784  0.1515
   27MOL    C80 9492   3.467   2.866   0.479 -0.6105 -0.0902  0.0521
   27MOL    O81 9493   3.357   2.841   0.397 -0.1153  0.5091 -0.1307
   27MOL    H82 9494   3.532   2.720   0.120  1.2233 -0.7656 -0.4974
   27MOL    H83 9495   3.456   2.873   0.104 -0.6188 -1.2708  0.5502
   27MOL    H84 9496   3.688   2.992   0.108  1.3306  0.0257  1.0214
   27MOL    H85 9497   3.752   2.845   0.175  0.1049 -1.1646 -1.0351
   27MOL    H86 9498   3.523   3.011   0.287 -0.1597 -0.2828 -1.3255
   27MOL    H87 9499   3.690   3.021   0.332 -1.0834  0.8360  1.2032
   27MOL    H88 9500   3.677   2.837   0.465  0.8816 -0.0303 -0.1924
   27MOL    H89 9501   3.576   2.744   0.338  0.8090  0.3303 -0.9855
   27MOL    H90 9502   3.438   2.818   0.572  0.7272 -0.6612  0.1946
   27MOL    H91 9503   3.468   2.973   0.502  3.7044  0.3253 -1.4213
   27MOL    C92 9504   3.244   2.889   0.439 -0.6622  0.7838  0.5152
   27MOL    O93 9505   3.214   2.933   0.555  0.6574 -0.3835  0.5678
   27MOL    C94 9506   3.141   2.893   0.329  0.1504 -0.3544 -0.3317
   27MOL    C95 9507   3.037   2.783   0.335 -0.2177  0.0191 -0.2188
   27MOL    C96 9508   3.083   2.640   0.306 -0.4805 -0.2948 -0.3074
   27MOL    C97 9509   2.981   2.533   0.346 -0.4429 -0.7726 -0.9028
   27MOL    C98 9510   2.989   2.501   0.496 -0.2898 -0.4075 -0.6568
   27MOL    O99 9511   2.907   2.585   0.572  0.1969 -0.6309 -0.4231
   27MOL   H100 9512   3.199   2.902   0.238  0.8951 -1.2151  0.0563
   27MOL   H101 9513   3.098   2.993   0.341  2.5821  0.6994 -0.0141
   27MOL   H102 9514   2.962   2.826   0.269  0.8038  0.7848 -0.9164
   27MOL   H103 9515   2.986   2.782   0.431 -0.7760 -0.2280 -0.5201
   27MOL   H104 9516   3.166   2.617   0.373 -1.4281  2.1947  1.8618
   27MOL   H105 9517   3.127   2.630   0.207  0.1128 -0.7870  0.0072
   27MOL   H106 9518   3.006   2.440   0.296  0.2463 -1.1145  0.0541
   27MOL   H107 9519   2.879   2.563   0.324 -1.2654 -3.8593 -1.4358
   27MOL   H108 9520   2.972   2.394   0.511  1.0204 -0.4022  1.0604
   27MOL   H109 9521   3.094   2.508   0.528 -0.3031  1.4117 -0.9413
   27MOL   C110 9522   2.902   2.564   0.703  0.1127 -0.1388 -0.9570
   27MOL   O111 9523   2.953   2.470   0.765 -0.3706 -0.2732  0.2924
   27MOL   C112 9524   2.827   2.682   0.782 -0.0074 -0.0875 -0.1313
   27MOL   C113 9525   2.912   2.811   0.792  1.3262 -0.3259  0.5148
   27MOL   C114 9526   3.046   2.794   0.858 -0.3528  0.0539  0.3796
   27MOL   C115 9527   3.124   2.923   0.900 -0.3782 -0.6842  0.3127
   27MOL   C116 9528   3.272   2.896   0.926  0.5369 -0.2555 -0.8159
   27MOL   O117 9529   3.293   2.802   1.029 -0.0407 -0.0989  0.4052
   27MOL   H118 9530   2.802   2.646   0.882 -2.1888  0.1352 -0.5617
   27MOL   H119 9531   2.730   2.708   0.739 -0.1350  0.5940  0.5545
   27MOL   H120 9532   2.849   2.887   0.836  1.4579 -1.2889  2.4186
   27MOL   H121 9533   2.932   2.854   0.693  0.1982  0.4838  0.6366
   27MOL   H122 9534   3.119   2.752   0.789  0.3648  0.0291  1.1488
   27MOL   H123 9535   3.030   2.729   0.944 -0.7433 -1.0762 -0.5209
   27MOL   H124 9536   3.085   2.966   0.993  0.3412 -1.2867  0.9005
   27MOL   H125 9537   3.112   2.990   0.816 -0.4281 -0.6952  0.3110
   27MOL   H126 9538   3.322   2.881   0.830 -0.8810 -1.3093 -1.4189
   27MOL   H127 9539   3.312   2.991   0.963 -1.4063  1.3994 -2.7501
   27MOL   C128 9540   3.339   2.682   1.000 -0.0066  0.0481 -0.0097
   27MOL   O129 9541   3.391   2.639   0.894 -0.0401 -0.2946 -0.0278
   27MOL   C130 9542   3.329   2.590   1.126 -0.1017 -0.1914 -0.1151
   27MOL   C131 9543   3.200   2.496   1.139  0.0723 -0.2705 -0.1773
   27MOL   C132 9544   3.084   2.572   1.203  0.1877 -0.0854  0.4876
   27MOL   C133 9545   2.944   2.502   1.201 -0.8013  0.0753  0.2446
   27MOL   C134 9546   2.852   2.569   1.293 -0.0566 -0.5584 -0.3874
   27MOL   O135 9547   2.846   2.710   1.254  0.0290 -0.5140  0.0767
   27MOL   H136 9548   3.343   2.652   1.214 -2.9000  1.6248 -0.8888
   27MOL   H137 9549   3.423   2.534   1.121  0.5077  0.9275 -1.6653
   27MOL   H138 9550   3.224   2.410   1.201 -3.1574  0.7068  2.5716
   27MOL   H139 9551   3.183   2.453   1.040 -0.9186 -1.1770  0.3780
   27MOL   H140 9552   3.070   2.668   1.155 -1.0048 -0.2107  0.5740
   27MOL   H141 9553   3.105   2.589   1.308  3.7520  3.0070 -0.6362
   27MOL   H142 9554   2.955   2.399   1.237 -1.0210  0.1625  0.5613
   27MOL   H143 9555   2.909   2.500   1.098  1.9271  2.7246 -0.8245
   27MOL   H144 9556   2.753   2.524   1.299  0.3994 -2.0701 -3.0972
   27MOL   H145 9557   2.887   2.565   1.396 -0.8472  2.5956  0.0664
   27MOL   C146 9558   2.767   2.743   1.158  0.4875  0.4628  0.3022
   27MOL   O147 9559   2.690   2.669   1.102 -0.1249 -0.3360 -0.2056
   27MOL   C148 9560   2.794   2.886   1.120  0.6018  0.3624  1.0308
   27MOL   C149 9561   2.669   2.977   1.111  0.4674 -0.2468 -0.7543
   27MOL   C150 9562   2.587   2.974   0.978  0.3306 -0.2916 -0.0779
   27MOL   C151 9563   2.473   3.074   0.977 -0.2392  0.5383  0.2185
   27MOL   C152 9564   2.380   3.041   0.860 -0.0540 -0.1221  0.8578
   27MOL   O153 9565   2.268   3.133   0.857  0.5821 -0.6017  0.7973
   27MOL   H154 9566   2.852   2.891   1.027  0.1449 -0.5542  0.6883
   27MOL   H155 9567   2.867   2.927   1.189  0.8247 -0.1494  1.1023
   27MOL   H156 9568   2.698   3.080   1.133 -0.8909 -0.2420  1.1418
   27MOL   H157 9569   2.593   2.948   1.183  2.6000 -2.5103  0.6865
   27MOL   H158 9570   2.546   2.874   0.963 -1.2430  0.3443 -0.0606
   27MOL   H159 9571   2.651   3.001   0.894  1.9776 -1.9837  0.5978
   27MOL   H160 9572   2.504   3.179   0.979 -3.5072  1.5515  0.7460
   27MOL   H161 9573   2.412   3.056   1.065 -0.6355 -1.3329 -0.4271
   27MOL   H162 9574   2.436   3.060   0.769 -0.9025  1.2229  0.6004
   27MOL   H163 9575   2.347   2.937   0.859  1.0317 -0.4742 -1.5678
   27MOL   C164 9576   2.187   3.147   0.745  0.4802  0.0680 -0.2959
   27MOL   O165 9577   2.198   3.090   0.639  0.2029  0.7202 -0.6388
   27MOL   C166 9578   2.088   3.259   0.762  0.5113  0.0092 -0.0441
   27MOL   C167 9579   2.005   3.248   0.886 -0.3878 -0.2348 -0.0430
   27MOL   C168 9580   1.900   3.136   0.883 -0.6445  0.1073 -0.4583
   27MOL   C169 9581   1.852   3.085   1.025  0.5131  0.0814  0.4080
   27MOL   C170 9582   1.749   2.972   1.006  0.0490  0.0884  0.0365
   27MOL   O171 9583   1.708   2.926   1.132 -0.1065 -0.0395 -0.0199
   27MOL   H172 9584   2.021   3.274   0.677 -1.3587 -0.7505  1.2587
   27MOL   H173 9585   2.145   3.352   0.770  0.4418  0.3590 -3.0076
   27MOL   H174 9586   1.965   3.348   0.901 -2.2123 -1.1748  1.6130
   27MOL   H175 9587   2.062   3.236   0.978 -0.1846 -1.9200 -0.3566
   27MOL   H176 9588   1.938   3.057   0.819  0.9465  1.6387 -1.4450
   27MOL   H177 9589   1.811   3.159   0.825 -1.1961 -0.7913  0.0153
   27MOL   H178 9590   1.832   3.166   1.095  2.0379 -0.7438  1.8378
   27MOL   H179 9591   1.938   3.033   1.067 -0.2009  0.0092  1.8206
   27MOL   H180 9592   1.668   3.021   0.952  0.4588  0.6801 -0.0478
   27MOL   H181 9593   1.785   2.886   0.951 -1.5720 -0.9457  0.5585
   27MOL   C182 9594   1.605   2.849   1.147 -0.3309  0.0197  0.3379
   27MOL   O183 9595   1.529   2.808   1.058 -0.0782  0.2578  0.0691
   27MOL   C184 9596   1.578   2.820   1.299 -0.1968 -0.4000  0.3898
   27MOL   C185 9597   1.507   2.689   1.323  0.7267 -0.1858  0.0190
   27MOL   C186 9598   1.351   2.710   1.314 -0.0637  0.0083 -0.0874
   27MOL   C187 9599   1.276   2.577   1.298  0.3883 -0.4263 -0.3335
   27MOL   C188 9600   1.123   2.590   1.313 -0.6160 -0.5293 -0.9326
   27MOL   O189 9601   1.073   2.453   1.310 -0.2285 -0.1308  0.3428
   27MOL   H190 9602   1.520   2.903   1.339 -0.4441  0.5599 -1.8295
   27MOL   H191 9603   1.673   2.836   1.349 -0.2246 -1.8966  0.9540
   27MOL   H192 9604   1.531   2.664   1.426 -2.7901 -1.9270  0.4855
   27MOL   H193 9605   1.535   2.615   1.248  0.7283 -0.9497  0.7683
   27MOL   H194 9606   1.325   2.772   1.228 -1.3240  0.6372  0.7307
   27MOL   H195 9607   1.319   2.767   1.401 -2.2173 -0.2029 -0.7119
   27MOL   H196 9608   1.304   2.506   1.376 -0.0061 -2.8754 -2.3389
   27MOL   H197 9609   1.292   2.523   1.204  0.6792 -0.8503 -0.0394
   27MOL   H198 9610   1.095   2.650   1.400 -0.7690  1.2807 -2.1816
   27MOL   H199 9611   1.088   2.642   1.223 -0.6268  1.9608  0.4692
   27MOL   C200 9612   0.982   2.418   1.400  0.4453 -1.0527  0.0264
   27MOL   O201 9613   0.932   2.494   1.484  0.5401  0.4438  0.5518
   27MOL   C202 9614   0.935   2.278   1.374 -0.0127  0.5368  0.0663
   27MOL   C203 9615   0.796   2.246   1.433  0.3789  0.1099  0.3946
   27MOL   C204 9616   0.797   2.215   1.583 -0.3411  0.1554 -0.9366
   27MOL   C205 9617   0.653   2.182   1.635 -0.3535 -1.0204 -0.1260
   27MOL   C206 9618   0.651   2.171   1.785 -0.0639 -0.2535  0.1806
   27MOL   O207 9619   0.519   2.159   1.836 -0.1863 -0.4014  0.4224
   27MOL   H208 9620   1.014   2.219   1.420 -2.1966 -1.6058  1.1379
   27MOL   H209 9621   0.935   2.260   1.266 -1.9160  1.3555 -0.0929
   27MOL   H210 9622   0.750   2.172   1.368 -0.3477  0.2480  0.7458
   27MOL   H211 9623   0.726   2.329   1.418  1.8504  1.5197  1.1058
   27MOL   H212 9624   0.838   2.303   1.633 -0.3034 -1.0533  1.2472
   27MOL   H213 9625   0.860   2.134   1.617  0.9669  2.4920  2.5335
   27MOL   H214 9626   0.618   2.089   1.591  2.1530 -1.1032 -2.0653
   27MOL   H215 9627   0.579   2.255   1.604  0.3784 -0.1317  0.1760
   27MOL   H216 9628   0.707   2.081   1.809  0.5290  0.2031  0.5093
   27MOL   H217 9629   0.710   2.247   1.836  0.0348  0.3184 -0.7595
   27MOL   C218 9630   0.490   2.183   1.961 -0.3141  0.7632  0.1164
   27MOL   O219 9631   0.567   2.187   2.060 -0.6689  0.6083  0.0318
   27MOL   C220 9632   0.338   2.188   1.981  0.7536 -0.3766 -0.9309
   27MOL   C221 9633   0.294   2.223   2.130 -0.1486 -0.1252 -0.0376
   27MOL   C222 9634   0.142   2.229   2.141  0.2337  0.2582 -0.1454
   27MOL   C223 9635   0.104   2.262   2.280  0.4456  0.3614  0.5255
   27MOL   C224 9636   7.794   2.249   2.308 -0.1226 -0.2876  0.1591
   27MOL   O225 9637   7.762   2.298   2.438 -0.2780 -0.2791  0.9323
   27MOL   H226 9638   0.294   2.096   1.944 -0.7878  0.5892 -1.5541
   27MOL   H227 9639   0.301   2.271   1.921  0.0966 -1.7929 -2.4836
   27MOL   H228 9640   0.346   2.312   2.166  0.9534 -0.8164  0.0919
   27MOL   H229 9641   0.324   2.139   2.192  1.1627  2.4766  3.0112
   27MOL   H230 9642   0.099   2.134   2.110 -2.6151  1.6732 -0.7091
   27MOL   H231 9643   0.108   2.299   2.065  2.1896  0.2811 -1.0214
   27MOL   H232 9644   0.137   2.363   2.303 -1.5497  0.8238  1.4354
   27MOL   H233 9645   0.155   2.196   2.350  0.7830  0.3618  0.2820
   27MOL   H234 9646   7.735   2.291   2.228 -0.1330  0.0050  0.3193
   27MOL   H235 9647   7.778   2.142   2.297 -1.4828  0.1743 -2.8561
   27MOL   C236 9648   7.644   2.268   2.490 -0.1760  0.0736  0.4825
   27MOL   O237 9649   7.555   2.196   2.447 -0.4914 -0.4101 -0.5663
   27MOL   C238 9650   7.625   2.331   2.633 -0.4821 -0.5737 -0.3647
   27MOL   C239 9651   7.519   2.265   2.721  0.5694 -0.3331 -0.4123
   27MOL   C240 9652   7.522   2.318   2.867 -0.1979  0.2718  0.2047
   27MOL   C241 9653   7.407   2.258   2.957 -0.2617 -0.1315 -0.5294
   27MOL   C242 9654   7.413   2.329   3.092 -0.7716 -0.1007  0.5153
   27MOL   O243 9655   7.521   2.310   3.182 -0.8861  0.3593 -0.4272
   27MOL   H244 9656   7.601   2.437   2.627  0.5500 -0.3652 -1.0610
   27MOL   H245 9657   7.714   2.317   2.695  1.4275  1.4543 -2.5742
   27MOL   H246 9658   7.543   2.159   2.716  0.1819 -0.3937 -1.0887
   27MOL   H247 9659   7.420   2.268   2.676 -0.3538  1.0117  1.6881
   27MOL   H248 9660   7.519   2.427   2.866 -0.4881  0.2717  0.6164
   27MOL   H249 9661   7.612   2.295   2.924  1.7655  1.6357 -2.2631
   27MOL   H250 9662   7.410   2.150   2.962  0.5521 -0.0281  1.5555
   27MOL   H251 9663   7.306   2.286   2.925 -0.0664  1.6680  0.3785
   27MOL   H252 9664   7.407   2.438   3.090 -0.4152 -0.0003  3.0225
   27MOL   H253 9665   7.315   2.306   3.134 -1.1036 -0.4132 -0.4111
   27MOL   C254 9666   7.537   2.398   3.284  0.5441  0.4934  0.0911
   27MOL   O255 9667   7.470   2.498   3.308 -0.1734 -0.0467  0.1573
   27MOL   C256 9668   7.643   2.356   3.376  0.3578  0.5000  0.2169
   27MOL   C257 9669   7.714   2.474   3.449 -0.4540 -0.9394 -0.0406
   27MOL   C258 9670   7.773   2.433   3.586  0.1316 -0.8157  0.3057
   27MOL   C259 9671   0.014   2.552   3.638 -0.0273  1.0169  0.3807
   27MOL   C260 9672   0.074   2.510   3.773 -0.1612  1.0933 -0.4236
   27MOL   O261 9673   0.159   2.618   3.806 -0.1509  0.5391  0.4566
   27MOL   H262 9674   7.718   2.295   3.326  0.3624  0.3202  0.4387
   27MOL   H263 9675   7.604   2.279   3.443  0.6092  0.8486  0.7712
   27MOL   H264 9676   7.642   2.552   3.474 -0.0225 -0.8974  1.1228
   27MOL   H265 9677   7.791   2.512   3.382 -0.3671  0.4540  0.8194
   27MOL   H266 9678   7.839   2.347   3.584 -1.4988 -2.0695 -1.6709
   27MOL   H267 9679   7.695   2.416   3.660 -0.0287 -0.0869  0.3117
   27MOL   H268 9680   7.792   2.637   3.656 -1.1868 -0.4565  3.4045
   27MOL   H269 9681   0.091   2.584   3.568 -0.0301  0.2588  0.0349
   27MOL   H270 9682   7.830   2.496   3.835 -0.9672  0.5492 -1.6865
   27MOL   H271 9683   0.119   2.410   3.772 -0.8523  0.7688 -3.0699
   27MOL   C272 9684   0.132   2.683   3.924  0.4020 -0.2549  0.4837
   27MOL   O273 9685   0.038   2.662   3.997  0.0784  0.1251 -0.3584
   27MOL   C274 9686   0.219   2.803   3.945  0.3591  0.7686 -0.2459
   27MOL   C275 9687   0.202   2.904   3.832  0.7623 -0.2464  0.0256
   27MOL   C276 9688   0.056   2.950   3.799  0.4304  1.1993  0.2280
   27MOL   C277 9689   0.042   3.060   3.686 -0.2057  0.0590 -0.4702
   27MOL   C278 9690   7.739   3.093   3.646  0.1390  0.3760  0.5829
   27MOL   O279 9691   7.727   3.175   3.534 -0.4433 -0.1064  0.0895
   27MOL   H280 9692   0.325   2.779   3.951 -0.3666 -2.4284  0.8309
   27MOL   H281 9693   0.185   2.850   4.038 -0.0689  0.5405 -0.2847
   27MOL   H282 9694   0.240   2.875   3.735 -0.8858  1.1489 -1.0648
   27MOL   H283 9695   0.247   3.001   3.851 -1.0636  0.2211  2.3642
   27MOL   H284 9696   0.019   3.000   3.889 -0.3711  1.0467 -0.0170
   27MOL   H285 9697   0.003   2.858   3.777  0.7887  0.9375  0.4492
   27MOL   H286 9698   0.095   3.023   3.598  3.5083  0.7915  1.3608
   27MOL   H287 9699   0.084   3.156   3.715 -1.3956  0.8733 -1.3935
   27MOL   H288 9700   7.683   3.001   3.631  0.8451  0.4458 -3.1428
   27MOL   H289 9701   7.681   3.140   3.724  0.5236  1.3875  0.2701
   27MOL   C290 9702   7.691   3.121   3.415 -0.3640 -0.2823  0.0883
   27MOL   O291 9703   7.671   3.004   3.394  0.0951  0.9273  0.5989
   27MOL   C292 9704   7.683   3.228   3.304 -0.1198 -0.7330 -0.6304
   27MOL   C293 9705   7.708   3.197   3.153  0.0176 -1.0087 -0.3923
   27MOL   C294 9706   0.009   3.167   3.133 -0.4804  0.4766  0.7033
   27MOL   C295 9707   0.041   3.142   2.981  0.2397 -0.6335  0.1499
   27MOL   C296 9708   0.069   3.271   2.900  0.6512 -0.2036  0.5309
   27MOL   O297 9709   0.193   3.334   2.942 -0.2206  0.1833 -0.4774
   27MOL   H298 9710   7.752   3.307   3.333 -0.5598 -0.7167  0.4267
   27MOL   H299 9711   7.593   3.285   3.329 -0.2501 -1.8449  1.5708
   27MOL   H300 9712   7.682   3.282   3.091  2.0020 -1.5420 -1.9847
   27MOL   H301 9713   7.639   3.120   3.117 -2.3450  0.7452  0.2206
   27MOL   H302 9714   0.035   3.084   3.198 -1.1275  0.1214  0.5127
   27MOL   H303 9715   0.075   3.246   3.169 -0.8403  0.3569  1.6318
   27MOL   H304 9716   7.796   3.096   2.937 -0.2379 -0.7842  1.2608
   27MOL   H305 9717   0.123   3.075   2.960 -1.7477 -3.1504  0.1949
   27MOL   H306 9718   0.072   3.255   2.793 -0.5003  0.4444  0.3948
   27MOL   H307 9719   7.830   3.341   2.901 -0.9694 -2.0911  0.7396
   27MOL   C308 9720   0.228   3.450   2.893  0.2093  0.3139  0.2970
   27MOL   O309 9721   0.158   3.510   2.811  0.0273 -0.2730 -0.2239
   27MOL   C310 9722   0.359   3.500   2.945 -0.2964 -0.3491 -0.5749
   27MOL   C311 9723   0.482   3.442   2.870  0.1150  0.2209  0.2717
   27MOL   C312 9724   0.556   3.540   2.762 -0.3266  0.1255  0.2554
   27MOL   C313 9725   0.692   3.476   2.721  0.0630  0.3868  0.3776
   27MOL   C314 9726   0.770   3.579   2.637 -0.1017 -0.2610 -0.8928
   27MOL   O315 9727   0.702   3.626   2.518 -0.1535 -0.0356 -0.2742
   27MOL   H316 9728   0.378   3.471   3.048  1.0341  0.0544 -0.6950
   27MOL   H317 9729   0.365   3.609   2.945  1.0342 -0.3672  2.1523
   27MOL   H318 9730   0.459   3.350   2.817  2.5454  1.2207 -2.6516
   27MOL   H319 9731   0.554   3.392   2.935 -0.7681  0.8241  1.7364
   27MOL   H320 9732   0.574   3.634   2.814  0.4755 -0.3970  0.9525
   27MOL   H321 9733   0.494   3.551   2.673 -0.9261 -4.5068 -0.0140
   27MOL   H322 9734   0.689   3.380   2.671  1.6521 -0.4076  1.7689
   27MOL   H323 9735   0.740   3.437   2.811  2.1012 -0.2083 -0.9302
   27MOL   H324 9736   0.792   3.674   2.685 -0.0847  0.2026 -1.8089
   27MOL   H325 9737   0.860   3.525   2.608 -0.8925 -2.3052  0.3328
   27MOL   C326 9738   0.722   3.568   2.393 -0.0129  0.0009 -0.1549
   27MOL   O327 9739   0.803   3.478   2.374  0.4456 -0.1050  0.2079
   27MOL   C328 9740   0.632   3.618   2.279 -0.6434  0.2273 -0.1027
   27MOL   C329 9741   0.494   3.653   2.341 -0.1448 -0.2131  1.0327
   27MOL   C330 9742   0.412   3.529   2.374 -0.4544 -0.0674 -0.9692
   27MOL   C331 9743   0.259   3.541   2.420 -0.1205 -0.7786 -0.1012
   27MOL   C332 9744   0.212   3.416   2.494 -0.2301 -0.5400  0.1034
   27MOL   O333 9745   0.207   3.302   2.403 -0.0149  0.3052 -1.0249
   27MOL   H334 9746   0.637   3.539   2.205  0.6009  0.8407 -0.6856
   27MOL   H335 9747   0.684   3.707   2.243 -1.4573  0.8042  0.1332
   27MOL   H336 9748   0.435   3.699   2.262 -0.2378 -0.4020  0.9923
   27MOL   H337 9749   0.497   3.728   2.420  0.7991  2.1547 -1.1854
   27MOL   H338 9750   0.455   3.475   2.459 -0.9737 -2.2482 -2.0470
   27MOL   H339 9751   0.403   3.463   2.287 -0.4012  0.5121 -1.4219
   27MOL   H340 9752   0.203   3.557   2.328  0.8041 -0.4875 -0.6211
   27MOL   H341 9753   0.244   3.621   2.493 -0.3534 -1.9842  1.1929
   27MOL   H342 9754   0.286   3.383   2.567  0.0839 -0.2135 -0.0680
   27MOL   H343 9755   0.120   3.452   2.540  1.1584  2.4465  0.6405
   27MOL   C344 9756   0.153   3.185   2.449 -0.3410 -0.0479 -0.0657
   27MOL   O345 9757   0.097   3.167   2.560  0.2783  0.4117 -0.1776
   27MOL   C346 9758   0.177   3.068   2.355  0.4281 -0.2670  0.3536
   27MOL   C347 9759   0.129   3.099   2.206 -0.0527  0.1886 -0.7181
   27MOL   C348 9760   7.825   3.132   2.197 -0.0379  0.1669 -0.0065
   27MOL   C349 9761   7.795   3.110   2.050 -0.3054 -0.3155 -0.1522
   27MOL   C350 9762   7.645   3.105   2.018  0.4096 -0.5938 -0.2584
   27MOL   O351 9763   7.582   3.233   2.012 -0.5680  0.6465 -0.5169
   27MOL   H352 9764   0.131   2.978   2.396 -0.3593 -0.6617 -1.3461
   27MOL   H353 9765   0.281   3.037   2.359 -0.0723 -2.1407 -0.3075
   27MOL   H354 9766   0.157   3.015   2.141 -0.3420  0.6248 -1.4062
   27MOL   H355 9767   0.192   3.179   2.168  0.8943 -0.5430 -0.7282
   27MOL   H356 9768   7.812   3.235   2.232  2.3163  0.3406  0.4449
   27MOL   H357 9769   7.778   3.059   2.262 -1.0341 -3.1846 -4.2422
   27MOL   H358 9770   7.812   3.010   2.010  0.1454 -0.2291 -0.1725
   27MOL   H359 9771   7.836   3.185   1.983 -0.5048  0.7404  0.8833
   27MOL   H360 9772   7.636   3.073   1.914  0.1126 -1.1275 -0.0737
   27MOL   H361 9773   7.582   3.039   2.078 -0.5762 -1.1517 -1.8579
   27MOL   H362 9774   7.495   3.225   1.975 -0.3554 -2.8906 -0.4873
   28MOL     C1 9775   0.744   6.897   4.815  0.4426 -0.0351  0.0926
   28MOL     O2 9776   0.751   6.972   4.915 -0.6720 -0.0812  0.3597
   28MOL     C3 9777   0.751   6.745   4.830 -1.0255 -0.7745 -0.6839
   28MOL     C4 9778   0.895   6.687   4.858  0.1444  0.3550 -0.0049
   28MOL     C5 9779   0.890   6.541   4.903  0.1329 -0.3116  0.2204
   28MOL     C6 9780   1.006   6.472   4.976 -0.5214 -0.1708 -0.2764
   28MOL     C7 9781   0.980   6.326   5.003 -0.4446 -0.2762 -0.0099
   28MOL     O8 9782   0.866   6.301   5.081 -0.4852  0.5848  0.2510
   28MOL     H9 9783   0.704   6.701   4.741  0.5519 -1.0232 -1.4042
   28MOL    H10 9784   0.681   6.723   4.910 -0.5256  0.7239  0.1748
   28MOL    H11 9785   0.935   6.752   4.937  0.0522 -1.0538  1.2330
   28MOL    H12 9786   0.956   6.695   4.768  2.7834 -1.1096  1.5912
   28MOL    H13 9787   0.851   6.475   4.825  2.9787 -1.1797 -0.5184
   28MOL    H14 9788   0.804   6.539   4.970  2.1446  3.8933  3.0991
   28MOL    H15 9789   1.021   6.525   5.070  0.5064  0.3060 -0.7027
   28MOL    H16 9790   1.101   6.490   4.926  0.3048 -0.3459  1.2233
   28MOL    H17 9791   0.956   6.261   4.918 -1.1621 -1.4390  1.0638
   28MOL    H18 9792   1.062   6.276   5.054 -0.8789 -0.3018  0.6691
   28MOL    H19 9793   0.717   6.935   4.716  0.5772 -1.5272 -0.5273
   28MOL    C20 9794   0.857   6.192   5.161 -0.1185  0.2143 -0.4655
   28MOL    O21 9795   0.941   6.103   5.177  0.2899  0.7297  0.6914
   28MOL    C22 9796   0.727   6.193   5.241  0.4589 -0.3366 -0.3252
   28MOL    C23 9797   0.738   6.259   5.377  0.8510 -0.4328 -1.1501
   28MOL    C24 9798   0.778   6.408   5.368  0.0749  0.0859 -0.8575
   28MOL    C25 9799   0.681   6.488   5.279  0.3998  0.7065  0.1768
   28MOL    C26 9800   0.693   6.645   5.296 -0.5615  0.5046  0.0118
   28MOL    O27 9801   0.596   6.708   5.210 -0.0541 -0.0260  0.2176
   28MOL    H28 9802   0.721   6.087   5.265 -0.4694 -0.6146 -1.7189
   28MOL    H29 9803   0.643   6.224   5.179  0.7104 -0.7145 -0.8600
   28MOL    H30 9804   0.814   6.200   5.429  2.8399  1.9293 -1.2747
   28MOL    H31 9805   0.638   6.248   5.418  1.1094 -1.7836 -0.8432
   28MOL    H32 9806   0.878   6.438   5.337  0.2694 -1.5716 -1.9340
   28MOL    H33 9807   0.759   6.458   5.462 -1.9691  2.4378 -2.4682
   28MOL    H34 9808   0.575   6.466   5.288  0.0133  1.0294 -3.2575
   28MOL    H35 9809   0.698   6.468   5.174 -1.3267  0.6952 -0.1103
   28MOL    H36 9810   0.657   6.663   5.398 -2.7607  0.8070 -0.7779
   28MOL    H37 9811   0.794   6.683   5.282 -0.2348 -0.3224  0.1167
   28MOL    C38 9812   0.524   6.813   5.248 -0.5382 -0.3832 -0.1412
   28MOL    O39 9813   0.514   6.851   5.365 -0.5332  0.0351  0.1954
   28MOL    C40 9814   0.457   6.884   5.130  0.1532 -0.3256 -0.0335
   28MOL    C41 9815   0.319   6.927   5.171 -0.2791  0.0893  0.3399
   28MOL    C42 9816   0.296   7.062   5.253 -0.1738 -0.2171  0.4366
   28MOL    C43 9817   0.290   7.180   5.164 -0.3053  0.2914 -0.2189
   28MOL    C44 9818   0.269   7.308   5.249  0.2105 -0.7435 -0.0796
   28MOL    O45 9819   0.253   7.419   5.164  0.5795 -0.3634  0.2070
   28MOL    H46 9820   0.461   6.821   5.042  1.9798 -1.0855  0.5691
   28MOL    H47 9821   0.519   6.973   5.118  0.8955 -0.8549 -0.1600
   28MOL    H48 9822   0.275   6.852   5.236  1.9246 -3.5553 -2.1867
   28MOL    H49 9823   0.261   6.931   5.079  0.2807 -1.3700 -0.0923
   28MOL    H50 9824   0.369   7.076   5.332  1.8134  1.1341 -1.5560
   28MOL    H51 9825   0.202   7.057   5.307 -0.8656 -0.4090 -0.7715
   28MOL    H52 9826   0.215   7.158   5.088  0.0497  0.3245 -0.5804
   28MOL    H53 9827   0.380   7.190   5.105  1.5548 -1.5687  2.2116
   28MOL    H54 9828   0.180   7.275   5.302 -0.6388  0.7001 -0.5799
   28MOL    H55 9829   0.349   7.318   5.323  0.6529 -0.8140 -0.5443
   28MOL    C56 9830   0.281   7.532   5.218  0.2478 -0.3932  0.1217
   28MOL    O57 9831   0.300   7.566   5.337 -0.4609  0.1231 -0.2801
   28MOL    C58 9832   0.293   7.645   5.112  0.7377  0.1422  0.6782
   28MOL    C59 9833   0.410   7.619   5.014  0.3931  0.0100 -0.0036
   28MOL    C60 9834   0.386   7.688   4.875  0.3985 -0.1962 -0.6285
   28MOL    C61 9835   0.510   7.672   4.789  0.0608 -0.0280  0.3949
   28MOL    C62 9836   0.500   7.754   4.656 -1.2066  0.9973 -0.1891
   28MOL    O63 9837   0.574   0.030   4.681  0.8488  0.0141 -0.5191
   28MOL    H64 9838   0.308   7.741   5.162 -0.2991  0.5618  0.1825
   28MOL    H65 9839   0.189   7.650   5.081  0.4421 -1.6172  1.3447
   28MOL    H66 9840   0.422   7.511   4.998 -0.8930 -0.1962  0.3460
   28MOL    H67 9841   0.505   7.657   5.052  0.7812 -0.1215 -0.8211
   28MOL    H68 9842   0.370   7.795   4.874  1.0166 -0.0656  1.4520
   28MOL    H69 9843   0.299   7.645   4.825 -0.2717 -2.6149  2.4187
   28MOL    H70 9844   0.524   7.565   4.775  0.6472  0.0233  0.5958
   28MOL    H71 9845   0.606   7.701   4.833  0.5559  1.5362 -1.6107
   28MOL    H72 9846   0.538   7.704   4.567  0.6531 -0.3666  1.3437
   28MOL    H73 9847   0.395   7.783   4.644 -1.3032  1.4609  1.5814
   28MOL    C74 9848   0.568   0.133   4.600 -0.3894 -0.0174  0.1441
   28MOL    O75 9849   0.479   0.146   4.514 -0.1521 -0.2270  0.3547
   28MOL    C76 9850   0.688   0.227   4.615  0.3365 -0.5091  0.2731
   28MOL    C77 9851   0.820   0.174   4.559 -0.7625  0.1667 -0.1316
   28MOL    C78 9852   0.881   0.068   4.652 -0.0621 -0.2103 -0.3219
   28MOL    C79 9853   1.022   0.016   4.608  0.4420  0.3729 -0.9437
   28MOL    C80 9854   1.074   7.753   4.693  0.6584 -0.0607  0.5203
   28MOL    O81 9855   1.206   7.715   4.648  0.5656  0.1834 -0.7324
   28MOL    H82 9856   0.692   0.257   4.720 -0.2642  1.9473 -0.3540
   28MOL    H83 9857   0.669   0.317   4.556 -0.2094 -1.0041 -0.3048
   28MOL    H84 9858   0.887   0.260   4.560 -0.0917 -0.3337 -1.4565
   28MOL    H85 9859   0.819   0.133   4.458 -2.8311 -1.4502  0.5032
   28MOL    H86 9860   0.818   7.826   4.675 -0.3058  0.5004  1.7766
   28MOL    H87 9861   0.885   0.122   4.747  2.3441  1.7721 -1.5026
   28MOL    H88 9862   1.096   0.096   4.608  3.6525 -2.4484  0.4782
   28MOL    H89 9863   1.026   7.818   4.507  1.4473 -0.3323 -0.6217
   28MOL    H90 9864   1.078   7.780   4.799  2.5106  1.0477  0.2033
   28MOL    H91 9865   1.003   7.672   4.678  2.9164 -1.5099 -2.9746
   28MOL    C92 9866   1.306   7.776   4.713 -0.3344 -0.6235  0.3862
   28MOL    O93 9867   1.300   0.011   4.807 -0.0987 -0.0362  0.0253
   28MOL    C94 9868   1.434   7.740   4.654  0.4026 -0.1282 -0.2252
   28MOL    C95 9869   1.505   7.625   4.721  0.0273  1.0034 -0.0360
   28MOL    C96 9870   1.647   7.605   4.656  0.5778  0.2766  0.3821
   28MOL    C97 9871   1.747   7.502   4.720  0.8806  0.6375  0.4752
   28MOL    C98 9872   1.887   7.513   4.673 -0.4395 -0.0924  0.1274
   28MOL    O99 9873   1.894   7.472   4.541 -0.2010 -0.0244  0.2724
   28MOL   H100 9874   1.499   7.826   4.665 -1.4122  1.4685 -1.4934
   28MOL   H101 9875   1.423   7.736   4.545  0.5787 -1.2144 -0.2061
   28MOL   H102 9876   1.445   7.534   4.714  1.2210  0.1448  0.6367
   28MOL   H103 9877   1.513   7.643   4.828 -1.6697 -0.0007  0.2716
   28MOL   H104 9878   1.699   7.700   4.655  0.8319  0.1315 -1.0066
   28MOL   H105 9879   1.637   7.591   4.548 -3.3651  0.4560  0.6645
   28MOL   H106 9880   1.707   7.401   4.708  2.0912  0.4516 -2.4185
   28MOL   H107 9881   1.747   7.519   4.828 -1.0053  1.3979  0.3701
   28MOL   H108 9882   1.916   7.618   4.680 -0.5569  0.0807 -1.8913
   28MOL   H109 9883   1.955   7.454   4.735  0.0077  0.0350 -0.2405
   28MOL   C110 9884   2.010   7.426   4.487  0.6692  0.3716  0.5477
   28MOL   O111 9885   2.119   7.414   4.548  0.0167 -0.0341  0.3405
   28MOL   C112 9886   1.995   7.387   4.337  0.6163  0.5274  0.0628
   28MOL   C113 9887   2.016   7.503   4.237 -0.4012 -0.2734 -0.0033
   28MOL   C114 9888   1.927   7.498   4.115 -0.9305 -0.0799  0.5482
   28MOL   C115 9889   1.965   7.600   4.002 -0.0444 -0.5365 -0.1239
   28MOL   C116 9890   1.876   7.619   3.881 -0.0355 -0.0129  0.3703
   28MOL   O117 9891   1.746   7.652   3.921 -0.2334  0.0013 -0.1071
   28MOL   H118 9892   1.895   7.343   4.333  0.4064  0.8190  1.8781
   28MOL   H119 9893   2.064   7.304   4.322 -1.9546 -1.6408 -0.2921
   28MOL   H120 9894   2.119   7.498   4.200  0.7115 -0.9776  3.0107
   28MOL   H121 9895   2.014   7.596   4.294  1.4135 -0.8215  1.0144
   28MOL   H122 9896   1.822   7.514   4.141 -1.6440 -0.5203 -1.9643
   28MOL   H123 9897   1.939   7.397   4.077 -0.7668 -0.7144  2.2278
   28MOL   H124 9898   2.066   7.591   3.963  0.9567  2.0848  1.6901
   28MOL   H125 9899   1.985   7.703   4.032 -0.6598  0.1450 -2.0225
   28MOL   H126 9900   1.917   7.700   3.822  0.4401 -1.0914 -0.8038
   28MOL   H127 9901   1.862   7.530   3.819  0.1766  0.8715 -0.9524
   28MOL   C128 9902   1.671   7.747   3.856 -0.3973 -0.2569 -0.1913
   28MOL   O129 9903   1.705   7.813   3.754  0.0387 -0.2364 -0.6969
   28MOL   C130 9904   1.538   7.763   3.922 -0.0775 -0.1834  0.0180
   28MOL   C131 9905   1.557   0.005   4.052 -0.3229 -0.1275  0.1275
   28MOL   C132 9906   1.576   7.773   4.191  0.0833 -0.0060 -0.3321
   28MOL   C133 9907   1.584   0.028   4.310  0.5414 -0.5487 -0.0821
   28MOL   C134 9908   1.730   0.075   4.326 -0.2684 -0.3408  0.0190
   28MOL   O135 9909   1.724   0.174   4.428 -0.0558  0.4141 -0.2413
   28MOL   H136 9910   1.499   7.663   3.940  1.6566 -0.5757  1.7481
   28MOL   H137 9911   1.479   7.820   3.849 -0.0014 -1.0582 -0.7264
   28MOL   H138 9912   1.475   0.077   4.054 -0.6106 -0.4794  1.4222
   28MOL   H139 9913   1.644   0.071   4.054 -0.7190  0.4700 -1.6011
   28MOL   H140 9914   1.666   7.712   4.184  0.2067  0.3387 -1.8579
   28MOL   H141 9915   1.497   7.698   4.198  0.8161 -0.7547  0.0170
   28MOL   H142 9916   1.550   7.820   4.399  0.4803  1.6970  1.2755
   28MOL   H143 9917   1.523   0.116   4.291 -0.0492 -0.0743  3.5632
   28MOL   H144 9918   1.789   7.833   4.355 -1.3747 -1.0256  0.2767
   28MOL   H145 9919   1.770   0.108   4.231 -1.7241  0.1985 -0.4317
   28MOL   C146 9920   1.838   0.196   4.498  0.4786 -0.4995  0.6983
   28MOL   O147 9921   1.940   0.135   4.477 -0.3711  0.0244 -0.1307
   28MOL   C148 9922   1.819   0.303   4.605  0.5593  0.2070  0.4412
   28MOL   C149 9923   1.929   0.396   4.650 -0.1497  0.2422 -0.1104
   28MOL   C150 9924   1.988   0.486   4.536  0.0437 -0.9786  0.1355
   28MOL   C151 9925   2.122   0.553   4.575  0.1013 -0.1034 -0.4592
   28MOL   C152 9926   2.114   0.667   4.679  0.7445 -0.4157  0.3058
   28MOL   O153 9927   2.040   0.769   4.620 -0.1305 -0.3357 -0.8039
   28MOL   H154 9928   1.781   0.260   4.698 -1.1816  1.8799  0.5374
   28MOL   H155 9929   1.735   0.365   4.572 -1.2869 -1.9044  1.0645
   28MOL   H156 9930   2.013   0.327   4.666 -0.7341  0.0418  2.2459
   28MOL   H157 9931   1.905   0.451   4.741  2.6589 -2.8020  2.6150
   28MOL   H158 9932   1.909   0.550   4.497 -0.2901 -0.4872  1.5909
   28MOL   H159 9933   2.012   0.412   4.459 -2.6037 -1.4708 -0.2619
   28MOL   H160 9934   2.178   0.581   4.486 -2.3000  3.2290 -0.9827
   28MOL   H161 9935   2.188   0.476   4.617  0.8155  0.6109 -0.2518
   28MOL   H162 9936   2.075   0.630   4.773 -0.9534  0.8185  0.1025
   28MOL   H163 9937   2.213   0.710   4.696  1.2977 -1.5892  0.1300
   28MOL   C164 9938   1.914   0.785   4.653  0.0297 -0.5455  0.0069
   28MOL   O165 9939   1.845   0.717   4.733  0.3110  0.1557  0.3651
   28MOL   C166 9940   1.856   0.913   4.589  0.0970  0.4332  0.2682
   28MOL   C167 9941   1.847   1.035   4.689 -0.3549 -0.2872 -0.0545
   28MOL   C168 9942   1.984   1.086   4.735  0.5696 -0.3171 -0.1341
   28MOL   C169 9943   2.071   1.133   4.620 -0.4392  0.1877  0.1133
   28MOL   C170 9944   2.213   1.155   4.665 -0.1020 -0.6840 -0.1636
   28MOL   O171 9945   2.226   1.225   4.787 -0.5251 -0.5898 -0.1809
   28MOL   H172 9946   1.757   0.885   4.554 -0.2726 -0.4742  1.9989
   28MOL   H173 9947   1.910   0.931   4.496 -0.3379  0.3485 -0.0045
   28MOL   H174 9948   1.790   0.996   4.773 -0.6601 -2.1447 -1.0891
   28MOL   H175 9949   1.778   1.104   4.640  0.7840  0.4008 -0.7209
   28MOL   H176 9950   2.023   1.001   4.790 -0.5794 -0.7811 -0.0176
   28MOL   H177 9951   1.977   1.169   4.806  3.6608 -0.0416 -0.0650
   28MOL   H178 9952   2.039   1.234   4.593 -2.8676 -0.9186 -1.3745
   28MOL   H179 9953   2.066   1.067   4.533  2.4624  1.5416 -1.1264
   28MOL   H180 9954   2.261   1.058   4.648  1.4202  0.0214 -0.0076
   28MOL   H181 9955   2.267   1.212   4.590 -0.3783  1.0681  0.9535
   28MOL   C182 9956   2.308   1.178   4.885  0.1615 -0.5099  0.3951
   28MOL   O183 9957   2.364   1.071   4.888 -0.3065  0.0169 -0.4533
   28MOL   C184 9958   2.313   1.273   5.000 -0.1533  0.2090  0.1552
   28MOL   C185 9959   2.373   1.413   4.977  0.7481  0.4322  0.4834
   28MOL   C186 9960   2.524   1.417   4.941  0.4513 -0.2948  0.1621
   28MOL   C187 9961   2.581   1.561   4.940  0.1100 -0.6701 -0.2606
   28MOL   C188 9962   2.718   1.599   4.863  0.3353  0.6606 -0.2485
   28MOL   O189 9963   2.828   1.525   4.920  0.6200  0.4974  0.0054
   28MOL   H190 9964   2.363   1.230   5.087 -1.5042  0.9751  1.3380
   28MOL   H191 9965   2.208   1.279   5.029 -0.8846 -0.6899 -2.2565
   28MOL   H192 9966   2.349   1.478   5.061 -2.6660 -2.4969  1.9487
   28MOL   H193 9967   2.321   1.455   4.891  1.2482  3.1874  1.4781
   28MOL   H194 9968   2.551   1.363   4.850 -2.8942 -1.2254 -0.3297
   28MOL   H195 9969   2.574   1.371   5.026  0.7232 -0.0263  0.1475
   28MOL   H196 9970   2.597   1.606   5.038  1.6003 -0.6761 -0.4826
   28MOL   H197 9971   2.504   1.619   4.889  0.2062 -0.1062  0.2229
   28MOL   H198 9972   2.699   1.564   4.762  2.2206  0.8800 -0.7037
   28MOL   H199 9973   2.729   1.707   4.867  1.0263  0.6045 -0.5230
   28MOL   C200 9974   2.947   1.510   4.855 -0.4711  0.6524  0.0410
   28MOL   O201 9975   2.982   1.558   4.742 -0.3516  0.1668 -0.0940
   28MOL   C202 9976   3.029   1.413   4.928 -0.2343  0.1579  0.4248
   28MOL   C203 9977   2.983   1.265   4.923 -0.1023  0.0659 -0.3864
   28MOL   C204 9978   2.935   1.201   4.790  0.1042 -0.0107 -0.4243
   28MOL   C205 9979   2.841   1.081   4.814 -0.2520 -0.4084  0.4267
   28MOL   C206 9980   2.775   1.034   4.683 -0.1002 -0.3755 -0.1323
   28MOL   O207 9981   2.713   1.147   4.617  0.3295 -0.1413 -0.4713
   28MOL   H208 9982   3.035   1.434   5.035  4.0372 -2.1415  0.7477
   28MOL   H209 9983   3.133   1.419   4.896 -0.6419  1.3709 -0.7274
   28MOL   H210 9984   2.910   1.261   5.004 -0.6742 -2.8591 -1.0083
   28MOL   H211 9985   3.073   1.216   4.961 -1.0464 -0.7429  0.8263
   28MOL   H212 9986   3.023   1.178   4.731  1.3590  0.6526  1.1819
   28MOL   H213 9987   2.878   1.276   4.734 -0.2083  3.3146  4.1099
   28MOL   H214 9988   2.760   1.106   4.883 -0.9887 -1.8555  0.0927
   28MOL   H215 9989   2.884   0.990   4.855 -1.0409 -1.8149 -1.8090
   28MOL   H216 9990   2.852   0.999   4.614  0.1863 -2.8340  1.3619
   28MOL   H217 9991   2.715   0.944   4.695  0.7262 -1.0871 -1.2164
   28MOL   C218 9992   2.616   1.125   4.515  0.0386  0.0220 -0.1091
   28MOL   O219 9993   2.561   1.020   4.482  0.1463  0.1363  0.0721
   28MOL   C220 9994   2.575   1.259   4.458 -0.2941  0.7071 -0.7527
   28MOL   C221 9995   2.527   1.354   4.564  0.4369 -0.6085  0.0539
   28MOL   C222 9996   2.452   1.472   4.506  0.7909 -0.2764  0.5617
   28MOL   C223 9997   2.404   1.574   4.613 -0.1996  0.0807  0.0790
   28MOL   C224 9998   2.333   1.693   4.542  0.2159  0.4202 -0.7972
   28MOL   O225 9999   2.279   1.799   4.623  0.2050 -0.0298  0.4220
   28MOL   H22610000   2.500   1.242   4.382  0.8766  0.7091 -1.9267
   28MOL   H22710001   2.657   1.298   4.397 -0.0789  0.0091 -0.9189
   28MOL   H22810002   2.606   1.408   4.617 -0.4009  2.6147 -1.8789
   28MOL   H22910003   2.470   1.298   4.638 -0.0755  1.0248  0.9214
   28MOL   H23010004   2.370   1.425   4.453  0.6210 -1.0645  1.5119
   28MOL   H23110005   2.510   1.521   4.428  1.1192 -0.3692  0.7442
   28MOL   H23210006   2.491   1.608   4.669  0.7132 -2.2259  0.0931
   28MOL   H23310007   2.336   1.521   4.679 -2.9685  0.7021 -2.1717
   28MOL   H23410008   2.404   1.746   4.479  2.0195  0.4987  1.2779
   28MOL   H23510009   2.253   1.644   4.485 -0.0160  1.3943 -1.3065
   28MOL   C23610010   2.148   1.804   4.645 -0.2543 -0.2695  0.4211
   28MOL   O23710011   2.064   1.721   4.620 -0.5202  0.0726  0.0842
   28MOL   C23810012   2.106   1.925   4.725 -0.6852 -0.2375 -0.3143
   28MOL   C23910013   1.966   1.984   4.708 -0.0061  0.3824 -0.3989
   28MOL   C24010014   1.865   1.951   4.815  0.2241 -0.2266 -0.6823
   28MOL   C24110015   1.890   2.023   4.956 -0.3208  0.1442  0.6728
   28MOL   C24210016   1.816   1.943   5.068 -0.2042  0.0538  0.1853
   28MOL   O24310017   1.679   1.930   5.034 -0.7938 -0.5039  0.0009
   28MOL   H24410018   2.181   1.999   4.696  0.7810 -1.9682 -1.0367
   28MOL   H24510019   2.129   1.914   4.831 -0.5596  0.1586 -0.2990
   28MOL   H24610020   1.926   1.951   4.612  0.7341  0.1249 -0.6274
   28MOL   H24710021   1.982   2.092   4.703 -1.4144  0.5361 -1.9974
   28MOL   H24810022   1.847   1.846   4.836 -1.2786  0.6611  2.8377
   28MOL   H24910023   1.771   1.993   4.778 -0.0030  0.5958  0.7961
   28MOL   H25010024   1.857   2.126   4.966 -0.1769  0.4197 -1.5088
   28MOL   H25110025   1.994   2.028   4.989 -0.4573  3.8273  0.6780
   28MOL   H25210026   1.868   1.847   5.069  1.7453  1.0735  3.3704
   28MOL   H25310027   1.830   1.982   5.168 -0.0835 -0.1969  0.2653
   28MOL   C25410028   1.605   1.819   5.056 -0.1128  0.0342 -0.0581
   28MOL   O25510029   1.638   1.713   5.108 -0.7275  0.2809  0.0962
   28MOL   C25610030   1.463   1.839   4.999 -1.0085 -0.6873  0.2727
   28MOL   C25710031   1.473   1.867   4.848  0.2559  0.5180 -0.5177
   28MOL   C25810032   1.512   1.756   4.744 -0.1067 -0.3082  0.1977
   28MOL   C25910033   1.534   1.815   4.603 -0.3801  0.0078  0.0243
   28MOL   C26010034   1.459   1.726   4.497 -0.4517  0.3824  0.2011
   28MOL   O26110035   1.417   1.810   4.391 -0.5209  0.4258  0.2581
   28MOL   H26210036   1.407   1.923   5.040 -1.6710  0.2800 -2.5192
   28MOL   H26310037   1.396   1.757   5.026 -0.4205 -1.1120  0.4636
   28MOL   H26410038   1.531   1.959   4.837 -0.2541  1.0109  0.8169
   28MOL   H26510039   1.372   1.899   4.823 -0.3545 -1.6683 -0.9795
   28MOL   H26610040   1.441   1.673   4.745  2.8734 -2.9929 -0.1904
   28MOL   H26710041   1.608   1.716   4.777  0.4222  0.9506  0.1972
   28MOL   H26810042   1.639   1.819   4.575 -1.0258  1.8875 -2.2976
   28MOL   H26910043   1.505   1.919   4.588 -1.3034 -0.4154 -1.2513
   28MOL   H27010044   1.526   1.650   4.458 -2.6885 -0.7410 -1.5078
   28MOL   H27110045   1.367   1.681   4.534  0.0856 -0.5821  0.3771
   28MOL   C27210046   1.306   1.891   4.413  0.2118  0.2262  0.0672
   28MOL   O27310047   1.233   1.890   4.509 -0.1861 -0.0325 -0.1407
   28MOL   C27410048   1.281   1.991   4.299  0.3509  0.2536 -0.0688
   28MOL   C27510049   1.148   1.954   4.227 -0.2985  0.5812 -0.2059
   28MOL   C27610050   1.156   1.829   4.142 -0.3657 -0.4122 -0.6289
   28MOL   C27710051   1.246   1.849   4.022 -0.1616 -0.8270  0.1044
   28MOL   C27810052   1.260   1.724   3.930  0.2906 -0.1035  0.1824
   28MOL   O27910053   1.347   1.618   3.983  0.1241 -0.5935  0.6177
   28MOL   H28010054   1.360   1.994   4.224  0.2352  0.2165 -0.1932
   28MOL   H28110055   1.291   2.092   4.338 -0.7146  0.6436 -0.7641
   28MOL   H28210056   1.117   2.039   4.167  0.6901  1.2980  0.2826
   28MOL   H28310057   1.069   1.938   4.300  0.7101 -2.5881  0.3018
   28MOL   H28410058   1.055   1.800   4.112 -0.1984 -1.9017  0.1792
   28MOL   H28510059   1.182   1.740   4.200 -2.4583 -1.0436 -0.6108
   28MOL   H28610060   1.345   1.883   4.050 -0.5264 -1.8427  2.7814
   28MOL   H28710061   1.213   1.937   3.967 -2.1296 -0.3355  1.9571
   28MOL   H28810062   1.163   1.677   3.914 -0.8941  2.9737 -2.0331
   28MOL   H28910063   1.299   1.757   3.834  1.0683  0.1719  0.5862
   28MOL   C29010064   1.480   1.638   3.967  0.1319 -0.7261 -0.7775
   28MOL   O29110065   1.534   1.739   3.919 -0.5669 -0.0443  0.0562
   28MOL   C29210066   1.560   1.524   4.031 -0.3681  0.1726 -0.7918
   28MOL   C29310067   1.678   1.482   3.930  0.0770 -1.0776 -0.0746
   28MOL   C29410068   1.627   1.398   3.813 -0.0285 -0.5740  0.6381
   28MOL   C29510069   1.735   1.349   3.723 -0.5453  0.2583 -0.3812
   28MOL   C29610070   1.680   1.260   3.614 -0.0647  0.7230  0.6750
   28MOL   O29710071   1.581   1.323   3.533  0.4995 -0.4815  0.1092
   28MOL   H29810072   1.495   1.445   4.067  0.3536 -0.0298  0.0827
   28MOL   H29910073   1.599   1.574   4.120 -1.5523  0.5665 -0.4943
   28MOL   H30010074   1.747   1.420   3.988  0.4220 -0.1563  0.5129
   28MOL   H30110075   1.730   1.570   3.892  0.0331 -0.4292  1.3022
   28MOL   H30210076   1.553   1.460   3.762  0.8093 -2.4703 -3.0378
   28MOL   H30310077   1.569   1.318   3.860 -0.4826 -1.9044 -2.0725
   28MOL   H30410078   1.807   1.295   3.784  0.3042  0.7676 -0.9321
   28MOL   H30510079   1.789   1.436   3.687  0.8263  0.0315  1.0851
   28MOL   H30610080   1.755   1.227   3.542 -2.0825 -0.8432 -0.7696
   28MOL   H30710081   1.626   1.174   3.654  2.6950 -1.3104  0.2115
   28MOL   C30810082   1.492   1.255   3.465 -0.2546  0.3635  0.2515
   28MOL   O30910083   1.500   1.133   3.455 -0.5621  0.0194 -0.4804
   28MOL   C31010084   1.399   1.337   3.375  0.0503 -0.0240  0.2884
   28MOL   C31110085   1.319   1.454   3.440  0.2112  0.6094 -1.0610
   28MOL   C31210086   1.262   1.552   3.339  0.7564 -0.5148  0.7796
   28MOL   C31310087   1.180   1.662   3.400  0.2630 -0.2121  0.0375
   28MOL   C31410088   1.110   1.754   3.302 -1.3814 -0.1338 -0.0273
   28MOL   O31510089   1.201   1.836   3.221 -0.3674  0.2492  0.4254
   28MOL   H31610090   1.321   1.276   3.330 -0.9580  1.2118  0.3266
   28MOL   H31710091   1.468   1.369   3.297 -0.6897  0.9352  0.0263
   28MOL   H31810092   1.384   1.504   3.511 -0.9211 -1.2281  1.3293
   28MOL   H31910093   1.242   1.408   3.501  1.4604  0.0551  0.1106
   28MOL   H32010094   1.194   1.492   3.279  2.3089 -0.4982 -1.0492
   28MOL   H32110095   1.335   1.600   3.273 -0.5785  1.3791  0.6605
   28MOL   H32210096   1.246   1.720   3.465 -0.2176  1.6894 -1.1078
   28MOL   H32310097   1.105   1.605   3.455  0.0274 -0.8128 -0.9045
   28MOL   H32410098   1.047   1.692   3.238  0.5918  1.1182 -3.3008
   28MOL   H32510099   1.043   1.818   3.359 -0.8677  0.4113 -0.0298
   28MOL   C32610100   1.128   1.917   3.127  0.3852  0.1664  0.0328
   28MOL   O32710101   1.009   1.927   3.123  0.1681 -0.0669 -0.4454
   28MOL   C32810102   1.215   2.005   3.036 -0.4142 -0.2145  0.2396
   28MOL   C32910103   1.189   2.151   3.064  0.0448 -0.5020  0.5202
   28MOL   C33010104   1.301   2.234   3.006 -0.2828 -0.8508  0.0564
   28MOL   C33110105   1.281   2.381   3.022 -0.2478 -0.5956  0.0809
   28MOL   C33210106   1.403   2.456   2.969  0.2000  0.3363  0.2807
   28MOL   O33310107   1.387   2.594   2.985  0.2479 -0.0812  0.5758
   28MOL   H33410108   1.181   1.977   2.937  0.6558  1.0572 -0.4997
   28MOL   H33510109   1.315   1.962   3.040 -0.0705  0.5162 -0.5479
   28MOL   H33610110   1.169   2.177   3.168  0.8149 -1.8251  1.0057
   28MOL   H33710111   1.096   2.183   3.017  0.4276 -2.4196 -1.6438
   28MOL   H33810112   1.311   2.206   2.901  0.4178 -2.6850  0.5815
   28MOL   H33910113   1.393   2.201   3.055 -0.1626 -1.1231 -0.3475
   28MOL   H34010114   1.266   2.405   3.128 -1.1384 -1.0313  0.0609
   28MOL   H34110115   1.193   2.411   2.965  0.6035  0.1593 -0.8517
   28MOL   H34210116   1.490   2.439   3.032 -0.9285  1.5935  2.2429
   28MOL   H34310117   1.429   2.427   2.868 -0.1134 -2.6528  0.9947
   28MOL   C34410118   1.296   2.666   2.914 -0.8753  0.3197 -0.6298
   28MOL   O34510119   1.239   2.619   2.815 -0.3133 -0.3039 -0.4766
   28MOL   C34610120   1.283   2.812   2.964 -0.3310  0.7276  0.2324
   28MOL   C34710121   1.370   2.911   2.890 -0.3562 -0.0438  0.8221
   28MOL   C34810122   1.338   2.950   2.746  0.5841 -0.3019 -0.3812
   28MOL   C34910123   1.462   3.008   2.675 -0.7268  0.2877  0.5817
   28MOL   C35010124   1.450   3.005   2.526  1.0214 -0.1096  0.2155
   28MOL   O35110125   1.439   2.873   2.475 -0.4237  0.3543  0.1215
   28MOL   H35210126   1.321   2.812   3.066  0.5181  0.7907 -0.0740
   28MOL   H35310127   1.178   2.841   2.967 -0.8821 -1.3893  2.6446
   28MOL   H35410128   1.465   2.860   2.880  0.5401  1.6041  0.8463
   28MOL   H35510129   1.380   2.996   2.957 -1.7501 -1.4527  2.8877
   28MOL   H35610130   1.250   3.014   2.741 -0.2322 -1.3632  0.2378
   28MOL   H35710131   1.313   2.861   2.688 -0.5810 -0.6878  0.6880
   28MOL   H35810132   1.551   2.953   2.708 -0.0043  0.1188 -1.6090
   28MOL   H35910133   1.472   3.112   2.706  0.1403  0.6013 -0.7025
   28MOL   H36010134   1.368   3.068   2.490  1.9138  1.0571  0.2014
   28MOL   H36110135   1.533   3.063   2.485  0.3615  0.4394 -0.3484
   28MOL   H36210136   1.417   2.889   2.384  1.0343 -0.9266 -0.4864
   29MOL     C110137   3.555   2.398   3.203  0.2703 -0.2612  0.4066
   29MOL     O210138   3.670   2.421   3.184 -0.3590 -0.2497 -0.2214
   29MOL     C310139   3.443   2.467   3.123 -0.1969 -0.2066 -0.0296
   29MOL     C410140   3.409   2.615   3.163  0.1025  0.1781  0.1374
   29MOL     C510141   3.322   2.626   3.287  0.2984  0.2174 -0.4081
   29MOL     C610142   3.292   2.775   3.314  0.1390 -0.2555 -0.0613
   29MOL     C710143   3.208   2.801   3.441  0.7774  0.0577  0.1937
   29MOL     O810144   3.074   2.747   3.424  0.0851  0.4244 -0.6657
   29MOL     H910145   3.350   2.410   3.128  0.7934 -1.6253  3.4449
   29MOL    H1010146   3.468   2.474   3.017 -1.0510  1.9676 -0.1201
   29MOL    H1110147   3.354   2.656   3.078 -1.0475  0.5765  1.0553
   29MOL    H1210148   3.505   2.666   3.172  1.1489 -1.4111 -1.8287
   29MOL    H1310149   3.368   2.577   3.373 -0.2114 -0.9839 -0.8025
   29MOL    H1410150   3.230   2.576   3.255  0.6558 -1.0387  0.4960
   29MOL    H1510151   3.240   2.815   3.226  0.9849 -0.6900 -0.7673
   29MOL    H1610152   3.385   2.833   3.316 -0.9801  1.5995 -0.2899
   29MOL    H1710153   3.254   2.735   3.515 -0.8750  0.3802  1.5554
   29MOL    H1810154   3.209   2.902   3.482 -2.5709  0.5780 -0.8569
   29MOL    H1910155   3.509   2.324   3.268  1.1633 -0.9383  0.2781
   29MOL    C2010156   2.986   2.780   3.525 -0.5026 -0.0563 -0.2905
   29MOL    O2110157   3.007   2.846   3.628  0.5564 -0.4835 -0.1797
   29MOL    C2210158   2.848   2.728   3.497  0.7335 -0.0000  0.2210
   29MOL    C2310159   2.742   2.837   3.523  0.1356 -0.6232 -0.2993
   29MOL    C2410160   2.601   2.788   3.493  0.4371 -0.0455  0.1207
   29MOL    C2510161   2.511   2.908   3.525 -0.3470  0.2504  0.2103
   29MOL    C2610162   2.367   2.875   3.496  0.3100  0.3810 -0.4425
   29MOL    O2710163   2.288   2.981   3.538 -0.3282  1.0199 -0.4133
   29MOL    H2810164   2.836   2.645   3.566  0.9851 -0.0730  0.1765
   29MOL    H2910165   2.831   2.700   3.393 -1.5443 -0.4979  0.7107
   29MOL    H3010166   2.755   2.936   3.479 -2.3545 -0.1520 -0.0259
   29MOL    H3110167   2.751   2.871   3.626 -1.5666 -0.8788 -0.0563
   29MOL    H3210168   2.584   2.701   3.556  0.7991  1.2594  2.0765
   29MOL    H3310169   2.588   2.746   3.394 -0.0115 -3.2651  1.4640
   29MOL    H3410170   2.545   2.995   3.469  2.6788 -1.3180 -0.5208
   29MOL    H3510171   2.520   2.940   3.629 -1.9036  3.4116 -0.5672
   29MOL    H3610172   2.350   2.853   3.390 -2.7074  2.3163 -0.4310
   29MOL    H3710173   2.333   2.794   3.561 -0.1744  0.6516 -0.3569
   29MOL    C3810174   2.264   3.082   3.452  0.0012 -0.0240 -0.1150
   29MOL    O3910175   2.283   3.080   3.331  0.3322  0.1271  0.0259
   29MOL    C4010176   2.192   3.209   3.521  0.6070 -0.1922 -0.1541
   29MOL    C4110177   2.284   3.322   3.558 -0.2715 -0.4401 -0.3092
   29MOL    C4210178   2.382   3.296   3.669  0.1967  0.1924  0.7279
   29MOL    C4310179   2.468   3.417   3.712  0.2789 -0.0936  0.7885
   29MOL    C4410180   2.588   3.394   3.798 -0.0896  0.2065  0.5378
   29MOL    O4510181   2.666   3.506   3.806  0.3861  0.4304 -0.2473
   29MOL    H4610182   2.132   3.184   3.609  0.9176  2.4223  0.8378
   29MOL    H4710183   2.124   3.254   3.450 -0.4881 -1.5205  0.0374
   29MOL    H4810184   2.231   3.414   3.581  1.8657  1.0085 -0.9626
   29MOL    H4910185   2.335   3.339   3.463 -0.1139  0.2811 -0.1039
   29MOL    H5010186   2.451   3.213   3.656  1.6989  1.5583 -0.1454
   29MOL    H5110187   2.319   3.267   3.754  0.4106  0.1131  0.8586
   29MOL    H5210188   2.398   3.482   3.766  0.0259  0.4595 -0.1924
   29MOL    H5310189   2.492   3.473   3.622 -0.1432 -2.5151 -0.8788
   29MOL    H5410190   2.556   3.356   3.895  0.9130  1.3599  1.3358
   29MOL    H5510191   2.635   3.311   3.744 -1.8747 -1.4044  1.4028
   29MOL    C5610192   2.787   3.522   3.748  0.1392 -0.9125 -0.2336
   29MOL    O5710193   2.853   3.435   3.686 -0.3387 -0.2408 -0.1507
   29MOL    C5810194   2.846   3.661   3.761  0.2024 -0.7557 -0.4363
   29MOL    C5910195   2.965   3.707   3.676 -0.0465  0.1329 -0.0857
   29MOL    C6010196   3.107   3.646   3.695  0.0795  0.0881 -0.2547
   29MOL    C6110197   3.151   3.653   3.848 -0.1356 -0.1979  0.4775
   29MOL    C6210198   3.292   3.594   3.871 -0.0298  0.4374 -0.4096
   29MOL    O6310199   3.296   3.473   3.940 -0.2840 -0.0647 -0.2220
   29MOL    H6410200   2.871   3.689   3.864 -1.3034 -1.1822  0.0588
   29MOL    H6510201   2.770   3.735   3.736  1.6921  1.4635  1.4538
   29MOL    H6610202   2.992   3.812   3.685  0.0235  0.2345 -1.4874
   29MOL    H6710203   2.940   3.691   3.572  0.0793  0.7946 -0.2162
   29MOL    H6810204   3.181   3.694   3.630  1.1918 -1.9105 -0.5240
   29MOL    H6910205   3.118   3.541   3.670  0.8467 -0.5023  2.3890
   29MOL    H7010206   3.083   3.602   3.917 -1.0995  0.6777  0.1831
   29MOL    H7110207   3.168   3.757   3.873  2.0957 -0.3334 -0.3221
   29MOL    H7210208   3.346   3.575   3.778  0.2532  2.0704 -0.6028
   29MOL    H7310209   3.354   3.664   3.927 -1.8779  2.2185 -0.5425
   29MOL    C7410210   3.300   3.465   4.074  0.1977 -0.1745 -0.7722
   29MOL    O7510211   3.266   3.555   4.148  0.2784  0.5357  0.1709
   29MOL    C7610212   3.343   3.326   4.129  0.5257  0.2090 -0.7291
   29MOL    C7710213   3.321   3.208   4.027 -0.2334  0.4442  0.2219
   29MOL    C7810214   3.326   3.067   4.084 -0.0974 -0.6348  1.0339
   29MOL    C7910215   3.246   2.962   3.994  0.0074 -0.5029  1.2483
   29MOL    C8010216   3.301   2.960   3.849  0.4879  0.0855 -0.0943
   29MOL    O8110217   3.441   2.956   3.844  0.5511  0.5686  0.6462
   29MOL    H8210218   3.271   3.315   4.209  0.2809 -1.5248 -1.1671
   29MOL    H8310219   3.448   3.325   4.157  0.1574 -0.7451  0.6491
   29MOL    H8410220   3.392   3.206   3.944  0.7179 -0.7302  1.0405
   29MOL    H8510221   3.224   3.218   3.978 -0.6362 -2.3347  0.3367
   29MOL    H8610222   3.274   3.061   4.179 -1.2815  1.0257  0.5285
   29MOL    H8710223   3.430   3.036   4.097 -0.3026 -1.2801  1.1547
   29MOL    H8810224   3.141   2.987   3.990  0.2928  0.8962  2.2010
   29MOL    H8910225   3.241   2.863   4.038  2.0418 -1.5326 -0.6627
   29MOL    H9010226   3.258   2.876   3.795  0.1219  1.1585 -1.5063
   29MOL    H9110227   3.258   3.043   3.794  0.8549  0.1163 -0.3371
   29MOL    C9210228   3.493   2.901   3.736  0.0210  0.2602  0.1419
   29MOL    O9310229   3.421   2.841   3.652  0.2098 -0.3530  0.1116
   29MOL    C9410230   3.645   2.933   3.714 -0.1866 -0.1539  0.0039
   29MOL    C9510231   3.706   2.882   3.592 -0.3058 -0.5492 -0.5476
   29MOL    C9610232   3.719   2.727   3.575 -0.5505  0.3816 -0.2641
   29MOL    C9710233   3.792   2.712   3.442  0.3084  0.0706  0.3165
   29MOL    C9810234   3.804   2.568   3.400 -0.5324 -0.1320  0.2278
   29MOL    O9910235   3.904   2.503   3.477 -0.1287  0.6037 -0.3067
   29MOL   H10010236   3.697   2.886   3.798  0.0499  0.2771  0.1016
   29MOL   H10110237   3.673   3.038   3.721 -1.5099  0.1715  0.5654
   29MOL   H10210238   3.811   2.911   3.600 -0.8207  1.1567  0.1386
   29MOL   H10310239   3.684   2.937   3.501 -1.3997 -0.7334 -0.3899
   29MOL   H10410240   3.622   2.679   3.563  0.6498 -2.1405 -0.1436
   29MOL   H10510241   3.784   2.677   3.648 -2.5291 -1.7266  0.1105
   29MOL   H10610242   3.891   2.755   3.435  0.1112  0.3408 -0.8443
   29MOL   H10710243   3.727   2.758   3.367 -0.7428 -0.5536  0.8304
   29MOL   H10810244   3.708   2.518   3.411  0.2798 -1.4748  1.3799
   29MOL   H10910245   3.842   2.575   3.298 -1.1831 -2.1366 -0.1620
   29MOL   C11010246   3.875   2.408   3.560  0.0734  0.4049 -0.7667
   29MOL   O11110247   3.770   2.348   3.561 -0.2828 -0.3224  0.1388
   29MOL   C11210248   3.983   2.366   3.650  0.0988 -0.4880  0.2852
   29MOL   C11310249   4.076   2.477   3.698 -0.7994  0.6600 -0.1121
   29MOL   C11410250   4.018   2.574   3.805 -0.1684 -0.1563 -0.1377
   29MOL   C11510251   4.105   2.699   3.833 -0.0173  0.3063 -0.0651
   29MOL   C11610252   4.044   2.776   3.949  0.4123 -0.2224 -0.0848
   29MOL   O11710253   4.132   2.873   3.996 -0.0033 -0.2113  0.0935
   29MOL   H11810254   4.031   2.288   3.591  0.1379 -2.1094  2.4011
   29MOL   H11910255   3.948   2.316   3.740  1.9878 -0.4687  1.0425
   29MOL   H12010256   4.112   2.540   3.616 -0.2855  1.9843  1.1086
   29MOL   H12110257   4.162   2.420   3.732 -0.4447  2.0056  1.2918
   29MOL   H12210258   4.017   2.519   3.899  0.2295  0.8962  0.4933
   29MOL   H12310259   3.912   2.591   3.786 -0.5210 -0.0243  1.8737
   29MOL   H12410260   4.103   2.768   3.748  0.3541 -0.6905 -0.8953
   29MOL   H12510261   4.210   2.669   3.841  0.2686  1.5544  1.0099
   29MOL   H12610262   3.951   2.825   3.918  2.0661  3.5923  0.8671
   29MOL   H12710263   4.006   2.714   4.030  1.1427  0.5634  0.8547
   29MOL   C12810264   4.142   2.991   3.935 -0.3166  0.3857  0.3246
   29MOL   O12910265   4.068   3.032   3.844  0.5193  0.1434 -0.1861
   29MOL   C13010266   4.256   3.073   3.995  0.2726  0.3634 -0.8380
   29MOL   C13110267   4.246   3.099   4.151  0.8149 -0.6702 -0.3262
   29MOL   C13210268   4.112   3.174   4.190  0.0161  0.1920  0.5650
   29MOL   C13310269   4.108   3.225   4.339  0.1297  0.0777 -0.0260
   29MOL   C13410270   3.975   3.277   4.388 -0.2608  0.1740 -0.5568
   29MOL   O13510271   3.979   3.330   4.526  0.3745  0.5384  0.1027
   29MOL   H13610272   4.258   3.167   3.941 -1.8810  1.6527  1.2598
   29MOL   H13710273   4.346   3.014   3.978  0.3775 -0.2982  1.7855
   29MOL   H13810274   4.336   3.157   4.169  0.1099  0.7417 -1.1729
   29MOL   H13910275   4.255   3.008   4.209  0.5967 -0.3843  0.1558
   29MOL   H14010276   4.033   3.101   4.176 -1.2997  1.4538  1.3075
   29MOL   H14110277   4.086   3.251   4.118 -1.1973 -0.2475  0.5249
   29MOL   H14210278   4.181   3.305   4.349 -3.0178  2.8685  1.7583
   29MOL   H14310279   4.135   3.139   4.399 -3.6787 -1.1548  0.0796
   29MOL   H14410280   3.933   3.351   4.320 -2.1542  0.2271  0.6307
   29MOL   H14510281   3.897   3.202   4.392 -0.0319 -0.0314  0.2359
   29MOL   C14610282   3.958   3.245   4.626 -0.4201 -0.2855 -0.0912
   29MOL   O14710283   3.965   3.123   4.620 -0.1054  0.3150 -0.0434
   29MOL   C14810284   3.950   3.314   4.759 -1.2452  0.1529 -0.6154
   29MOL   C14910285   3.839   3.420   4.775 -0.2674 -0.1859 -0.7450
   29MOL   C15010286   3.846   3.482   4.923 -0.9386  0.2423  0.0953
   29MOL   C15110287   3.753   3.596   4.955  0.2629 -0.0624  0.3224
   29MOL   C15210288   3.610   3.536   4.954  0.1836 -0.2603  0.2136
   29MOL   O15310289   3.537   3.533   4.823  0.0552  0.4045  0.3153
   29MOL   H15410290   4.040   3.375   4.764 -1.5657  0.7152 -1.5775
   29MOL   H15510291   3.954   3.245   4.844  0.1051 -2.5378 -2.7751
   29MOL   H15610292   3.736   3.388   4.761 -0.3143 -1.2931  1.7400
   29MOL   H15710293   3.860   3.506   4.712 -1.0160  0.3260 -0.3044
   29MOL   H15810294   3.948   3.503   4.958 -1.4310  0.8495  1.1847
   29MOL   H15910295   3.821   3.406   4.996  2.0437 -0.1064  0.8298
   29MOL   H16010296   3.756   3.679   4.885 -1.2049 -0.4428 -0.2138
   29MOL   H16110297   3.786   3.640   5.049  1.2563  2.3427 -1.1170
   29MOL   H16210298   3.611   3.433   4.990 -4.3296 -0.3447  0.4440
   29MOL   H16310299   3.545   3.587   5.025  0.8777  1.2950 -0.2400
   29MOL   C16410300   3.496   3.650   4.766 -0.5561 -0.1916 -0.7995
   29MOL   O16510301   3.517   3.764   4.809  0.0254 -0.0692  0.3655
   29MOL   C16610302   3.399   3.638   4.645  0.3413 -0.3737  1.0984
   29MOL   C16710303   3.263   3.586   4.669  0.5594  0.0731  0.4243
   29MOL   C16810304   3.247   3.444   4.652  0.2047  0.7827  0.2798
   29MOL   C16910305   3.262   3.405   4.507  0.1501 -0.1870 -0.0443
   29MOL   C17010306   3.243   3.256   4.498  0.2361  0.3240  0.6128
   29MOL   O17110307   3.348   3.181   4.562 -0.1307  0.1385 -0.2806
   29MOL   H17210308   3.461   3.589   4.570  2.6104 -1.7791  3.7906
   29MOL   H17310309   3.393   3.743   4.613 -1.0842 -0.3199  1.5004
   29MOL   H17410310   3.201   3.639   4.596 -1.0626  0.0664  1.7413
   29MOL   H17510311   3.228   3.614   4.769 -3.0650 -0.2086 -0.7012
   29MOL   H17610312   3.143   3.423   4.677  1.0975 -2.7824  1.3740
   29MOL   H17710313   3.302   3.389   4.729 -2.9154  0.8630  2.6858
   29MOL   H17810314   3.359   3.435   4.467  0.3616 -1.0405 -0.1844
   29MOL   H17910315   3.192   3.457   4.443 -0.1735 -0.1916  0.3066
   29MOL   H18010316   3.148   3.243   4.551  0.3335 -1.4831  0.3756
   29MOL   H18110317   3.235   3.223   4.395 -3.7215  0.2316  0.8523
   29MOL   C18210318   3.473   3.180   4.510  0.1739 -0.0656 -0.1088
   29MOL   O18310319   3.506   3.220   4.399  0.2074 -0.0198  0.4584
   29MOL   C18410320   3.576   3.114   4.601 -0.1854 -0.0249 -0.2325
   29MOL   C18510321   3.538   3.124   4.754  0.3091  0.0440  0.3636
   29MOL   C18610322   3.653   3.056   4.829 -0.4088 -0.2271 -0.5885
   29MOL   C18710323   3.647   3.072   4.983 -0.6108  0.0684  0.2462
   29MOL   C18810324   3.762   3.016   5.066 -0.6627 -0.0155 -0.5290
   29MOL   O18910325   3.772   2.879   5.042  0.2611 -0.6296 -0.2705
   29MOL   H19010326   3.668   3.171   4.592  1.5380 -2.8107 -0.9679
   29MOL   H19110327   3.606   3.014   4.568 -0.0176 -0.6971  1.8939
   29MOL   H19210328   3.445   3.077   4.788  2.1639 -3.1499  1.2203
   29MOL   H19310329   3.546   3.227   4.787 -3.8954  0.6007 -0.0480
   29MOL   H19410330   3.750   3.096   4.799 -1.5422  3.4782  0.4191
   29MOL   H19510331   3.642   2.952   4.799  0.6601 -0.0653 -1.6127
   29MOL   H19610332   3.551   3.027   5.008 -1.0340  0.4621 -0.6419
   29MOL   H19710333   3.643   3.179   5.002 -0.2300 -0.1377  1.5135
   29MOL   H19810334   3.856   3.067   5.042 -0.4004  0.5600  1.6107
   29MOL   H19910335   3.733   3.039   5.168  2.5803 -2.3768  1.0052
   29MOL   C20010336   3.877   2.799   5.095  0.5808  0.2308 -0.0720
   29MOL   O20110337   3.966   2.836   5.177 -0.1106  0.0759 -0.3335
   29MOL   C20210338   3.878   2.662   5.038  0.1232 -0.1135  1.0855
   29MOL   C20310339   3.956   2.655   4.912 -0.0484 -0.1042 -0.6427
   29MOL   C20410340   3.881   2.582   4.797  0.0048 -0.0734 -0.4611
   29MOL   C20510341   3.792   2.673   4.713  0.7185 -0.2649  0.4624
   29MOL   C20610342   3.683   2.588   4.640  0.0376  0.6555 -0.3623
   29MOL   O20710343   3.626   2.669   4.539 -0.9371  0.2573 -0.2764
   29MOL   H20810344   3.771   2.640   5.033 -0.1027  0.6637  2.3037
   29MOL   H20910345   3.916   2.599   5.119  1.5837  0.1933  0.6451
   29MOL   H21010346   4.054   2.608   4.926  0.8050  1.3581 -1.5429
   29MOL   H21110347   4.001   2.750   4.881 -2.1940  0.5021 -2.0285
   29MOL   H21210348   3.818   2.505   4.842 -0.1415 -0.0370 -0.6020
   29MOL   H21310349   3.944   2.514   4.741 -0.1054 -0.3727 -0.2197
   29MOL   H21410350   3.851   2.739   4.649 -1.0418  1.1354  0.2484
   29MOL   H21510351   3.741   2.746   4.776 -0.3336 -0.8221  0.2633
   29MOL   H21610352   3.712   2.488   4.607 -0.3599  0.0843  0.9991
   29MOL   H21710353   3.605   2.559   4.710  0.7147 -0.8860 -0.2178
   29MOL   C21810354   3.529   2.625   4.469 -0.8724  0.3965 -0.6906
   29MOL   O21910355   3.479   2.511   4.476 -0.1147 -0.0483 -0.5615
   29MOL   C22010356   3.487   2.724   4.362 -0.3078  0.4586  0.3197
   29MOL   C22110357   3.400   2.833   4.415  0.2802 -0.0889 -0.7452
   29MOL   C22210358   3.248   2.793   4.438 -0.9350  0.1842 -0.2977
   29MOL   C22310359   3.149   2.900   4.475  0.3792 -0.5447 -0.2292
   29MOL   C22410360   3.009   2.849   4.496 -0.4285  0.0729 -0.7799
   29MOL   O22510361   2.929   2.947   4.564 -0.0446  0.3303 -0.1678
   29MOL   H22610362   3.442   2.665   4.282  1.4299 -0.8333  0.2804
   29MOL   H22710363   3.573   2.764   4.308 -0.2050  0.8582  0.7756
   29MOL   H22810364   3.405   2.914   4.342  0.6742  0.2414 -0.3508
   29MOL   H22910365   3.432   2.874   4.511 -0.5098 -3.5988  1.1180
   29MOL   H23010366   3.237   2.714   4.512 -1.0724 -0.0786 -0.5995
   29MOL   H23110367   3.215   2.750   4.343  1.2271  0.8971 -1.3973
   29MOL   H23210368   3.144   2.971   4.393  1.3475 -2.0838 -1.6736
   29MOL   H23310369   3.179   2.955   4.564  1.6747 -1.1763 -0.2643
   29MOL   H23410370   2.974   2.808   4.401 -1.5827  0.3958 -0.5074
   29MOL   H23510371   3.019   2.762   4.562 -0.7870  0.3023 -0.4245
   29MOL   C23610372   2.867   3.031   4.483  0.6382 -0.9511 -0.2270
   29MOL   O23710373   2.872   3.034   4.361 -0.0171  0.5753  0.7123
   29MOL   C23810374   2.778   3.128   4.560 -0.1558  0.3129  0.3890
   29MOL   C23910375   2.805   3.277   4.526 -0.1445 -0.3794  0.2240
   29MOL   C24010376   2.716   3.369   4.605 -0.2510 -0.4609 -0.0981
   29MOL   C24110377   2.739   3.515   4.562 -0.1867 -0.8664 -0.7652
   29MOL   C24210378   2.647   3.613   4.645  0.6008  0.3880 -0.0559
   29MOL   O24310379   2.508   3.601   4.592  0.0326 -0.1304 -0.3914
   29MOL   H24410380   2.772   3.099   4.665  0.8600 -0.2584  0.2972
   29MOL   H24510381   2.673   3.113   4.533 -0.2868 -0.5330  1.3752
   29MOL   H24610382   2.809   3.304   4.421  1.6313  0.1207  0.4030
   29MOL   H24710383   2.909   3.295   4.553 -0.3963  3.1032 -0.9150
   29MOL   H24810384   2.732   3.354   4.712  2.0837  1.2028 -0.1568
   29MOL   H24910385   2.622   3.324   4.574 -0.9836  1.5649 -0.8777
   29MOL   H25010386   2.717   3.521   4.456 -4.1591  1.7320  0.0881
   29MOL   H25110387   2.843   3.536   4.585 -0.1289 -1.3208 -0.5964
   29MOL   H25210388   2.641   3.575   4.747  0.7533  1.0745  0.2137
   29MOL   H25310389   2.668   3.720   4.645 -0.5110  0.6091 -0.3495
   29MOL   C25410390   2.405   3.665   4.652 -0.4478  0.1850  0.1843
   29MOL   O25510391   2.409   3.725   4.757 -0.1481  0.1578 -0.3841
   29MOL   C25610392   2.277   3.666   4.573  0.2260  0.1551 -0.3564
   29MOL   C25710393   2.227   3.522   4.568  0.1439  0.3322  0.4885
   29MOL   C25810394   2.094   3.515   4.493  0.0716  0.3231  0.1693
   29MOL   C25910395   2.050   3.362   4.485  0.8321 -0.0383 -0.1242
   29MOL   C26010396   1.927   3.341   4.385  0.3869 -0.3568  0.5176
   29MOL   O26110397   1.957   3.382   4.260 -1.2090  0.0270 -0.2796
   29MOL   H26210398   2.288   3.718   4.478 -1.3847  0.6286 -0.3000
   29MOL   H26310399   2.203   3.724   4.628  0.0936  0.8602 -1.2659
   29MOL   H26410400   2.215   3.467   4.661  2.5555 -0.1169  0.5729
   29MOL   H26510401   2.301   3.468   4.509 -0.6339  0.8705 -1.0056
   29MOL   H26610402   2.112   3.565   4.398 -0.6579  1.7612  0.7676
   29MOL   H26710403   2.014   3.574   4.538 -1.0213 -0.8253 -0.2660
   29MOL   H26810404   2.015   3.324   4.580  2.1587 -1.3046 -0.1234
   29MOL   H26910405   2.137   3.300   4.465  1.4912  0.0132  2.4077
   29MOL   H27010406   1.897   3.236   4.396 -1.9599  0.2275 -0.0675
   29MOL   H27110407   1.840   3.396   4.420  0.2010  0.6491 -1.4769
   29MOL   C27210408   1.967   3.299   4.156 -0.0409 -0.3632  0.0105
   29MOL   O27310409   1.931   3.185   4.157  0.0655  0.0876 -0.4594
   29MOL   C27410410   2.025   3.366   4.033 -0.7059 -0.1014  0.2411
   29MOL   C27510411   2.064   3.266   3.921  0.3232 -0.0223  0.1907
   29MOL   C27610412   1.946   3.230   3.825 -0.4862 -0.6247  0.6174
   29MOL   C27710413   1.915   3.338   3.715  0.6724 -0.1043  0.7431
   29MOL   C27810414   1.775   3.321   3.651 -0.1119  0.7230  0.0092
   29MOL   O27910415   1.746   3.423   3.557 -0.0193 -0.0052 -0.0445
   29MOL   H28010416   2.123   3.409   4.056 -1.6114  1.6218  0.9591
   29MOL   H28110417   1.958   3.441   3.993  1.2156  0.4683 -2.0496
   29MOL   H28210418   2.115   3.175   3.950 -0.9663 -1.0130 -0.5760
   29MOL   H28310419   2.136   3.318   3.858 -0.5139 -0.2983 -1.0028
   29MOL   H28410420   1.854   3.212   3.879 -0.7760 -1.6223 -0.1918
   29MOL   H28510421   1.969   3.137   3.772 -1.4048 -0.0115 -0.8928
   29MOL   H28610422   1.993   3.325   3.640 -0.4658 -0.7639 -0.3462
   29MOL   H28710423   1.919   3.437   3.762  2.4271 -0.3008  1.0637
   29MOL   H28810424   1.764   3.226   3.598  2.0117  1.8029 -2.5024
   29MOL   H28910425   1.692   3.340   3.719  0.5196  0.4903  0.8570
   29MOL   C29010426   1.800   3.412   3.427  0.5927  0.5957  0.3384
   29MOL   O29110427   1.879   3.320   3.397  0.7676 -0.6792  0.5296
   29MOL   C29210428   1.763   3.516   3.327 -0.1008  0.2692 -0.1628
   29MOL   C29310429   1.811   3.655   3.360  0.0010  0.1563 -0.4775
   29MOL   C29410430   1.719   3.727   3.463  0.2384 -0.4071 -0.2661
   29MOL   C29510431   1.790   3.856   3.516 -0.3420 -0.4866 -0.1768
   29MOL   C29610432   1.703   3.939   3.615  0.3780 -0.1197  0.1551
   29MOL   O29710433   1.677   3.883   3.746  0.2547  0.3152  0.4744
   29MOL   H29810434   1.657   3.526   3.303 -0.4157  2.1090  1.8198
   29MOL   H29910435   1.821   3.482   3.241 -0.7220  0.5231 -0.6886
   29MOL   H30010436   1.826   3.716   3.271  1.6219 -3.0231 -2.4613
   29MOL   H30110437   1.909   3.634   3.402 -0.7210 -1.0518  0.6122
   29MOL   H30210438   1.710   3.676   3.559  2.9425  0.0923  0.2927
   29MOL   H30310439   1.626   3.750   3.412 -0.5019 -1.0582  0.7666
   29MOL   H30410440   1.806   3.912   3.424  0.9827  0.3579  0.5465
   29MOL   H30510441   1.886   3.835   3.565 -1.7167 -0.6667  2.5443
   29MOL   H30610442   1.732   4.044   3.629 -0.4099 -0.1206  1.9715
   29MOL   H30710443   1.605   3.960   3.573  0.6259 -0.4195 -0.5657
   29MOL   C30810444   1.774   3.878   3.845  0.2680  0.1315 -0.2443
   29MOL   O30910445   1.887   3.939   3.847  0.1527 -0.1702 -0.1802
   29MOL   C31010446   1.730   3.788   3.962  0.6594  0.2414  0.1276
   29MOL   C31110447   1.706   3.642   3.927  0.1602 -0.0556  0.3782
   29MOL   C31210448   1.698   3.546   4.048 -0.0631 -0.3149  0.4917
   29MOL   C31310449   1.570   3.563   4.125 -0.2097 -0.2558  0.2401
   29MOL   C31410450   1.562   3.448   4.229  0.2361  0.3012  0.5297
   29MOL   O31510451   1.545   3.322   4.164 -0.5841 -0.2504  0.2383
   29MOL   H31610452   1.641   3.840   3.997 -0.2135 -0.4127 -1.0762
   29MOL   H31710453   1.804   3.804   4.040  1.6151 -1.0801 -0.4996
   29MOL   H31810454   1.783   3.615   3.854 -1.2280  1.7715 -1.8429
   29MOL   H31910455   1.618   3.630   3.864 -0.9516 -1.0118  2.0959
   29MOL   H32010456   1.782   3.565   4.115 -1.8485 -0.4299  2.8070
   29MOL   H32110457   1.702   3.444   4.010 -1.5995  0.3205 -1.4964
   29MOL   H32210458   1.485   3.562   4.057  0.7906 -0.5510 -1.0169
   29MOL   H32310459   1.588   3.662   4.167  2.2139 -0.3875 -0.4193
   29MOL   H32410460   1.653   3.434   4.288 -0.5765  0.0641  1.7522
   29MOL   H32510461   1.477   3.461   4.296 -0.6538 -0.0835 -0.5228
   29MOL   C32610462   1.561   3.207   4.233 -0.0948  0.4626 -0.8612
   29MOL   O32710463   1.591   3.197   4.352 -0.1489 -0.4779 -0.2659
   29MOL   C32810464   1.534   3.080   4.143  0.0699 -0.2839  0.4652
   29MOL   C32910465   1.590   3.080   4.000 -0.1165  0.9331 -0.5634
   29MOL   C33010466   1.527   2.980   3.905 -0.3143  0.6373  0.7340
   29MOL   C33110467   1.563   3.002   3.757 -0.2009 -0.1058 -0.5343
   29MOL   C33210468   1.469   3.104   3.695  0.9450 -0.5608  0.0253
   29MOL   O33310469   1.529   3.133   3.562 -0.0880 -0.1647 -1.1867
   29MOL   H33410470   1.425   3.074   4.147  0.0558 -3.2888 -2.4305
   29MOL   H33510471   1.562   2.989   4.196 -1.0289 -1.4826 -0.9699
   29MOL   H33610472   1.697   3.060   4.000 -0.1211  0.6716  1.8155
   29MOL   H33710473   1.582   3.184   3.971 -0.6229  0.6549 -1.4227
   29MOL   H33810474   1.419   2.993   3.908 -0.6490 -1.7871  0.2187
   29MOL   H33910475   1.552   2.880   3.943  1.3453  0.9297  0.4636
   29MOL   H34010476   1.569   2.910   3.699 -0.4713  1.6935 -3.5254
   29MOL   H34110477   1.667   3.034   3.762  0.4744 -2.4421  1.6681
   29MOL   H34210478   1.374   3.051   3.683  0.9534 -0.5995  0.1347
   29MOL   H34310479   1.460   3.196   3.753 -0.6135 -0.6025 -0.1321
   29MOL   C34410480   1.464   3.096   3.446 -0.0522  0.0850 -0.8476
   29MOL   O34510481   1.356   3.043   3.436 -0.8598 -1.0123  0.6919
   29MOL   C34610482   1.544   3.130   3.328  0.2778 -0.2590 -0.2262
   29MOL   C34710483   1.689   3.077   3.332  0.1151  0.5282  0.0415
   29MOL   C34810484   1.701   2.923   3.332  0.6432 -0.3618  1.0005
   29MOL   C34910485   1.620   2.846   3.229 -0.3468  0.4867 -0.6697
   29MOL   C35010486   1.665   2.697   3.208 -0.1986 -0.2847  0.3798
   29MOL   O35110487   1.673   2.620   3.325 -0.5971 -0.3685 -0.2522
   29MOL   H35210488   1.539   3.238   3.317 -1.0206 -0.2254  0.6604
   29MOL   H35310489   1.501   3.089   3.236  1.2065  2.4281 -1.9253
   29MOL   H35410490   1.744   3.112   3.420  1.9642  1.2083 -1.3480
   29MOL   H35510491   1.735   3.120   3.243  1.5141 -0.0747  0.4561
   29MOL   H35610492   1.681   2.883   3.431 -0.6035  0.1299  0.9516
   29MOL   H35710493   1.803   2.888   3.317  0.0378 -1.2809 -1.1593
   29MOL   H35810494   1.629   2.906   3.138  3.3135  0.8824 -0.1276
   29MOL   H35910495   1.519   2.853   3.269 -0.3034  0.8655 -0.6173
   29MOL   H36010496   1.593   2.648   3.142 -0.8833  0.1078  0.8357
   29MOL   H36110497   1.762   2.696   3.159  1.2207 -0.5496  3.0984
   29MOL   H36210498   1.589   2.582   3.345 -0.5937 -0.5285 -0.5429
   30MOL     C110499   6.038   2.324   6.248  0.0276  0.3689  0.1207
   30MOL     O210500   6.154   2.332   6.284  0.4389  0.2183  0.2686
   30MOL     C310501   5.964   2.185   6.251  0.6045  0.2747 -0.7432
   30MOL     C410502   6.053   2.061   6.218 -0.0907 -0.1365  0.4769
   30MOL     C510503   5.967   1.925   6.239  0.1990 -0.4274 -0.2001
   30MOL     C610504   6.030   1.799   6.167  0.1919 -0.0761 -0.6455
   30MOL     C710505   5.927   1.690   6.159  0.2425  0.0703  0.3827
   30MOL     O810506   5.880   1.639   6.284  0.2431  0.2643 -0.0759
   30MOL     H910507   5.895   2.189   6.167 -2.5496 -0.8381  1.7146
   30MOL    H1010508   5.913   2.162   6.345  4.7294  1.6222  1.9885
   30MOL    H1110509   6.140   2.043   6.281 -0.1674 -1.7145  0.1508
   30MOL    H1210510   6.098   2.064   6.119 -2.8615 -0.9661 -0.8655
   30MOL    H1310511   5.870   1.937   6.190 -0.4171 -0.8154  0.9083
   30MOL    H1410512   5.947   1.923   6.346 -1.3577 -0.2998 -0.4720
   30MOL    H1510513   6.117   1.758   6.219 -1.4707 -1.7119  0.9408
   30MOL    H1610514   6.062   1.827   6.067  2.2609 -0.5308 -0.1291
   30MOL    H1710515   5.840   1.722   6.102 -0.2099 -0.2705  0.8792
   30MOL    H1810516   5.972   1.605   6.108  0.6325  0.0853  0.6954
   30MOL    H1910517   5.982   2.407   6.204  1.6682  0.6857 -1.4424
   30MOL    C2010518   5.809   1.528   6.289 -0.3955 -0.0350 -0.3045
   30MOL    O2110519   5.731   1.483   6.198  0.1153  0.3499 -0.2897
   30MOL    C2210520   5.822   1.456   6.426  0.0173  0.5477  1.0568
   30MOL    C2310521   5.952   1.388   6.448 -0.3391 -0.0581  0.1519
   30MOL    C2410522   5.967   1.256   6.377  0.2589  0.4870 -0.8104
   30MOL    C2510523   6.059   1.156   6.461 -0.1925  0.7657 -0.0248
   30MOL    C2610524   6.092   1.021   6.393  0.0875  0.3486  0.4307
   30MOL    O2710525   6.000   1.011   6.283  0.2252 -0.3084 -0.5673
   30MOL    H2810526   5.748   1.379   6.447 -0.0221  0.6317  1.2241
   30MOL    H2910527   5.804   1.531   6.502 -2.3065  0.4739  0.6151
   30MOL    H3010528   5.946   1.367   6.555 -0.3834  0.6528  0.2907
   30MOL    H3110529   6.034   1.456   6.430  0.5206 -1.5156 -1.6384
   30MOL    H3210530   6.015   1.268   6.280  1.7620 -1.2821 -0.3156
   30MOL    H3310531   5.871   1.210   6.356  1.0445 -0.4370 -2.4417
   30MOL    H3410532   6.007   1.125   6.552 -1.5541  2.6944 -0.0982
   30MOL    H3510533   6.150   1.209   6.491  1.4314 -2.1798  0.4584
   30MOL    H3610534   6.192   1.032   6.352  0.1142 -1.1125  0.0571
   30MOL    H3710535   6.094   0.943   6.469 -1.7469 -0.2401 -0.0958
   30MOL    C3810536   5.945   0.903   6.244 -0.1979  0.0963  0.5575
   30MOL    O3910537   5.961   0.796   6.293 -0.3877 -0.4607  0.2386
   30MOL    C4010538   5.867   0.914   6.114  0.1412  0.5740  0.3546
   30MOL    C4110539   5.741   1.002   6.138  1.0520  0.2316 -0.1935
   30MOL    C4210540   5.618   0.911   6.181  0.6646  0.3236 -0.3142
   30MOL    C4310541   5.488   0.968   6.238  0.9412 -0.4233 -0.3539
   30MOL    C4410542   5.388   0.859   6.272 -0.0727  0.0408 -0.0604
   30MOL    O4510543   5.349   0.850   6.409 -0.2347  0.1363 -0.1856
   30MOL    H4610544   5.839   0.821   6.065 -0.6743  1.0383 -0.0563
   30MOL    H4710545   5.930   0.967   6.041 -2.8235  2.3300 -1.0246
   30MOL    H4810546   5.707   1.061   6.053  1.6456  0.9932  0.0888
   30MOL    H4910547   5.752   1.080   6.213 -0.1092  0.7285 -0.5321
   30MOL    H5010548   5.660   0.839   6.251  0.0165 -0.6132 -0.8911
   30MOL    H5110549   5.596   0.857   6.089  2.5941 -1.2455  0.1261
   30MOL    H5210550   5.437   1.042   6.177 -0.4068 -0.1030  1.1008
   30MOL    H5310551   5.522   1.026   6.324 -0.5243 -0.3848  0.2166
   30MOL    H5410552   5.299   0.880   6.212 -1.1173 -2.6505  0.4679
   30MOL    H5510553   5.432   0.764   6.240  0.8554  0.2075  0.7104
   30MOL    C5610554   5.248   0.770   6.443  0.1008  1.2413  0.3757
   30MOL    O5710555   5.184   0.704   6.366 -0.0757  0.0849 -0.2347
   30MOL    C5810556   5.236   0.758   6.591  0.7566 -0.4227 -0.4495
   30MOL    C5910557   5.202   0.614   6.630 -1.2040 -0.3046  0.4977
   30MOL    C6010558   5.255   0.579   6.772  0.1436  0.2698  0.7583
   30MOL    C6110559   5.216   0.437   6.823  0.8725 -0.3900  0.2498
   30MOL    C6210560   5.090   0.425   6.905  0.4244  0.0147  0.2673
   30MOL    O6310561   4.979   0.438   6.814 -0.0032 -0.1205  0.2282
   30MOL    H6410562   5.166   0.831   6.633  2.5376  1.3919 -0.5739
   30MOL    H6510563   5.333   0.784   6.635  0.3954 -1.1953  0.8381
   30MOL    H6610564   5.242   0.534   6.567 -0.3468 -0.0038  0.6441
   30MOL    H6710565   5.095   0.603   6.615 -1.1342 -2.0960  1.1035
   30MOL    H6810566   5.222   0.649   6.848  0.2030  0.4548  0.6142
   30MOL    H6910567   5.363   0.587   6.765  0.1153 -0.1385 -0.2406
   30MOL    H7010568   5.297   0.418   6.894 -0.7579  0.8780  2.5145
   30MOL    H7110569   5.210   0.362   6.744 -0.6115 -0.1168  0.0956
   30MOL    H7210570   5.082   0.333   6.963  0.4511 -0.8144 -1.0164
   30MOL    H7310571   5.086   0.506   6.979  2.4860  0.6052 -0.2366
   30MOL    C7410572   4.861   0.400   6.858  0.4148  0.1593 -0.1703
   30MOL    O7510573   4.830   0.358   6.969 -0.0024 -0.5493  0.0800
   30MOL    C7610574   4.752   0.446   6.764  0.5858  0.7967  0.0073
   30MOL    C7710575   4.701   0.593   6.790  0.0325  0.2773  0.2570
   30MOL    C7810576   4.625   0.610   6.921 -0.1088  0.2569  0.1718
   30MOL    C7910577   4.556   0.748   6.934 -0.0854 -0.1746  0.7955
   30MOL    C8010578   4.498   0.782   7.073 -0.2974  0.5991 -0.0765
   30MOL    O8110579   4.381   0.694   7.101  0.4322 -0.0520  0.2756
   30MOL    H8210580   4.670   0.377   6.783  2.0584 -1.4482 -1.6622
   30MOL    H8310581   4.783   0.433   6.660 -0.7678 -2.0765 -0.0588
   30MOL    H8410582   4.646   0.614   6.698  1.5482 -1.9915 -1.2373
   30MOL    H8510583   4.781   0.667   6.791 -0.9834  1.4045 -0.5347
   30MOL    H8610584   4.694   0.590   7.003 -0.7051 -1.1992  0.3429
   30MOL    H8710585   4.532   0.554   6.936  1.6282 -2.8536 -0.2652
   30MOL    H8810586   4.477   0.755   6.859  0.1863 -1.1740  0.4078
   30MOL    H8910587   4.633   0.820   6.905 -0.1024 -0.9663 -1.3190
   30MOL    H9010588   4.570   0.779   7.155 -0.1518 -0.6743 -0.2385
   30MOL    H9110589   4.454   0.881   7.078  0.0714  0.7368  0.4191
   30MOL    C9210590   4.255   0.734   7.064 -0.8686  0.2600  0.2069
   30MOL    O9310591   4.228   0.835   7.003 -0.1075  0.7925  0.0516
   30MOL    C9410592   4.155   0.636   7.115  0.0651 -0.3292 -0.1956
   30MOL    C9510593   4.071   0.696   7.230  0.4175 -1.1336  0.1163
   30MOL    C9610594   4.132   0.703   7.370  0.3168  0.3553 -0.4499
   30MOL    C9710595   4.124   0.566   7.443  0.3663 -0.0946  0.1943
   30MOL    C9810596   4.169   0.570   7.594  0.1727  0.4567  0.1465
   30MOL    O9910597   4.117   0.453   7.656  1.3398 -0.0347  0.2251
   30MOL   H10010598   4.207   0.545   7.146 -0.1169 -0.7585 -1.1488
   30MOL   H10110599   4.089   0.599   7.038  0.0058 -0.9635  0.1579
   30MOL   H10210600   3.978   0.640   7.243 -0.5523  0.8983  2.4752
   30MOL   H10310601   4.035   0.796   7.204 -0.3445 -1.3258  0.4316
   30MOL   H10410602   4.096   0.792   7.421 -1.2682  0.4770 -1.7575
   30MOL   H10510603   4.233   0.741   7.351 -0.2852  3.6907  2.6145
   30MOL   H10610604   4.189   0.502   7.385  0.7511  0.2872  0.2026
   30MOL   H10710605   4.021   0.530   7.439  0.4925 -0.3319 -0.9137
   30MOL   H10810606   4.276   0.559   7.613  0.2141  1.2184  0.3779
   30MOL   H10910607   4.128   0.660   7.641  0.0974  0.7195 -0.4143
   30MOL   C11010608   4.006   0.460   7.734  0.0996 -0.1572 -0.3302
   30MOL   O11110609   3.944   0.565   7.760 -0.2637 -0.0470 -0.1428
   30MOL   C11210610   3.962   0.330   7.806 -0.2044 -0.3411 -0.2078
   30MOL   C11310611   3.920   0.218   7.708  0.3357  0.0173  0.2305
   30MOL   C11410612   3.812   0.127   7.777  0.0140 -0.4065  0.1305
   30MOL   C11510613   3.773   7.838   7.702 -0.0625 -1.2141  0.3008
   30MOL   C11610614   3.673   7.744   7.775  0.4391  0.2790 -0.3702
   30MOL   O11710615   3.546   7.810   7.775 -0.4147  0.4165 -0.0366
   30MOL   H11810616   3.873   0.352   0.020 -1.5465 -1.5763 -1.7592
   30MOL   H11910617   4.032   0.289   0.035  1.5644  3.3270  0.2797
   30MOL   H12010618   4.010   0.159   7.686  0.6770  0.8498 -0.6841
   30MOL   H12110619   3.878   0.263   7.618  0.5905  0.2371  0.2200
   30MOL   H12210620   3.719   0.185   7.781 -1.2420 -2.3673 -0.0681
   30MOL   H12310621   3.853   0.103   0.031 -1.1846  0.4587  0.8663
   30MOL   H12410622   3.861   7.778   7.680  0.6144 -0.0227 -0.3141
   30MOL   H12510623   3.734   0.012   7.602 -2.4073  1.1449  1.5685
   30MOL   H12610624   3.669   7.649   7.721  0.6891  2.0119 -3.5708
   30MOL   H12710625   3.712   7.727   0.031  0.0013 -0.2001 -0.2742
   30MOL   C12810626   3.441   7.750   7.831  0.4087 -0.1640 -0.5953
   30MOL   O12910627   3.437   7.636   0.038  0.2721  0.6287 -0.7155
   30MOL   C13010628   3.308   7.837   7.826 -0.0999 -0.0301  0.0840
   30MOL   C13110629   3.178   7.765   0.017  0.1316 -0.1939 -0.8161
   30MOL   C13210630   3.153   7.764   0.174 -0.3069 -0.0591 -0.3016
   30MOL   C13310631   3.012   7.726   0.218 -0.7148 -0.4169 -0.8198
   30MOL   C13410632   3.003   7.733   0.372 -0.2927 -0.3721 -0.3703
   30MOL   O13510633   3.019   0.017   0.414 -1.0948 -0.3921  0.4662
   30MOL   H13610634   3.302   0.035   7.726 -1.9073 -3.2303 -1.2348
   30MOL   H13710635   3.318   0.078   0.048  1.4451  0.0827 -0.2681
   30MOL   H13810636   3.173   7.669   7.810  0.5310 -0.8037  0.2685
   30MOL   H13910637   3.096   7.821   7.817 -0.3317 -1.7058 -1.8970
   30MOL   H14010638   3.175   0.020   0.209  0.6233 -0.0897 -0.7821
   30MOL   H14110639   3.224   7.698   0.224  0.3673 -0.3228 -1.5979
   30MOL   H14210640   2.993   7.627   0.178  1.6895 -2.1641  2.0899
   30MOL   H14310641   2.951   7.804   0.174 -0.1820  1.9865  2.5065
   30MOL   H14410642   2.901   7.704   0.400 -0.5322  0.1890 -0.6495
   30MOL   H14510643   3.083   7.676   0.418 -0.5885 -0.5161 -0.0247
   30MOL   C14610644   2.922   0.111   0.414 -0.2549  0.2944 -0.3070
   30MOL   O14710645   2.810   0.092   0.366 -0.3285 -0.5027 -0.3592
   30MOL   C14810646   2.955   0.242   0.493 -0.0791 -0.3090 -0.2680
   30MOL   C14910647   2.837   0.343   0.494 -0.1643  0.1807 -0.4786
   30MOL   C15010648   2.709   0.302   0.579 -0.5196  0.3618  0.1799
   30MOL   C15110649   2.604   0.412   0.607  0.3113 -0.0351 -0.0348
   30MOL   C15210650   2.505   0.370   0.715  0.0455  0.4565 -0.7451
   30MOL   O15310651   2.390   0.457   0.716 -0.9553 -0.8282 -0.1306
   30MOL   H15410652   3.055   0.276   0.466 -0.5891  0.5767 -1.0799
   30MOL   H15510653   2.959   0.222   0.600 -1.6997  3.5508  0.6021
   30MOL   H15610654   2.819   0.368   0.389  2.1575  0.1970 -0.8985
   30MOL   H15710655   2.879   0.429   0.546  0.3333 -1.1374  1.3318
   30MOL   H15810656   2.729   0.251   0.673 -1.6488 -1.5637 -0.5970
   30MOL   H15910657   2.665   0.219   0.524  1.8934  0.3564 -1.8591
   30MOL   H16010658   2.549   0.436   0.516  1.1769  1.7013 -0.1172
   30MOL   H16110659   2.655   0.504   0.637 -0.9324  0.4531  0.6137
   30MOL   H16210660   2.473   0.271   0.684  2.2761 -0.1603 -1.1763
   30MOL   H16310661   2.559   0.378   0.809  0.3280  0.0949 -0.8749
   30MOL   C16410662   2.277   0.415   0.784  0.4208 -0.1969  1.4283
   30MOL   O16510663   2.267   0.322   0.860 -0.1615  0.4120  0.1113
   30MOL   C16610664   2.155   0.501   0.753 -0.2854 -0.2645 -0.5263
   30MOL   C16710665   2.037   0.484   0.847  0.2698 -0.0216  0.2993
   30MOL   C16810666   2.053   0.561   0.985  0.4320  0.5415 -0.0480
   30MOL   C16910667   1.919   0.592   1.056 -0.3992  0.3006 -0.1698
   30MOL   C17010668   1.935   0.652   1.191 -0.3170  0.4032  0.2840
   30MOL   O17110669   1.943   0.550   1.287  0.2892 -0.3166 -0.4346
   30MOL   H17210670   2.118   0.468   0.655  0.3471 -0.5920 -0.6522
   30MOL   H17310671   2.195   0.603   0.745  1.9394 -0.8580  2.4489
   30MOL   H17410672   2.015   0.379   0.862 -0.4559 -0.0739 -0.9950
   30MOL   H17510673   1.949   0.523   0.797  0.3557 -0.0200  0.1471
   30MOL   H17610674   2.098   0.658   0.968  0.4478  0.3665 -0.9928
   30MOL   H17710675   2.122   0.496   1.040 -0.8823  1.4391  2.7898
   30MOL   H17810676   1.859   0.501   1.055  2.5997 -1.7429 -1.7019
   30MOL   H17910677   1.868   0.664   0.992  0.3959  1.1500  0.1362
   30MOL   H18010678   2.024   0.714   1.201 -0.1850 -0.1525  2.6335
   30MOL   H18110679   1.849   0.709   1.227 -1.6902 -0.6851 -1.1699
   30MOL   C18210680   1.835   0.518   1.353 -0.3420 -0.3414  0.5359
   30MOL   O18310681   1.732   0.585   1.367 -0.3990  0.4949  0.0208
   30MOL   C18410682   1.856   0.385   1.436  0.2375 -1.2267  0.1757
   30MOL   C18510683   1.732   0.295   1.437  0.1534  1.1928 -0.4327
   30MOL   C18610684   1.726   0.226   1.301  0.6111  0.5340  0.4123
   30MOL   C18710685   1.596   0.153   1.277  0.3098 -0.0721 -0.1142
   30MOL   C18810686   1.568   0.025   1.370 -0.2711  0.4529  0.2071
   30MOL   O18910687   1.434   7.820   1.353  0.5068  0.4384 -0.2659
   30MOL   H19010688   1.890   0.411   1.536  1.1400 -0.6935 -0.2510
   30MOL   H19110689   1.938   0.323   1.400  2.8640  0.8137  2.3675
   30MOL   H19210690   1.645   0.352   1.470  0.9842  1.9572  0.4674
   30MOL   H19310691   1.754   0.217   1.510 -2.1127  1.1742  0.2920
   30MOL   H19410692   1.813   0.161   1.296 -1.4417 -2.1636 -2.3152
   30MOL   H19510693   1.739   0.293   1.216 -2.6512  0.4748 -0.2072
   30MOL   H19610694   1.596   0.129   1.171  2.2300 -2.2612  0.3368
   30MOL   H19710695   1.528   0.231   1.310 -0.9107 -0.8226 -0.8011
   30MOL   H19810696   1.645   7.796   1.346  0.2532  1.1044 -0.1365
   30MOL   H19910697   1.579   0.047   1.476  0.5503 -1.6435  0.5663
   30MOL   C20010698   1.402   7.691   1.354  0.2897  0.4049  0.9704
   30MOL   O20110699   1.482   7.602   1.377  0.3386  0.3510  0.0124
   30MOL   C20210700   1.253   7.658   1.329 -0.6800 -0.3190  0.0842
   30MOL   C20310701   1.219   7.674   1.177  0.5214 -0.2105 -0.3353
   30MOL   C20410702   1.127   7.568   1.116  0.0533  0.0171  0.0592
   30MOL   C20510703   1.086   7.595   0.967 -0.0949 -0.1286  0.0836
   30MOL   C20610704   0.959   7.531   0.924 -0.3399  0.5155  0.7722
   30MOL   O20710705   0.964   7.393   0.923  0.0304  0.0682 -0.4471
   30MOL   H20810706   1.193   7.724   1.392  0.5991  0.9082  0.0332
   30MOL   H20910707   1.226   7.558   1.364  0.2052 -0.0510  1.5640
   30MOL   H21010708   1.307   7.686   1.115 -0.4068  1.7895 -1.3268
   30MOL   H21110709   1.164   7.768   1.176  2.1488  0.7510 -0.3005
   30MOL   H21210710   1.041   7.543   1.177  0.3508  0.3243  0.6076
   30MOL   H21310711   1.172   7.468   1.115 -2.2463 -1.0752 -2.7615
   30MOL   H21410712   1.164   7.548   0.907 -0.2335 -1.1206  0.6657
   30MOL   H21510713   1.088   7.699   0.935 -0.6889 -1.5621 -5.1948
   30MOL   H21610714   0.877   7.565   0.987  0.0263  1.7067  0.6307
   30MOL   H21710715   0.929   7.566   0.825  1.9512  0.0462 -0.1222
   30MOL   C21810716   0.851   7.321   0.926 -0.3933 -0.5830 -0.1698
   30MOL   O21910717   0.737   7.361   0.909 -0.0948  0.6364  0.2163
   30MOL   C22010718   0.877   7.177   0.959  0.2242 -0.0635  0.0978
   30MOL   C22110719   0.878   7.149   1.108  0.0991 -0.4762  1.2579
   30MOL   C22210720   0.996   7.198   1.191  0.1606  0.0322 -0.1671
   30MOL   C22310721   0.966   7.185   1.342 -0.2222  0.5661  0.1813
   30MOL   C22410722   1.076   7.221   1.433 -0.5931 -0.9658  0.6374
   30MOL   O22510723   1.193   7.156   1.394  0.1508 -0.7334 -0.3353
   30MOL   H22610724   0.975   7.149   0.920  0.5740 -0.8110  1.4975
   30MOL   H22710725   0.812   7.107   0.907 -0.5105  0.4103  0.3782
   30MOL   H22810726   0.879   7.040   1.120  0.5025 -0.6055  0.1251
   30MOL   H22910727   0.789   7.190   1.156  0.3552  0.2615  1.1115
   30MOL   H23010728   1.022   7.303   1.171  1.1988 -0.2277 -0.2211
   30MOL   H23110729   1.079   7.134   1.163 -1.0580 -0.7245 -2.1600
   30MOL   H23210730   0.939   7.081   1.361  1.8333 -0.0426 -0.1496
   30MOL   H23310731   0.877   7.240   1.370 -0.3826  0.0982  0.6028
   30MOL   H23410732   1.100   7.327   1.426 -1.4378 -0.9103 -1.8681
   30MOL   H23510733   1.048   7.196   1.535 -0.6673 -0.4661  0.7410
   30MOL   C23610734   1.252   7.066   1.478  0.2187  0.2824 -0.8681
   30MOL   O23710735   1.240   7.061   1.601  0.2083  0.1884  0.0921
   30MOL   C23810736   1.369   6.997   1.410  0.3413 -0.5360  0.1685
   30MOL   C23910737   1.451   6.891   1.496 -0.6253  0.1721  1.0820
   30MOL   C24010738   1.583   6.850   1.443  0.1971  0.5505 -0.0937
   30MOL   C24110739   1.649   6.732   1.515  0.3131  0.2777 -0.1095
   30MOL   C24210740   1.776   6.675   1.450 -0.3806 -0.3888 -0.3952
   30MOL   O24310741   1.869   6.781   1.430  0.3326  0.4492 -0.1916
   30MOL   H24410742   1.434   7.078   1.377 -0.0438  0.1902  1.1722
   30MOL   H24510743   1.337   6.964   1.311 -1.1758 -2.2826  1.2142
   30MOL   H24610744   1.392   6.801   1.508 -0.6236 -0.0717 -0.6185
   30MOL   H24710745   1.468   6.934   1.595 -0.8481 -1.9164  2.0422
   30MOL   H24810746   1.643   6.941   1.449 -1.9028  1.9759 -0.0225
   30MOL   H24910747   1.580   6.826   1.337  1.1310 -2.5291  0.5419
   30MOL   H25010748   1.578   6.650   1.523  0.5828  0.0557  0.0066
   30MOL   H25110749   1.681   6.772   1.612 -0.5760  1.2441 -0.2078
   30MOL   H25210750   1.816   6.592   1.508 -1.3361 -1.8033 -1.7135
   30MOL   H25310751   1.737   6.636   1.355 -0.2653  0.5883 -0.8555
   30MOL   C25410752   1.963   6.771   1.335  0.2154 -0.0504  0.7509
   30MOL   O25510753   1.975   6.672   1.263 -0.3617 -0.1421 -0.1269
   30MOL   C25610754   2.041   6.900   1.309 -1.0191  0.7908  0.3686
   30MOL   C25710755   2.169   6.881   1.225 -0.6843 -0.6870 -0.2515
   30MOL   C25810756   2.212   7.008   1.153 -0.0386  0.3438 -0.1736
   30MOL   C25910757   2.343   6.974   1.076 -0.0224  0.1935  0.4220
   30MOL   C26010758   2.327   6.967   0.924 -0.0378 -0.1307 -0.1919
   30MOL   O26110759   2.225   6.879   0.882  0.1892  0.4481  0.6483
   30MOL   H26210760   2.067   6.944   1.404 -1.6532  0.9829  0.4566
   30MOL   H26310761   1.963   6.959   1.261 -0.4927  0.1836 -1.2650
   30MOL   H26410762   2.166   6.797   1.156  2.4237 -1.1664  0.1587
   30MOL   H26510763   2.246   6.845   1.293 -1.1768  0.8188  1.1427
   30MOL   H26610764   2.231   7.085   1.228  1.8368  1.4602 -1.7446
   30MOL   H26710765   2.138   7.040   1.079 -1.6208  1.2562  1.7432
   30MOL   H26810766   2.372   6.874   1.106 -1.5794  0.3261  2.4598
   30MOL   H26910767   2.428   7.033   1.109  0.5447 -0.7712  0.7100
   30MOL   H27010768   2.298   7.062   0.879 -0.2346 -0.5071 -0.8665
   30MOL   H27110769   2.420   6.934   0.877  0.2048 -0.7456  0.7103
   30MOL   C27210770   2.239   6.749   0.881  0.3764 -0.0725  0.0005
   30MOL   O27310771   2.339   6.687   0.916 -0.3891  0.4129 -0.3510
   30MOL   C27410772   2.114   6.678   0.837 -1.1732 -0.2145  0.0994
   30MOL   C27510773   2.071   6.577   0.947  0.6227 -0.3991  0.6292
   30MOL   C27610774   2.149   6.445   0.946 -0.0431 -0.6509 -0.3535
   30MOL   C27710775   2.078   6.347   1.038 -0.3288  0.2478 -0.8598
   30MOL   C27810776   2.162   6.227   1.076 -0.2861 -0.0547 -0.5073
   30MOL   O27910777   2.195   6.147   0.956  0.0773  0.6072 -0.1977
   30MOL   H28010778   2.126   6.635   0.738 -0.7233 -2.1988  0.9899
   30MOL   H28110779   2.036   6.754   0.835 -1.7224 -0.6572  2.5623
   30MOL   H28210780   1.964   6.558   0.947  1.0864 -3.4518  2.6512
   30MOL   H28310781   2.090   6.617   1.046  0.3940  1.5936 -0.1181
   30MOL   H28410782   2.247   6.456   0.993 -1.1478 -0.0357  1.8821
   30MOL   H28510783   2.154   6.411   0.843  0.7511 -2.9056  0.4122
   30MOL   H28610784   1.986   6.315   0.989 -0.2714  0.5123 -1.1420
   30MOL   H28710785   2.045   6.403   1.126  0.9125  0.3692 -0.4639
   30MOL   H28810786   2.253   6.265   1.123  1.2097 -1.4821 -2.2095
   30MOL   H28910787   2.127   6.162   1.156 -3.7817  2.3880  0.0808
   30MOL   C29010788   2.098   6.064   0.913  0.3314  0.2794  0.7745
   30MOL   O29110789   1.991   6.052   0.964  0.3120  0.6049 -0.4883
   30MOL   C29210790   2.149   5.979   0.792  0.1362  0.3910 -0.5465
   30MOL   C29310791   2.047   5.894   0.725 -0.2227 -0.2122  0.4140
   30MOL   C29410792   2.108   5.800   0.618 -0.6965  0.6775  0.0096
   30MOL   C29510793   2.005   5.722   0.532  0.0575 -0.0734 -0.4833
   30MOL   C29610794   2.061   5.652   0.404  0.3550 -0.4793 -0.6846
   30MOL   O29710795   2.153   5.556   0.445 -0.0424  0.0316 -0.1511
   30MOL   H29810796   2.241   5.929   0.823 -0.2620  0.7565  1.2886
   30MOL   H29910797   2.184   6.040   0.709 -0.6274  0.2086 -1.0080
   30MOL   H30010798   1.962   5.944   0.679 -0.4791  2.0651  3.2298
   30MOL   H30110799   2.005   5.828   0.801 -2.7693  1.0356  0.1119
   30MOL   H30210800   2.180   5.736   0.668  1.0575  1.6173 -1.2274
   30MOL   H30310801   2.159   5.869   0.550 -0.6738  0.5469 -0.1064
   30MOL   H30410802   1.926   5.790   0.502 -1.0839  0.4198  3.3921
   30MOL   H30510803   1.955   5.644   0.589 -0.1499 -0.3395 -1.0221
   30MOL   H30610804   1.978   5.609   0.346 -1.0716 -1.1124  1.7776
   30MOL   H30710805   2.093   5.730   0.335 -2.1559  0.9442 -0.2900
   30MOL   C30810806   2.236   5.499   0.354 -0.3939 -0.5621  0.2354
   30MOL   O30910807   2.243   5.533   0.235 -0.2648  0.7506  0.2293
   30MOL   C31010808   2.333   5.393   0.405  0.2109 -0.3802  0.3014
   30MOL   C31110809   2.442   5.350   0.309 -0.2431 -0.7799  0.0661
   30MOL   C31210810   2.402   5.264   0.186 -0.3831 -0.0652  0.5105
   30MOL   C31310811   2.363   5.114   0.221  0.0757  0.6603  0.0940
   30MOL   C31410812   2.297   5.034   0.111 -0.3857  0.2792  0.2126
   30MOL   O31510813   2.265   4.902   0.149 -0.3404  0.4249 -0.5442
   30MOL   H31610814   2.271   5.320   0.457  0.9527 -0.1862  1.4640
   30MOL   H31710815   2.383   5.436   0.491 -0.9000  3.1064 -0.7166
   30MOL   H31810816   2.522   5.301   0.365 -2.0911  0.3571  3.8374
   30MOL   H31910817   2.484   5.445   0.276 -0.1969 -1.0329 -0.6124
   30MOL   H32010818   2.486   5.260   0.116  0.1243  2.7632  0.8895
   30MOL   H32110819   2.321   5.310   0.129  0.9194 -0.3788 -1.6532
   30MOL   H32210820   2.304   5.120   0.313 -2.1605  0.0230 -1.2591
   30MOL   H32310821   2.454   5.057   0.239 -0.4280  0.5667  2.5081
   30MOL   H32410822   2.206   5.084   0.076 -0.6211 -0.2741  0.0240
   30MOL   H32510823   2.373   5.048   0.035  0.8924 -0.3544  1.3661
   30MOL   C32610824   2.250   4.804   0.050 -0.7372 -0.3817  0.0867
   30MOL   O32710825   2.246   4.824   7.770  0.0306 -0.3629 -0.2713
   30MOL   C32810826   2.234   4.666   0.111  0.1661 -0.8593  0.6591
   30MOL   C32910827   2.094   4.605   0.112 -0.6160  0.8639 -1.1226
   30MOL   C33010828   2.043   4.557   7.815 -0.1678  0.1008  0.0034
   30MOL   C33110829   2.110   4.427   7.765  0.1260  0.6452  0.3475
   30MOL   C33210830   2.078   4.385   7.616  0.1767  0.2908  0.8396
   30MOL   O33310831   2.133   4.260   7.590  0.7190 -0.1229  0.0153
   30MOL   H33410832   2.275   4.690   0.209  0.9509 -1.5496  0.4982
   30MOL   H33510833   2.311   4.599   0.073  0.4504 -0.4536  0.5159
   30MOL   H33610834   2.028   4.682   0.153 -1.1195  0.1920 -0.6757
   30MOL   H33710835   2.092   4.525   0.186 -1.1035  1.5109 -0.4180
   30MOL   H33810836   2.056   4.634   7.739  1.2747  0.1785  0.3133
   30MOL   H33910837   1.935   4.542   7.810 -0.0029 -0.7645 -0.9803
   30MOL   H34010838   2.086   4.340   7.826  1.3680  1.0104  1.3917
   30MOL   H34110839   2.217   4.444   7.773 -0.0737  2.1976  0.0422
   30MOL   H34210840   1.970   4.391   7.605  0.1436  0.6639  1.3355
   30MOL   H34310841   2.108   4.465   7.549  3.7805 -0.5942  1.2907
   30MOL   C34410842   2.192   4.238   7.471  0.2993 -0.0045  0.2879
   30MOL   O34510843   2.198   4.317   7.379 -0.4672 -0.3897 -0.2198
   30MOL   C34610844   2.249   4.093   7.466 -0.4408 -0.2092  0.8008
   30MOL   C34710845   2.284   4.045   7.325  0.1352 -0.1107 -0.4863
   30MOL   C34810846   2.162   4.030   7.235 -0.1322  0.1899  0.2404
   30MOL   C34910847   2.215   4.021   7.088 -0.5897 -0.0561  0.0573
   30MOL   C35010848   2.105   3.991   6.983 -0.1294 -0.3768 -0.0687
   30MOL   O35110849   2.035   4.108   6.985 -0.0446  0.2961 -0.1990
   30MOL   H35210850   2.177   4.029   7.516  0.4881 -0.6279  1.6300
   30MOL   H35310851   2.341   4.103   7.524  1.2219 -1.5637 -1.5160
   30MOL   H35410852   2.335   3.949   7.329 -0.3294 -0.3711 -0.8295
   30MOL   H35510853   2.348   4.119   7.276 -1.0740 -0.0179 -1.9535
   30MOL   H35610854   2.093   4.114   7.236 -0.4266 -0.0546  0.6246
   30MOL   H35710855   2.110   3.937   7.259 -0.0502  0.4502  1.4792
   30MOL   H35810856   2.303   3.957   7.077 -0.2084  0.7597 -1.8276
   30MOL   H35910857   2.259   4.117   7.064  1.4773 -1.2586 -1.1313
   30MOL   H36010858   2.148   3.982   6.883 -1.4889 -0.6838 -0.6395
   30MOL   H36110859   2.044   3.904   7.008  1.8686 -1.3616  1.4608
   30MOL   H36210860   1.986   4.100   7.065  0.0469  0.8166 -0.0906
   31MOL     C110861   4.258   6.433   0.786  0.5642  0.0498 -0.1033
   31MOL     O210862   4.260   6.445   0.909 -0.4044 -0.7332  0.1567
   31MOL     C310863   4.212   6.539   0.686  0.3183 -0.0482 -0.1911
   31MOL     C410864   4.289   6.667   0.702 -0.3514 -0.4698  0.2413
   31MOL     C510865   4.208   6.788   0.633 -0.6667 -0.5416  0.0261
   31MOL     C610866   4.287   6.921   0.645  0.7704 -0.6321 -0.6295
   31MOL     C710867   4.423   6.921   0.585 -0.1536  0.0451 -0.4390
   31MOL     O810868   4.469   7.058   0.588 -0.1071  0.2877  0.8219
   31MOL     H910869   4.109   6.557   0.718  1.6225  2.3909  2.9387
   31MOL    H1010870   4.200   6.506   0.583 -1.4183  0.9410 -0.3412
   31MOL    H1110871   4.387   6.649   0.658  0.9561  0.7374  2.5216
   31MOL    H1210872   4.303   6.703   0.804 -2.8810  3.4497 -0.6796
   31MOL    H1310873   4.117   6.803   0.692  0.8834  2.3680  1.8230
   31MOL    H1410874   4.183   6.763   0.530 -0.3131 -1.3989  0.1437
   31MOL    H1510875   4.305   6.943   0.751  1.0541  1.0281 -1.0111
   31MOL    H1610876   4.232   7.008   0.609  0.0670 -0.6247  0.4471
   31MOL    H1710877   4.501   6.863   0.634 -0.9468  2.6754  4.2242
   31MOL    H1810878   4.420   6.881   0.484 -1.0339 -0.2033 -0.3221
   31MOL    H1910879   4.298   6.341   0.743  1.5250  0.1616  0.5373
   31MOL    C2010880   4.564   7.102   0.503  0.0523  0.4019 -0.6717
   31MOL    O2110881   4.627   7.031   0.434 -0.3401  0.4768  0.5076
   31MOL    C2210882   4.578   7.250   0.492  0.1928 -0.7065 -0.2405
   31MOL    C2310883   4.728   7.295   0.459  0.1185 -0.1842  0.6208
   31MOL    C2410884   4.835   7.276   0.572 -0.0460  0.2821 -0.0935
   31MOL    C2510885   4.975   7.307   0.515  0.2244  0.4410  0.0075
   31MOL    C2610886   5.081   7.291   0.625  0.4547 -0.2152 -0.4826
   31MOL    O2710887   5.205   7.337   0.572 -0.3971  0.2037  0.8963
   31MOL    H2810888   4.535   7.302   0.578 -1.1905  1.8212 -2.3948
   31MOL    H2910889   4.525   7.276   0.401  1.0745 -1.2456 -0.9157
   31MOL    H3010890   4.714   7.401   0.440  3.0404  0.2893  0.9148
   31MOL    H3110891   4.762   7.243   0.370  0.7897  1.5046 -0.1097
   31MOL    H3210892   4.824   7.175   0.611 -1.4971  0.3745 -0.2598
   31MOL    H3310893   4.814   7.339   0.659 -4.6685 -0.6663 -0.4256
   31MOL    H3410894   4.987   7.396   0.453  0.4272  0.1053 -0.4378
   31MOL    H3510895   5.002   7.236   0.437  2.4449  0.2568  0.9297
   31MOL    H3610896   5.049   7.338   0.718 -1.1411 -2.2222  0.0227
   31MOL    H3710897   5.097   7.187   0.655 -0.8361  0.1471  1.6031
   31MOL    C3810898   5.249   7.457   0.611 -0.2516  0.6373 -0.0683
   31MOL    O3910899   5.199   7.524   0.703  0.4003 -0.5046 -0.1611
   31MOL    C4010900   5.382   7.500   0.544  0.7818  0.4225 -0.7685
   31MOL    C4110901   5.411   7.650   0.578 -0.5676 -0.3304  0.0616
   31MOL    C4210902   5.544   7.713   0.524  0.1138 -0.0502  0.0550
   31MOL    C4310903   5.557   0.021   0.526  0.5169  0.2487 -0.9935
   31MOL    C4410904   5.665   0.075   0.437  0.4478 -0.6050  0.2798
   31MOL    O4510905   5.789   0.100   0.508  0.1285  0.0217  0.3957
   31MOL    H4610906   5.346   7.499   0.441  0.9902 -0.8250 -0.8364
   31MOL    H4710907   5.467   7.440   0.576 -1.5341 -1.5902  1.8805
   31MOL    H4810908   5.410   7.654   0.687 -0.6103 -1.7585  0.1185
   31MOL    H4910909   5.323   7.706   0.545 -0.7732 -1.3442 -1.1749
   31MOL    H5010910   5.550   7.678   0.421  2.9530 -0.7658  0.4244
   31MOL    H5110911   5.631   7.666   0.570  0.0659 -0.7799 -0.5809
   31MOL    H5210912   5.567   0.048   0.631 -0.1125 -1.3572 -0.4958
   31MOL    H5310913   5.459   0.057   0.498 -0.2716 -0.3831  0.8744
   31MOL    H5410914   5.656   0.023   0.342  0.4719  3.1259 -1.8529
   31MOL    H5510915   5.621   0.172   0.415  0.7942 -0.9273 -1.9048
   31MOL    C5610916   5.903   0.111   0.438  0.2547 -0.2497 -0.2643
   31MOL    O5710917   5.930   0.083   0.324 -0.2158 -0.4492  0.0380
   31MOL    C5810918   6.003   0.155   0.536 -0.7811  0.2478 -0.3068
   31MOL    C5910919   6.135   0.084   0.523 -0.0654 -0.2514  0.1199
   31MOL    C6010920   6.131   7.777   0.547  0.2359 -0.1842  0.9750
   31MOL    C6110921   6.063   7.727   0.670  0.5965 -0.2512 -0.1066
   31MOL    C6210922   6.063   7.572   0.685  0.4699 -0.4439 -0.0605
   31MOL    O6310923   5.974   7.519   0.584 -1.2703 -0.1226  0.5772
   31MOL    H6410924   5.972   0.152   0.641 -0.3161  0.0482 -0.1706
   31MOL    H6510925   6.028   0.257   0.510 -1.1233  0.3567 -0.2091
   31MOL    H6610926   6.202   0.122   0.600  0.6587 -1.7936  0.2535
   31MOL    H6710927   6.178   0.112   0.427 -1.1292  1.2635  0.0635
   31MOL    H6810928   6.235   7.745   0.539  0.0375 -0.6168  0.0557
   31MOL    H6910929   6.074   7.735   0.464 -0.6643  0.1242  1.4266
   31MOL    H7010930   5.960   7.761   0.660  0.2214 -1.7833 -1.8402
   31MOL    H7110931   6.109   7.775   0.756 -2.0466  0.4461  0.9554
   31MOL    H7210932   6.165   7.535   0.671  0.7951  0.2319  0.5526
   31MOL    H7310933   6.031   7.561   0.788 -0.0177 -0.3485 -0.1999
   31MOL    C7410934   5.860   7.465   0.609 -0.3440 -0.3880 -0.2420
   31MOL    O7510935   5.802   7.458   0.719 -0.9717  0.3840  0.5638
   31MOL    C7610936   5.790   7.427   0.487  0.0194 -0.7764 -0.6052
   31MOL    C7710937   5.811   7.278   0.455 -0.4226 -0.6645  0.6490
   31MOL    C7810938   5.719   7.231   0.346  0.1199  0.7042  0.2722
   31MOL    C7910939   5.575   7.193   0.391  0.1519  0.0049 -0.3145
   31MOL    C8010940   5.486   7.137   0.280  0.4079 -0.4730  0.3805
   31MOL    O8110941   5.360   7.093   0.331 -0.5675  0.1896 -0.4427
   31MOL    H8210942   5.821   7.487   0.402  0.8587  1.5168  1.2426
   31MOL    H8310943   5.682   7.438   0.497  0.1434 -0.4197  0.4116
   31MOL    H8410944   5.805   7.219   0.546 -1.0882 -1.5671  0.0258
   31MOL    H8510945   5.912   7.267   0.415 -0.6988 -0.4683 -0.1259
   31MOL    H8610946   5.756   7.138   0.303 -0.3864  1.1989 -1.2732
   31MOL    H8710947   5.711   7.311   0.273  0.5524  0.8573  0.3954
   31MOL    H8810948   5.530   7.283   0.433 -0.2567 -0.0003 -0.7401
   31MOL    H8910949   5.594   7.118   0.469 -2.7946 -1.1805 -0.6729
   31MOL    H9010950   5.478   7.219   0.210  1.6791  1.2304  2.1476
   31MOL    H9110951   5.547   7.061   0.231 -1.5888 -1.5376 -0.4720
   31MOL    C9210952   5.283   7.031   0.235 -0.9721  0.1759 -0.0044
   31MOL    O9310953   5.321   7.017   0.119  0.5579 -0.1998 -0.2195
   31MOL    C9410954   5.143   7.002   0.273 -0.2180  0.0917  0.5819
   31MOL    C9510955   5.052   6.995   0.148  0.4374 -0.4946  0.3249
   31MOL    C9610956   4.905   7.010   0.189  0.3895 -0.0827 -0.2342
   31MOL    C9710957   4.799   7.021   0.081 -0.8406 -0.3203 -0.3054
   31MOL    C9810958   4.661   7.039   0.142 -0.5234  0.0236  0.5205
   31MOL    O9910959   4.580   7.091   0.042 -0.5912  0.3267 -0.0784
   31MOL   H10010960   5.100   7.074   0.341  1.0091  0.9551  0.4622
   31MOL   H10110961   5.154   6.905   0.322  2.9734 -1.1362 -2.2693
   31MOL   H10210962   5.069   6.906   0.088 -0.7969  1.2705 -2.7053
   31MOL   H10310963   5.077   7.066   0.070 -1.3173  0.3464  0.5223
   31MOL   H10410964   4.888   7.105   0.240 -2.6122 -0.7937  0.2128
   31MOL   H10510965   4.871   6.930   0.255  1.7867 -0.2959  0.2342
   31MOL   H10610966   4.799   6.932   0.018  0.6071 -0.2344 -0.4489
   31MOL   H10710967   4.827   7.109   0.024  0.0534 -0.4938 -0.1404
   31MOL   H10810968   4.612   6.948   0.177 -2.0418  0.4473 -0.4643
   31MOL   H10910969   4.653   7.105   0.229  1.3382  0.6175  0.2632
   31MOL   C11010970   4.440   7.100   0.052 -0.1061  0.1444 -0.2971
   31MOL   O11110971   4.385   7.085   0.159 -0.1591  0.0620 -0.2094
   31MOL   C11210972   4.367   7.125   7.768 -0.1226 -0.0312  0.1919
   31MOL   C11310973   4.266   7.240   7.771 -0.5997  0.3080  0.7676
   31MOL   C11410974   4.191   7.254   7.641 -0.1232  0.4545 -0.0593
   31MOL   C11510975   4.127   7.395   7.615  0.1918  0.3908 -0.1936
   31MOL   C11610976   4.083   7.395   7.460 -0.3161 -0.3317  0.0307
   31MOL   O11710977   3.975   7.483   7.429  0.5895 -0.2339  0.0876
   31MOL   H11810978   4.330   7.027   7.741 -0.6522 -0.8034  3.4295
   31MOL   H11910979   4.443   7.145   7.693  0.9871  1.0513  1.5517
   31MOL   H12010980   4.331   7.328   7.767 -0.7088  0.3595  0.0397
   31MOL   H12110981   4.206   7.227   0.017 -1.2105 -1.4213  0.1234
   31MOL   H12210982   4.120   7.173   7.623 -1.1218  1.3399 -0.1870
   31MOL   H12310983   4.257   7.241   7.555 -0.3640 -0.0848 -0.1652
   31MOL   H12410984   4.194   7.481   7.627 -1.4227  1.3656  2.3119
   31MOL   H12510985   4.049   7.405   7.690  0.9920 -2.3753  1.0876
   31MOL   H12610986   4.164   7.411   7.388 -2.2952  1.0556 -1.9571
   31MOL   H12710987   4.043   7.295   7.440 -3.2797  0.7225  0.5138
   31MOL   C12810988   3.844   7.462   7.443 -0.3166 -0.6208  0.7045
   31MOL   O12910989   3.789   7.361   7.490  0.3652 -0.3145 -0.1391
   31MOL   C13010990   3.762   7.583   7.403  0.0594 -0.2941  0.6296
   31MOL   C13110991   3.776   7.639   7.257 -0.2957 -0.2179 -0.1266
   31MOL   C13210992   3.685   7.760   7.226  0.2865 -0.0454 -0.2204
   31MOL   C13310993   3.535   7.743   7.249 -0.2573 -0.2408 -0.3185
   31MOL   C13410994   3.456   7.671   7.139 -0.3338  0.3518  0.1764
   31MOL   O13510995   3.444   7.730   7.016 -0.1623 -0.3981  0.3068
   31MOL   H13610996   3.779   7.666   7.472  1.2209  0.0182 -0.0149
   31MOL   H13710997   3.657   7.557   7.415  0.0991  0.5124  2.9917
   31MOL   H13810998   3.756   7.560   7.185 -0.9044 -0.6881  0.5471
   31MOL   H13910999   3.882   7.663   7.243  0.3473 -2.0614  1.3116
   31MOL   H14011000   3.707   7.784   7.122 -1.1203 -2.2761 -1.0638
   31MOL   H14111001   3.719   7.840   7.292 -0.1716 -0.8765  1.0406
   31MOL   H14211002   3.489   7.841   7.256 -1.1377 -0.5906 -1.1235
   31MOL   H14311003   3.515   7.704   7.349  1.6646 -1.2745 -0.3009
   31MOL   H14411004   3.497   7.570   7.131 -0.3906  0.1498  2.1066
   31MOL   H14511005   3.357   7.652   7.179  0.0639 -1.9671  0.1244
   31MOL   C14611006   3.348   7.814   6.993  0.3370 -0.7489 -0.2076
   31MOL   O14711007   3.259   7.844   7.075  0.2137  0.2698  0.2797
   31MOL   C14811008   3.356   0.031   6.852  0.7194  0.3105 -0.3591
   31MOL   C14911009   3.228   0.087   6.798  0.3733 -0.6200 -0.0620
   31MOL   C15011010   3.192   0.233   6.843  0.1503 -0.1980 -0.5732
   31MOL   C15111011   3.044   0.274   6.827  0.1004  0.0307  0.3869
   31MOL   C15211012   3.025   0.413   6.890 -0.3123  0.1425 -0.1027
   31MOL   O15311013   2.895   0.454   6.863  0.4932  0.1104  0.2762
   31MOL   H15411014   3.383   7.788   6.793  0.0871  0.0531 -0.2644
   31MOL   H15511015   3.440   0.099   6.841  0.2608  0.6198 -2.1779
   31MOL   H15611016   3.151   0.012   6.816 -2.0956  2.4529  2.9476
   31MOL   H15711017   3.237   0.096   6.690  1.8914  2.1562  0.2633
   31MOL   H15811018   3.269   0.305   6.817 -0.4228  1.1355  1.2988
   31MOL   H15911019   3.217   0.234   6.949  0.2968 -1.4164 -0.5875
   31MOL   H16011020   2.972   0.203   6.869  1.6459 -1.6491  0.2568
   31MOL   H16111021   3.019   0.276   6.721 -0.6241 -1.9552  0.4897
   31MOL   H16211022   3.030   0.397   6.998 -0.8893  2.2988  0.2826
   31MOL   H16311023   3.100   0.481   6.850 -0.0174  1.4267  2.5237
   31MOL   C16411024   2.872   0.566   6.812  0.1033  0.3513  0.3049
   31MOL   O16511025   2.956   0.658   6.789  0.3764 -0.2502 -0.3880
   31MOL   C16611026   2.721   0.599   6.786 -0.1513  0.3754 -0.2241
   31MOL   C16711027   2.694   0.735   6.713 -0.5398 -0.3770 -0.0400
   31MOL   C16811028   2.560   0.803   6.746  0.2904  0.4841 -0.0912
   31MOL   C16911029   2.535   0.833   6.896  0.5987 -0.6404 -0.4894
   31MOL   C17011030   2.659   0.901   6.966  0.1534  0.5647 -0.0774
   31MOL   O17111031   2.756   0.811   7.009 -0.3847  0.0687 -0.8551
   31MOL   H17211032   2.657   0.597   6.874 -0.3219 -1.4127 -0.3754
   31MOL   H17311033   2.694   0.517   6.720  1.5116  0.4870 -1.0737
   31MOL   H17411034   2.697   0.726   6.604 -0.3407 -3.6758  0.2112
   31MOL   H17511035   2.761   0.808   6.759  0.9745 -2.5998  1.3689
   31MOL   H17611036   2.472   0.763   6.696  0.9936 -0.0453 -0.9234
   31MOL   H17711037   2.564   0.906   6.711 -0.8970  0.3432 -0.6350
   31MOL   H17811038   2.507   0.748   6.959 -1.8446  2.2124  2.4390
   31MOL   H17911039   2.454   0.906   6.893 -1.1299 -2.4183  1.1761
   31MOL   H18011040   2.708   0.966   6.893  0.6266 -0.8399 -1.0310
   31MOL   H18111041   2.617   0.956   7.050 -0.4547  1.9890 -1.2931
   31MOL   C18211042   2.856   0.853   7.088  0.0374 -0.6606 -0.2488
   31MOL   O18311043   2.855   0.967   7.134  0.2357  0.1524 -0.1729
   31MOL   C18411044   2.959   0.746   7.126 -0.4658  0.3530 -0.3600
   31MOL   C18511045   2.918   0.663   7.250 -0.3981 -0.5322 -1.1003
   31MOL   C18611046   3.036   0.605   7.325  0.7885  0.6606 -0.7283
   31MOL   C18711047   2.983   0.515   7.436 -0.1076  0.2831 -0.1455
   31MOL   C18811048   3.091   0.465   7.521 -0.0302 -0.0829  0.4314
   31MOL   O18911049   3.041   0.395   7.634 -0.3708 -0.1020 -0.2381
   31MOL   H19011050   3.048   0.804   7.151  0.5721 -1.3402 -0.0341
   31MOL   H19111051   2.981   0.675   7.046 -0.8673 -1.5503  1.1740
   31MOL   H19211052   2.845   0.588   7.223 -1.4008 -0.0592  0.2391
   31MOL   H19311053   2.855   0.713   7.324 -1.5258 -1.5740 -1.3427
   31MOL   H19411054   3.089   0.689   7.371 -0.1855  1.1918 -0.5519
   31MOL   H19511055   3.105   0.552   7.259  1.9141 -0.4060  1.2483
   31MOL   H19611056   2.924   0.435   7.390  3.3350 -1.1787 -2.2394
   31MOL   H19711057   2.910   0.579   7.485 -1.9603 -0.7326 -1.5099
   31MOL   H19811058   3.150   0.403   7.453  1.5558  0.6534  1.1026
   31MOL   H19911059   3.154   0.547   7.556  2.8748 -0.7199 -3.0081
   31MOL   C20011060   3.128   0.317   7.710  0.3273  0.3832  0.1967
   31MOL   O20111061   3.242   0.286   7.674  0.2973  0.5088  0.2214
   31MOL   C20211062   3.069   0.272   0.001 -0.1741 -0.0789  0.6157
   31MOL   C20311063   2.991   0.383   0.084 -0.2480 -0.3269  0.0146
   31MOL   C20411064   3.085   0.502   0.114  0.0088 -0.4214 -0.4718
   31MOL   C20511065   3.029   0.600   0.209  0.3519 -0.1920  0.1242
   31MOL   C20611066   2.914   0.694   0.156  0.7877  0.2429 -0.3517
   31MOL   O20711067   2.787   0.632   0.122  0.6588  0.6145 -0.4273
   31MOL   H20811068   3.147   0.228   0.063  0.8346 -0.3970 -0.8786
   31MOL   H20911069   3.006   0.186   7.819  0.3267 -0.4693  0.6884
   31MOL   H21011070   2.943   0.344   0.173  1.2980 -2.0042  0.1480
   31MOL   H21111071   2.922   0.422   0.010  1.2220  1.5126 -0.4189
   31MOL   H21211072   3.105   0.558   0.023 -1.9785  0.3132 -0.4722
   31MOL   H21311073   3.174   0.458   0.160  0.1966 -0.4353 -0.8523
   31MOL   H21411074   3.105   0.674   0.234 -0.3918  1.0195 -1.1581
   31MOL   H21511075   2.997   0.559   0.304 -2.0991 -0.1819 -0.6670
   31MOL   H21611076   2.894   0.774   0.228 -3.7013  0.5653 -1.7553
   31MOL   H21711077   2.944   0.751   0.068 -1.2315  3.1276  0.7267
   31MOL   C21811078   2.683   0.720   0.094  0.2689  0.7423 -0.0819
   31MOL   O21911079   2.697   0.838   0.081  0.2551  1.1876 -0.5279
   31MOL   C22011080   2.550   0.650   0.086  0.3692  0.7572 -0.0748
   31MOL   C22111081   2.519   0.617   7.777  0.1866  0.4295 -0.5499
   31MOL   C22211082   2.587   0.492   7.724 -0.4738  1.2379  0.6844
   31MOL   C22311083   2.588   0.479   7.571  0.2907 -0.1252 -0.9777
   31MOL   C22411084   2.469   0.402   7.508 -0.3336 -0.1524 -0.3536
   31MOL   O22511085   2.344   0.456   7.535 -0.2859 -0.0056  0.6413
   31MOL   H22611086   2.469   0.710   0.125 -0.6274 -0.8741  0.4375
   31MOL   H22711087   2.543   0.562   0.151 -0.8894  0.4486 -0.6264
   31MOL   H22811088   2.552   0.704   7.720 -0.5303  1.3174  0.3735
   31MOL   H22911089   2.415   0.587   7.761 -0.4520  3.0370 -1.5353
   31MOL   H23011090   2.558   0.400   7.774 -0.6350  1.0978  0.3297
   31MOL   H23111091   2.690   0.510   7.755 -0.4176  1.0375  0.6115
   31MOL   H23211092   2.680   0.428   7.542  0.7616  0.2357 -0.1359
   31MOL   H23311093   2.601   0.578   7.529 -1.1567  1.0417  1.2314
   31MOL   H23411094   2.476   0.408   7.399  1.2842 -1.9000 -0.3648
   31MOL   H23511095   2.466   0.300   7.547  2.3254 -0.2343 -0.2528
   31MOL   C23611096   2.230   0.405   7.490  0.2928  0.7397 -0.3945
   31MOL   O23711097   2.213   0.307   7.421  0.1061  0.2877 -0.1244
   31MOL   C23811098   2.115   0.475   7.555  0.0207  0.2433 -0.7709
   31MOL   C23911099   1.989   0.451   7.472  0.0328  0.0833 -0.2517
   31MOL   C24011100   1.872   0.542   7.506 -0.0804  0.1318  0.2796
   31MOL   C24111101   1.900   0.679   7.470 -0.2802 -0.3744  0.5812
   31MOL   C24211102   1.777   0.769   7.482  0.1486 -0.0366 -0.2719
   31MOL   O24311103   1.729   0.789   7.619 -0.1632  0.0559  0.1335
   31MOL   H24411104   2.136   0.581   7.565  0.0830  0.0731  1.1537
   31MOL   H24511105   2.115   0.435   7.657  0.9379  1.5269 -0.2609
   31MOL   H24611106   1.958   0.346   7.472  1.8433 -0.4602 -0.7687
   31MOL   H24711107   2.016   0.474   7.370 -1.7961  2.0633 -0.3306
   31MOL   H24811108   1.838   0.523   7.608 -0.9717 -1.1688 -0.2519
   31MOL   H24911109   1.793   0.518   7.435  1.3845 -0.9963 -0.9982
   31MOL   H25011110   1.943   0.690   7.370  1.0912 -0.0482  1.1925
   31MOL   H25111111   1.970   0.710   7.548 -0.2638 -0.0945  0.4563
   31MOL   H25211112   1.787   0.862   7.427 -1.4309 -0.0030 -0.5048
   31MOL   H25311113   1.695   0.720   7.430  0.6805  1.2503 -2.3534
   31MOL   C25411114   1.601   0.808   7.636 -0.3837 -0.1301 -0.4437
   31MOL   O25511115   1.522   0.839   7.544 -0.0314  0.1921  0.4766
   31MOL   C25611116   1.559   0.786   7.782  0.1966 -0.4751  0.5636
   31MOL   C25711117   1.579   0.906   0.035  0.1386 -0.4724 -0.3528
   31MOL   C25811118   1.721   0.943   0.066 -0.1424  0.2515 -0.0463
   31MOL   C25911119   1.719   1.050   0.175  0.5101  0.3040  0.2446
   31MOL   C26011120   1.852   1.100   0.230 -0.4754 -0.2964 -0.7279
   31MOL   O26111121   1.942   1.164   0.137 -0.2338 -0.0677 -0.6492
   31MOL   H26211122   1.596   0.690   7.817  2.2171 -0.1371 -0.5726
   31MOL   H26311123   1.452   0.768   7.782  0.4307 -1.9576  1.0735
   31MOL   H26411124   1.522   0.897   0.127  0.0648 -0.5244 -0.4040
   31MOL   H26511125   1.535   0.993   7.831 -0.2573  0.6137  1.8593
   31MOL   H26611126   1.767   0.984   7.821 -2.2530  1.6393 -0.5176
   31MOL   H26711127   1.773   0.855   0.104 -0.1414  0.7346  1.1028
   31MOL   H26811128   1.663   1.015   0.262  1.1393 -3.1395 -0.6393
   31MOL   H26911129   1.659   1.133   0.138  0.5738 -0.1692 -0.9533
   31MOL   H27011130   1.830   1.172   0.309 -0.2888 -1.1181  0.0853
   31MOL   H27111131   1.911   1.022   0.277  0.6230  1.0347  0.1490
   31MOL   C27211132   1.937   1.300   0.124  0.0661  0.1574  0.0811
   31MOL   O27311133   1.861   1.374   0.178 -0.3449 -0.6250 -0.9055
   31MOL   C27411134   2.049   1.348   0.034  0.0644  0.4390 -0.4496
   31MOL   C27511135   2.025   1.486   7.811  0.8023 -0.1243 -0.4636
   31MOL   C27611136   2.137   1.536   7.721 -0.3373  0.6934  0.1567
   31MOL   C27711137   2.160   1.453   7.594  0.1151  0.0902 -0.4873
   31MOL   C27811138   2.252   1.535   7.510  0.4290  0.3730 -0.0679
   31MOL   O27911139   2.383   1.528   7.570  0.0478 -0.1795  0.0040
   31MOL   H28011140   2.061   1.276   7.798  0.8367 -0.5231  0.5223
   31MOL   H28111141   2.145   1.352   0.086 -0.4512  0.3511  0.5183
   31MOL   H28211142   2.017   1.558   0.048 -2.1035  1.8063 -2.3335
   31MOL   H28311143   1.922   1.480   7.774  1.0208 -2.3801 -0.7916
   31MOL   H28411144   2.223   1.554   7.785  1.5786  1.5140 -2.5900
   31MOL   H28511145   2.117   1.639   7.691 -0.4308 -0.2124 -3.0390
   31MOL   H28611146   2.057   1.435   7.565 -0.8274  2.4748  1.2531
   31MOL   H28711147   2.213   1.363   7.623 -0.1634 -0.0253 -0.3327
   31MOL   H28811148   2.261   1.480   7.416 -1.0723  0.9108 -0.5372
   31MOL   H28911149   2.216   1.637   7.497 -2.3278 -0.6866 -1.0733
   31MOL   C29011150   2.480   1.593   7.508  0.8384  0.1834 -0.2292
   31MOL   O29111151   2.465   1.634   7.394 -0.3174 -0.0637  0.0372
   31MOL   C29211152   2.616   1.611   7.580  0.3563  0.4002  0.3189
   31MOL   C29311153   2.711   1.712   7.521 -0.3100  0.7447 -0.2520
   31MOL   C29411154   2.833   1.744   7.613 -0.5401  0.5096  0.5701
   31MOL   C29511155   2.939   1.811   7.520 -0.4179  0.2388  0.5824
   31MOL   C29611156   3.065   1.853   7.589  0.2392  0.7441 -0.0771
   31MOL   O29711157   3.039   1.971   7.667 -0.0809 -0.0328 -0.1558
   31MOL   H29811158   2.667   1.515   7.588  0.5515  0.4864  0.0794
   31MOL   H29911159   2.597   1.645   7.682  2.5859 -0.7956  1.1572
   31MOL   H30011160   2.663   1.806   7.494 -2.3080  0.4582  2.0893
   31MOL   H30111161   2.747   1.660   7.432  0.5869 -1.3064  1.2698
   31MOL   H30211162   2.879   1.653   7.651  0.4968 -0.4375 -2.7758
   31MOL   H30311163   2.796   1.804   7.697  0.4230 -1.3595  2.3886
   31MOL   H30411164   2.883   1.891   7.471 -0.5987 -0.4967 -0.4210
   31MOL   H30511165   2.965   1.733   7.449 -2.4734 -0.9438  1.0942
   31MOL   H30611166   3.104   1.771   7.649 -3.1498 -0.1836  0.9322
   31MOL   H30711167   3.142   1.866   7.513 -0.9815  0.6812 -1.3435
   31MOL   C30811168   3.097   1.988   7.789 -0.3295  0.4325 -0.0475
   31MOL   O30911169   3.155   1.901   0.016  0.2553 -0.1264  0.1706
   31MOL   C31011170   3.069   2.121   0.005  0.0616  0.2026 -0.1191
   31MOL   C31111171   3.171   2.233   7.803  1.0573  0.4120 -1.0873
   31MOL   C31211172   3.155   2.291   7.657  0.0179  0.0819  0.0027
   31MOL   C31311173   3.270   2.386   7.621  0.5924  0.2539  0.4588
   31MOL   C31411174   3.277   2.404   7.471 -0.7376 -0.5188  0.7041
   31MOL   O31511175   3.405   2.450   7.433  0.6822 -0.2530  1.3133
   31MOL   H31611176   3.068   2.119   0.114  1.0568 -3.1509 -0.1233
   31MOL   H31711177   2.968   2.141   7.814 -0.6062 -0.5976  1.2556
   31MOL   H31811178   3.272   2.192   7.816  0.4342 -0.9589 -0.4951
   31MOL   H31911179   3.164   2.315   0.029 -1.5479 -1.9591  1.5121
   31MOL   H32011180   3.053   2.328   7.649  0.3565  0.9864 -0.1478
   31MOL   H32111181   3.159   2.204   7.592 -1.9303 -0.6229  0.7848
   31MOL   H32211182   3.369   2.355   7.654 -0.5913 -2.4599  1.6145
   31MOL   H32311183   3.262   2.485   7.665  1.1461  1.0952 -1.2561
   31MOL   H32411184   3.251   2.309   7.425 -1.1040 -0.0496 -0.0715
   31MOL   H32511185   3.207   2.483   7.444  1.0941  0.6313 -0.8024
   31MOL   C32611186   3.424   2.583   7.402 -0.3625  0.3708 -0.2604
   31MOL   O32711187   3.339   2.673   7.414  0.0670  0.2318 -0.5487
   31MOL   C32811188   3.565   2.611   7.354  0.0606 -0.3714 -0.1951
   31MOL   C32911189   3.574   2.576   7.211  0.7535 -0.0376 -0.1010
   31MOL   C33011190   3.700   2.621   7.135  0.5050 -0.4063  0.9291
   31MOL   C33111191   3.693   2.574   6.990  0.0044  0.7579 -0.5974
   31MOL   C33211192   3.797   2.642   6.892  0.3995  0.2761  0.5732
   31MOL   O33311193   3.918   2.572   6.900  0.2536 -0.2567 -0.3284
   31MOL   H33411194   3.639   2.558   7.415 -0.7723 -0.2630  0.9348
   31MOL   H33511195   3.585   2.716   7.372  1.5596 -0.8692  1.1684
   31MOL   H33611196   3.488   2.620   7.161 -0.5818  0.2793  2.3819
   31MOL   H33711197   3.565   2.468   7.207  0.5250  0.0212 -1.2086
   31MOL   H33811198   3.788   2.577   7.181  0.2374 -0.2450  1.6008
   31MOL   H33911199   3.715   2.729   7.133 -0.1515 -0.3433 -2.0656
   31MOL   H34011200   3.595   2.602   6.952 -0.4686 -0.3532 -0.2026
   31MOL   H34111201   3.699   2.467   6.972  0.0269  0.3659  1.5167
   31MOL   H34211202   3.748   2.651   6.795 -0.4860  1.7942  1.1407
   31MOL   H34311203   3.820   2.744   6.925  1.5369  0.1487  0.1934
   31MOL   C34411204   4.021   2.592   6.820  0.4628 -0.4768  0.3926
   31MOL   O34511205   4.028   2.671   6.723 -0.3814  0.1608 -0.2419
   31MOL   C34611206   4.141   2.510   6.866  0.7134  0.5037  0.0740
   31MOL   C34711207   4.140   2.358   6.822 -0.1755 -0.2113  0.1760
   31MOL   C34811208   4.195   2.324   6.690 -0.5037  0.4002 -0.5377
   31MOL   C34911209   4.197   2.174   6.650 -0.0897  0.1042 -0.6740
   31MOL   C35011210   4.217   2.163   6.503  0.0530  0.4587  0.4674
   31MOL   O35111211   4.210   2.017   6.466  0.3605 -0.5291 -0.0999
   31MOL   H35211212   4.132   2.524   6.974 -1.8703 -0.5396  0.0252
   31MOL   H35311213   4.229   2.559   6.825  0.0252  2.0365  0.3902
   31MOL   H35411214   4.044   2.310   6.842 -1.5408  1.4885 -1.9154
   31MOL   H35511215   4.205   2.306   6.892  0.9706  3.3273  1.8723
   31MOL   H35611216   4.300   2.350   6.675 -0.0224 -1.0530  0.2566
   31MOL   H35711217   4.130   2.379   6.621 -3.0178  0.2185  1.6284
   31MOL   H35811218   4.103   2.131   6.685 -0.6699 -0.3688 -2.7703
   31MOL   H35911219   4.281   2.130   6.703 -0.1999  0.3385 -0.3003
   31MOL   H36011220   4.124   2.202   6.462  0.5179  0.9897 -0.0832
   31MOL   H36111221   4.294   2.218   6.449 -0.8062 -1.2685 -2.6237
   31MOL   H36211222   4.234   2.017   6.375  2.8908  1.3778  0.4972
   32MOL     C111223   5.153   2.978   7.409  0.4515 -0.1647 -0.8262
   32MOL     O211224   5.126   3.097   7.439 -0.1379  0.0257  0.7645
   32MOL     C311225   5.039   2.882   7.375  1.1139  0.4051  0.6499
   32MOL     C411226   4.908   2.911   7.452  0.8255 -0.1631  0.5656
   32MOL     C511227   4.924   2.857   7.595 -0.3290  0.3778  0.3812
   32MOL     C611228   4.798   2.831   7.676  0.0498  0.1380  0.1530
   32MOL     C711229   4.834   2.785   7.814 -0.3026 -0.6318 -0.5606
   32MOL     O811230   4.736   2.709   0.038 -0.1027 -0.0338  0.1181
   32MOL     H911231   5.084   2.784   7.391 -1.9582 -1.1640  0.1151
   32MOL    H1011232   5.023   2.886   7.267 -2.2722 -0.1374  1.0540
   32MOL    H1111233   4.835   2.855   7.394  1.3349  0.1934 -0.4478
   32MOL    H1211234   4.869   3.013   7.450  1.5788  0.1132 -1.0663
   32MOL    H1311235   5.000   2.916   7.645  0.3086  0.3965 -0.5905
   32MOL    H1411236   4.974   2.761   7.582 -0.7867 -0.2902  3.1493
   32MOL    H1511237   4.738   2.754   7.627  0.9371 -0.4637 -0.0114
   32MOL    H1611238   4.733   2.918   7.682  2.2965  1.9153 -0.4308
   32MOL    H1711239   4.924   2.724   7.809  0.2043 -0.0071  0.7485
   32MOL    H1811240   4.853   2.873   0.031  1.3556 -1.2798 -0.1224
   32MOL    H1911241   5.256   2.943   7.403  0.8929  0.9800 -0.1130
   32MOL    C2011242   4.644   2.758   0.125 -0.2891 -0.0788 -0.2016
   32MOL    O2111243   4.637   2.879   0.153  0.4187  0.0291 -0.1445
   32MOL    C2211244   4.552   2.647   0.172  0.1636  0.1198 -0.2424
   32MOL    C2311245   4.444   2.691   0.279 -0.6373 -0.7918  0.1738
   32MOL    C2411246   4.385   2.562   0.342  0.0953 -0.2222 -0.5692
   32MOL    C2511247   4.317   2.478   0.241  0.2995 -0.5065 -0.1049
   32MOL    C2611248   4.245   2.359   0.291 -0.9330  0.0647 -0.6778
   32MOL    O2711249   4.331   2.271   0.370  0.0957 -0.8507  0.0318
   32MOL    H2811250   4.619   2.576   0.222  0.5972 -0.4747 -1.6441
   32MOL    H2911251   4.505   2.596   0.088  1.7622  0.7314 -1.5294
   32MOL    H3011252   4.354   2.741   0.244 -0.7626 -0.5128  0.8890
   32MOL    H3111253   4.506   2.749   0.348  0.5622 -0.9547 -0.7515
   32MOL    H3211254   4.314   2.590   0.420  2.7929  1.4718  1.3538
   32MOL    H3311255   4.463   2.502   0.390  0.4686  1.4187  0.9324
   32MOL    H3411256   4.395   2.452   0.168  2.9706  2.0466  1.7124
   32MOL    H3511257   4.253   2.542   0.180 -0.2555  0.8186  1.8300
   32MOL    H3611258   4.158   2.383   0.352 -2.4007 -0.9705 -2.3080
   32MOL    H3711259   4.210   2.304   0.203  2.5151 -2.9983 -0.2685
   32MOL    C3811260   4.408   2.187   0.311  0.1312  0.0132 -0.1398
   32MOL    O3911261   4.413   2.177   0.191 -0.3975  0.1500 -0.5451
   32MOL    C4011262   4.490   2.093   0.398 -0.0592  0.0974  0.0617
   32MOL    C4111263   4.506   1.952   0.331  0.5822  0.5070  0.3443
   32MOL    C4211264   4.376   1.878   0.302 -0.6793  0.6112 -0.4475
   32MOL    C4311265   4.409   1.735   0.258  0.2929 -0.6093  0.4853
   32MOL    C4411266   4.295   1.629   0.237  1.0325  0.4179 -0.7758
   32MOL    O4511267   4.349   1.509   0.179 -0.5952  0.4894 -0.5157
   32MOL    H4611268   4.456   2.072   0.500  1.3857 -2.5489  0.0445
   32MOL    H4711269   4.584   2.145   0.414  0.4115 -0.3599 -1.2070
   32MOL    H4811270   4.557   1.900   0.411  1.2291 -1.7843 -1.5074
   32MOL    H4911271   4.573   1.967   0.246  1.2032 -0.0900  0.7303
   32MOL    H5011272   4.329   1.928   0.218 -0.7779 -1.8380 -1.8983
   32MOL    H5111273   4.313   1.887   0.391  1.5235 -1.2367  1.3831
   32MOL    H5211274   4.468   1.684   0.335  1.9535  2.2487  1.1675
   32MOL    H5311275   4.482   1.723   0.178  0.3636 -0.6627  0.5573
   32MOL    H5411276   4.243   1.613   0.331  0.5409 -4.1570 -1.6947
   32MOL    H5511277   4.210   1.670   0.183  1.6910  0.6573 -1.6514
   32MOL    C5611278   4.355   1.504   0.046 -0.2410  0.2156 -0.0115
   32MOL    O5711279   4.358   1.609   7.822 -0.1286  0.0800  0.4953
   32MOL    C5811280   4.381   1.365   7.830 -0.3655 -0.0550 -0.3948
   32MOL    C5911281   4.417   1.360   7.678  0.0714 -0.4444  0.2410
   32MOL    C6011282   4.542   1.426   7.615  0.1984  0.1419 -0.6384
   32MOL    C6111283   4.539   1.405   7.460  0.4685 -0.4092  0.1583
   32MOL    C6211284   4.641   1.496   7.382 -0.8412 -0.0604  0.3320
   32MOL    O6311285   4.770   1.455   7.401  0.3648 -0.0641 -0.0991
   32MOL    H6411286   4.290   1.310   0.007  0.0997 -0.7873 -0.2726
   32MOL    H6511287   4.456   1.324   0.054 -0.3962  0.8615  0.2045
   32MOL    H6611288   4.328   1.405   7.634  1.1563  2.3880  0.7790
   32MOL    H6711289   4.422   1.255   7.648  1.4827 -0.5795  0.9019
   32MOL    H6811290   4.630   1.378   7.658  0.9184 -1.2935 -3.5834
   32MOL    H6911291   4.554   1.532   7.637  0.6854  0.5836 -2.8879
   32MOL    H7011292   4.444   1.430   7.413  0.3982 -0.1648  0.4288
   32MOL    H7111293   4.550   1.300   7.432  1.1969 -0.1551 -0.5458
   32MOL    H7211294   4.620   1.492   7.275  1.9135 -1.1358 -0.1929
   32MOL    H7311295   4.637   1.603   7.402  3.2947  0.3616 -0.6557
   32MOL    C7411296   4.868   1.475   7.306  0.4906 -0.3582 -0.1247
   32MOL    O7511297   4.858   1.519   7.199 -0.9277  0.4129  0.3655
   32MOL    C7611298   5.007   1.427   7.357 -0.3818 -0.5887  0.3157
   32MOL    C7711299   5.011   1.291   7.420  0.2771 -0.2570 -0.5938
   32MOL    C7811300   4.974   1.161   7.334  0.0818 -0.1291  0.0352
   32MOL    C7911301   4.924   1.042   7.418  0.4427 -0.5016 -0.3072
   32MOL    C8011302   4.923   0.908   7.347 -0.1496 -0.0098  0.1915
   32MOL    O8111303   4.927   0.804   7.447  0.2644  0.0904 -0.7695
   32MOL    H8211304   5.033   1.495   7.438 -0.9887  0.0551 -0.0340
   32MOL    H8311305   5.074   1.435   7.272 -0.7359  1.8434  0.2409
   32MOL    H8411306   4.938   1.302   7.501  0.1848 -1.2034 -0.5444
   32MOL    H8511307   5.109   1.287   7.468 -0.1064 -2.9668  0.0514
   32MOL    H8611308   5.057   1.134   7.269 -0.2628 -0.0044 -0.4592
   32MOL    H8711309   4.895   1.182   7.261  1.6449 -0.1859 -1.7063
   32MOL    H8811310   4.825   1.059   7.460  0.5913 -0.1516 -0.0912
   32MOL    H8911311   5.001   1.035   7.495  0.6469  1.7046 -0.2692
   32MOL    H9011312   4.832   0.902   7.286  0.3137  1.3636 -0.6601
   32MOL    H9111313   5.005   0.896   7.277 -0.6666  0.6662 -0.5409
   32MOL    C9211314   4.950   0.679   7.403 -0.0615 -0.1513  0.3627
   32MOL    O9311315   5.002   0.658   7.296  0.3475  0.0087  0.1190
   32MOL    C9411316   4.890   0.573   7.499  0.0016  0.1241 -0.2438
   32MOL    C9511317   4.742   0.552   7.503  0.1702  0.1138 -0.2963
   32MOL    C9611318   4.700   0.477   7.377  0.6862 -0.1714 -0.3089
   32MOL    C9711319   4.546   0.463   7.368  0.2993  0.0154  0.0075
   32MOL    C9811320   4.503   0.403   7.235 -0.8600  0.1450 -0.3902
   32MOL    O9911321   4.560   0.268   7.224 -0.0119  0.3457 -0.7109
   32MOL   H10011322   4.926   0.609   7.596  2.2238  1.9290 -1.6759
   32MOL   H10111323   4.928   0.473   7.476  0.9494  0.1858  0.9938
   32MOL   H10211324   4.694   0.650   7.509  2.6315  1.5279 -2.4437
   32MOL   H10311325   4.706   0.505   7.594  0.7904  0.8701  0.3449
   32MOL   H10411326   4.749   0.380   7.364  2.8565  0.6807  1.2837
   32MOL   H10511327   4.732   0.548   7.300  1.7440  1.2275  1.3917
   32MOL   H10611328   4.490   0.556   7.371 -0.2758 -0.2516 -1.5841
   32MOL   H10711329   4.512   0.398   7.449 -0.5682 -0.1564 -0.4865
   32MOL   H10811330   4.396   0.405   7.213 -0.5362 -0.3454 -2.0529
   32MOL   H10911331   4.543   0.476   7.165  0.0947  0.8823  0.8856
   32MOL   C11011332   4.586   0.217   7.099 -0.7683 -0.2864 -0.2546
   32MOL   O11111333   4.538   0.261   6.996 -0.4342  0.8260  0.4794
   32MOL   C11211334   4.661   0.086   7.105 -0.2308  0.2108  1.5616
   32MOL   C11311335   4.574   7.811   7.142 -0.5272  0.2712 -0.5181
   32MOL   C11411336   4.468   7.776   7.040 -0.4415  0.2563  0.0548
   32MOL   C11511337   4.394   7.644   7.058 -0.2619  0.0266 -0.4304
   32MOL   C11611338   4.281   7.623   6.960 -0.5174 -0.4241  0.4672
   32MOL   O11711339   4.225   7.495   6.956 -0.0901 -0.3926 -0.7823
   32MOL   H11811340   4.742   0.085   7.178  0.0699 -1.9046  1.2501
   32MOL   H11911341   4.705   0.073   7.007 -0.1938  0.5142  1.5392
   32MOL   H12011342   4.524   7.829   7.237 -0.2454 -4.2829  0.6433
   32MOL   H12111343   4.638   7.722   7.143 -1.6303 -0.5375 -0.2486
   32MOL   H12211344   4.518   7.759   6.945 -2.2197 -3.3951 -0.3211
   32MOL   H12311345   4.410   0.019   7.012 -1.4896 -0.2463  0.6415
   32MOL   H12411346   4.356   7.644   7.160  1.2674 -0.7501  0.1601
   32MOL   H12511347   4.470   7.568   7.042 -0.6295 -0.3231 -0.5269
   32MOL   H12611348   4.205   7.701   6.969 -0.3371 -0.2046  0.0793
   32MOL   H12711349   4.322   7.639   6.861  0.2508 -0.3631  0.7903
   32MOL   C12811350   4.107   7.462   7.023 -0.5731 -0.1362  0.0741
   32MOL   O12911351   4.041   7.529   7.102 -0.6133 -0.5101  0.0267
   32MOL   C13011352   4.069   7.322   7.008  0.1118 -0.0658 -0.0892
   32MOL   C13111353   3.938   7.280   7.079  0.0939  0.0818 -0.0563
   32MOL   C13211354   3.804   7.335   7.016  0.1253 -0.4201  0.1531
   32MOL   C13311355   3.752   7.286   6.880 -0.3795 -0.8267  0.3319
   32MOL   C13411356   3.630   7.371   6.831 -0.3825 -0.2012  0.5952
   32MOL   O13511357   3.603   7.338   6.696 -0.0121 -0.1492  0.6514
   32MOL   H13611358   4.153   7.265   7.048 -0.7730 -0.4332  1.2898
   32MOL   H13711359   4.051   7.291   6.905  0.0028 -0.6850  0.1141
   32MOL   H13811360   3.946   7.309   7.184 -0.2834 -1.1844  0.3318
   32MOL   H13911361   3.933   7.171   7.074 -0.7748  0.1170 -0.0510
   32MOL   H14011362   3.815   7.443   7.021 -0.5636 -0.4219  2.0032
   32MOL   H14111363   3.725   7.318   7.089  0.4082  0.2483  0.6209
   32MOL   H14211364   3.713   7.185   6.892  0.9238 -1.4308 -0.4098
   32MOL   H14311365   3.834   7.288   6.808  2.2180  1.0370  3.2167
   32MOL   H14411366   3.550   7.358   6.904 -2.2609  3.0242 -0.8013
   32MOL   H14511367   3.663   7.473   6.847  0.5521 -0.2206 -1.0659
   32MOL   C14611368   3.505   7.418   6.640  0.1191  0.0092 -0.1757
   32MOL   O14711369   3.435   7.500   6.699 -0.3278 -0.2525 -0.1299
   32MOL   C14811370   3.492   7.395   6.497 -0.8465  0.9967 -0.3479
   32MOL   C14911371   3.438   7.515   6.421 -0.2955 -0.4353 -0.0634
   32MOL   C15011372   3.430   7.499   6.265 -0.5784 -0.0309  0.2465
   32MOL   C15111373   3.368   7.613   6.189 -0.0342 -0.9207  0.2096
   32MOL   C15211374   3.455   7.744   6.194 -0.9267  0.1351  0.4117
   32MOL   O15311375   3.461   7.814   6.322  0.4600  0.1531 -0.0459
   32MOL   H15411376   3.431   7.307   6.476 -1.8378  1.2571  1.3283
   32MOL   H15511377   3.598   7.376   6.482 -1.0788 -0.1531 -0.5186
   32MOL   H15611378   3.490   7.606   6.450  0.5703 -0.7942 -0.4679
   32MOL   H15711379   3.341   7.541   6.463  0.1903  0.7085  0.3684
   32MOL   H15811380   3.383   7.406   6.236  0.6995 -0.7406  0.4153
   32MOL   H15911381   3.537   7.484   6.245 -0.2108  1.8136  0.7001
   32MOL   H16011382   3.277   7.651   6.235  1.6872  2.3923  1.0926
   32MOL   H16111383   3.345   7.586   6.086 -0.8471 -0.8371  0.3683
   32MOL   H16211384   3.557   7.720   6.164 -0.7458  0.3341  0.8767
   32MOL   H16311385   3.424   7.814   6.116 -2.4692 -1.5518 -0.5451
   32MOL   C16411386   3.527   0.086   6.324  0.2641 -0.2592  0.4571
   32MOL   O16511387   3.578   0.150   6.236  0.1924  0.5956  0.1034
   32MOL   C16611388   3.536   0.122   6.470 -0.0993 -0.0467  0.0356
   32MOL   C16711389   3.597   0.261   6.497  0.3719 -0.8159 -0.0624
   32MOL   C16811390   3.531   0.314   6.624  0.4931  0.1388  0.3316
   32MOL   C16911391   3.594   0.448   6.662  0.2719  0.0738  0.4599
   32MOL   C17011392   3.538   0.493   6.796 -0.1369 -0.3410  1.0105
   32MOL   O17111393   3.607   0.608   6.831  0.3249 -0.5622  0.0257
   32MOL   H17211394   3.600   0.049   6.518 -0.0038  0.2895  0.4181
   32MOL   H17311395   3.437   0.111   6.514 -0.5240  1.7008 -0.4346
   32MOL   H17411396   3.564   0.336   6.425  0.6138  0.0028  0.6808
   32MOL   H17511397   3.703   0.280   6.506  0.2870 -0.5225  0.3221
   32MOL   H17611398   3.545   0.240   6.702 -2.3694 -0.3087  0.4794
   32MOL   H17711399   3.423   0.315   6.611  0.7097  0.1098 -1.5993
   32MOL   H17811400   3.588   0.521   6.582  2.1366  0.3500  0.5572
   32MOL   H17911401   3.702   0.438   6.662  0.4926  2.2172 -2.2332
   32MOL   H18011402   3.430   0.502   6.786 -0.1286 -0.7051  0.5769
   32MOL   H18111403   3.555   0.422   6.876 -1.7442  0.3079  1.9374
   32MOL   C18211404   3.711   0.609   6.910 -0.0705 -0.4706 -0.3358
   32MOL   O18311405   3.772   0.512   6.952 -0.1497  0.1001 -0.5300
   32MOL   C18411406   3.767   0.745   6.947  0.0013 -1.1169  0.3987
   32MOL   C18511407   3.781   0.855   6.833 -0.2432  0.5342 -0.4044
   32MOL   C18611408   3.872   0.964   6.894 -0.2519 -0.7543  0.0080
   32MOL   C18711409   3.906   1.087   6.806  0.4992  0.7075 -0.9416
   32MOL   C18811410   4.018   1.167   6.866 -0.4202 -0.0166 -0.0060
   32MOL   O18911411   4.141   1.109   6.840  0.2159 -0.0167  0.0062
   32MOL   H19011412   3.864   0.734   6.995  1.2089 -1.1147 -1.9769
   32MOL   H19111413   3.705   0.788   7.026 -0.2667 -1.3665  0.3225
   32MOL   H19211414   3.683   0.895   6.806  0.2003  1.0346 -1.2838
   32MOL   H19311415   3.827   0.810   6.745  0.1893 -0.6626  0.4276
   32MOL   H19411416   3.967   0.925   6.932  0.5254  0.8225 -0.2494
   32MOL   H19511417   3.828   1.008   6.983  1.0009 -0.9871  0.7505
   32MOL   H19611418   3.812   1.141   6.794 -1.3564 -2.4325 -0.9160
   32MOL   H19711419   3.943   1.046   6.713  0.5119 -2.3163  0.3301
   32MOL   H19811420   4.007   1.263   6.816 -3.0887 -1.1026 -1.6479
   32MOL   H19911421   4.006   1.182   6.974 -0.8426 -2.2875  0.2794
   32MOL   C20011422   4.249   1.177   6.868 -0.4344 -0.6446  0.0526
   32MOL   O20111423   4.250   1.289   6.920 -0.4850 -0.0746  0.0810
   32MOL   C20211424   4.376   1.094   6.836  0.0790 -0.5767  0.0164
   32MOL   C20311425   4.506   1.120   6.919 -0.0664 -0.2395 -0.0091
   32MOL   C20411426   4.576   1.260   6.902 -0.5113  0.1758 -0.2776
   32MOL   C20511427   4.725   1.276   6.947  0.6901  0.0280  0.0272
   32MOL   C20611428   4.803   1.382   6.875 -0.4000 -0.4505  0.0688
   32MOL   O20711429   4.821   1.356   6.739 -0.7264 -0.3942  0.6162
   32MOL   H20811430   4.404   1.106   6.731 -1.8002  0.9610 -0.3392
   32MOL   H20911431   4.348   0.989   6.838 -0.1297 -0.5016  0.8402
   32MOL   H21011432   4.573   1.036   6.900 -0.3412 -0.7941  1.4263
   32MOL   H21111433   4.482   1.104   7.024 -0.2101  1.2185  0.1862
   32MOL   H21211434   4.526   1.339   6.959  1.2465  0.0925  1.4234
   32MOL   H21311435   4.569   1.295   6.799  0.1719 -0.5054 -0.5567
   32MOL   H21411436   4.789   1.187   6.943 -0.3900 -0.8037  0.8207
   32MOL   H21511437   4.723   1.292   7.055  0.1959 -1.8156  0.3232
   32MOL   H21611438   4.758   1.480   6.887  1.5323  0.4100  0.5031
   32MOL   H21711439   4.903   1.388   6.919  0.9567 -0.2216 -2.9672
   32MOL   C21811440   4.920   1.285   6.690  0.0694 -0.2861  0.0485
   32MOL   O21911441   5.009   1.232   6.751  0.5173  0.5031  0.0550
   32MOL   C22011442   4.905   1.280   6.541 -0.6666 -0.4150  0.0780
   32MOL   C22111443   5.048   1.248   6.478  0.4079  0.3662 -0.7043
   32MOL   C22211444   5.059   1.267   6.325  0.9202 -0.3035  0.3776
   32MOL   C22311445   5.193   1.234   6.261 -0.3560 -0.5456 -0.4896
   32MOL   C22411446   5.224   1.290   6.116 -0.2524 -0.7326  0.1808
   32MOL   O22511447   5.149   1.215   6.024  0.7185 -0.1384  0.1077
   32MOL   H22611448   4.866   1.376   6.505 -2.3313 -2.5041 -4.0118
   32MOL   H22711449   4.819   1.215   6.523 -1.1615  0.1869  0.2408
   32MOL   H22811450   5.074   1.147   6.510  0.5399  0.4143 -0.6620
   32MOL   H22911451   5.117   1.324   6.513  0.1997  0.3799 -0.3217
   32MOL   H23011452   5.034   1.368   6.294 -2.5894 -1.0470  0.5645
   32MOL   H23111453   4.991   1.194   6.282 -1.0471  1.4410  0.4817
   32MOL   H23211454   5.213   1.127   6.260  0.5037 -0.3773 -1.6339
   32MOL   H23311455   5.269   1.280   6.325 -0.5599 -1.8270  0.6961
   32MOL   H23411456   5.210   1.396   6.136  0.6188 -0.8342  1.4153
   32MOL   H23511457   5.326   1.262   6.089 -0.0090  0.2759  0.0448
   32MOL   C23611458   5.077   1.284   5.937 -0.2046  0.3917  0.6298
   32MOL   O23711459   5.057   1.406   5.928 -0.4884  0.0318 -0.1292
   32MOL   C23811460   5.007   1.188   5.842  0.0491  0.1835 -0.3575
   32MOL   C23911461   4.926   1.252   5.726 -0.1947 -0.1544  0.1530
   32MOL   C24011462   5.017   1.320   5.618  0.5024  0.6682 -0.2861
   32MOL   C24111463   4.955   1.317   5.476  0.2450 -0.0619 -0.0181
   32MOL   C24211464   5.043   1.360   5.360 -0.0619  0.0408 -0.0007
   32MOL   O24311465   5.117   1.478   5.374 -1.1025 -0.3147 -0.1506
   32MOL   H24411466   4.938   1.140   5.912 -0.6100 -0.4397 -1.4248
   32MOL   H24511467   5.079   1.117   5.799 -0.6507  0.1508 -1.4857
   32MOL   H24611468   4.855   1.328   5.761 -0.8465 -0.3476 -0.7467
   32MOL   H24711469   4.864   1.172   5.687 -1.6386  1.2780 -0.5609
   32MOL   H24811470   5.117   1.277   5.618  0.2561  0.0564  2.3582
   32MOL   H24911471   5.044   1.420   5.652  2.7770 -0.1482  0.4147
   32MOL   H25011472   4.867   1.382   5.483  2.6811  3.6357 -2.1558
   32MOL   H25111473   4.913   1.222   5.444 -1.7688  1.2428 -1.3785
   32MOL   H25211474   5.107   1.275   5.341 -3.4191 -2.1884 -1.7833
   32MOL   H25311475   4.985   1.351   5.269  0.4326 -1.6812 -0.1473
   32MOL   C25411476   5.198   1.526   5.280 -0.3592 -0.1074  0.1466
   32MOL   O25511477   5.208   1.470   5.173 -0.0516 -0.8928 -0.1937
   32MOL   C25611478   5.268   1.655   5.315 -0.7374 -0.8657  0.2451
   32MOL   C25711479   5.375   1.694   5.212 -0.2015 -0.2724  0.3264
   32MOL   C25811480   5.453   1.822   5.250  0.3323 -0.3964  0.0038
   32MOL   C25911481   5.570   1.862   5.162 -0.5851  0.0877 -0.5710
   32MOL   C26011482   5.647   1.989   5.206 -0.5046  0.4386 -0.3377
   32MOL   O26111483   5.727   1.953   5.323  0.1009 -0.3874 -0.0434
   32MOL   H26211484   5.324   1.641   5.407 -0.7362  1.1887  0.5857
   32MOL   H26311485   5.189   1.729   5.324 -0.5017 -0.0550 -3.5221
   32MOL   H26411486   5.331   1.715   5.115  1.7547  1.9795 -0.1211
   32MOL   H26511487   5.436   1.605   5.199  1.4464  0.7178  1.0947
   32MOL   H26611488   5.487   1.810   5.353 -1.2917  0.2913  0.6278
   32MOL   H26711489   5.386   1.907   5.248  0.1268 -0.5784 -2.0961
   32MOL   H26811490   5.546   1.872   5.057 -0.3754 -2.0136 -0.8493
   32MOL   H26911491   5.643   1.780   5.161  0.8826  1.3527 -0.0765
   32MOL   H27011492   5.705   2.036   5.126 -1.6911  1.6537 -0.4963
   32MOL   H27111493   5.572   2.060   5.239  0.0094 -0.0922  2.0133
   32MOL   C27211494   5.856   1.912   5.317  0.7748 -0.0931  0.5667
   32MOL   O27311495   5.916   1.883   5.218  0.3151  0.0342  0.0924
   32MOL   C27411496   5.925   1.918   5.448 -0.2515 -0.1075 -0.0719
   32MOL   C27511497   6.076   1.874   5.443 -0.5909 -0.1351 -0.3890
   32MOL   C27611498   6.143   1.847   5.582  1.3993 -0.8282  0.2274
   32MOL   C27711499   6.094   1.721   5.650 -0.0551  0.6716 -0.2086
   32MOL   C27811500   6.150   1.715   5.790  0.4646 -0.1922  0.3544
   32MOL   O27911501   6.287   1.697   5.790  0.2941 -0.7376  0.1309
   32MOL   H28011502   5.877   1.862   5.528  1.3973  1.3377  1.9935
   32MOL   H28111503   5.935   2.022   5.479  3.0841 -0.1381 -0.8332
   32MOL   H28211504   6.138   1.945   5.388 -0.3848 -1.7160 -2.2334
   32MOL   H28311505   6.081   1.785   5.381  2.4575  1.4536 -2.6228
   32MOL   H28411506   6.122   1.933   5.645  1.6867 -0.1767 -0.5636
   32MOL   H28511507   6.252   1.842   5.572  1.5061 -1.7907  1.6629
   32MOL   H28611508   6.113   1.640   5.581  0.6077 -1.5583  2.5215
   32MOL   H28711509   5.985   1.712   5.656 -0.0665 -0.9020 -2.4268
   32MOL   H28811510   6.125   1.798   5.856 -2.6510 -1.4703  0.8338
   32MOL   H28911511   6.093   1.639   5.842 -0.8299 -0.5019 -1.4764
   32MOL   C29011512   6.341   1.681   5.912 -0.0379 -1.1279 -0.1678
   32MOL   O29111513   6.283   1.696   6.018  0.1768  0.3608  0.3760
   32MOL   C29211514   6.484   1.637   5.902  0.6256  0.0098  0.3357
   32MOL   C29311515   6.508   1.506   5.989 -0.5517 -0.3950 -0.4193
   32MOL   C29411516   6.660   1.474   5.997  0.2695 -0.1069 -0.9620
   32MOL   C29511517   6.698   1.377   6.119  1.1339 -0.1267 -0.4326
   32MOL   C29611518   6.840   1.349   6.130  0.0344  0.4171 -0.6027
   32MOL   O29711519   6.877   1.250   6.229  0.2832 -0.2233  0.1279
   32MOL   H29811520   6.560   1.710   5.932 -1.2027  1.8471  0.5841
   32MOL   H29911521   6.514   1.616   5.799  2.6496 -3.3497  1.5389
   32MOL   H30011522   6.462   1.413   5.956  0.3957 -0.5425 -1.3366
   32MOL   H30111523   6.464   1.526   6.087  0.1864  0.4765 -0.2553
   32MOL   H30211524   6.718   1.566   6.005  1.3701 -0.8420 -0.4932
   32MOL   H30311525   6.698   1.435   5.903  1.0829 -0.9520 -0.2819
   32MOL   H30411526   6.638   1.286   6.116 -0.6142  0.9048  1.4640
   32MOL   H30511527   6.670   1.417   6.217  1.4835 -0.0429 -0.3667
   32MOL   H30611528   6.874   1.316   6.032  0.3831  1.5712 -0.8831
   32MOL   H30711529   6.884   1.440   6.171 -0.5420  0.2598  0.3917
   32MOL   C30811530   7.013   1.235   6.254  0.1683  0.6984 -0.0777
   32MOL   O30911531   7.107   1.284   6.188 -0.0285  0.3756 -0.2098
   32MOL   C31011532   7.035   1.142   6.371  0.2875  0.1167  0.0611
   32MOL   C31111533   6.956   1.183   6.491 -0.1876 -0.1518 -0.4325
   32MOL   C31211534   6.956   1.093   6.616  0.2395  0.7035 -0.4837
   32MOL   C31311535   6.894   1.157   6.740  0.7400 -0.3637  0.2823
   32MOL   C31411536   6.884   1.064   6.859 -0.2068 -0.0361 -0.1203
   32MOL   O31511537   6.832   1.134   6.972 -0.1688 -0.1330 -0.3889
   32MOL   H31611538   7.141   1.122   6.390  0.5109  0.4378 -0.8495
   32MOL   H31711539   6.997   1.051   6.326 -1.3927  0.8859 -0.0881
   32MOL   H31811540   6.856   1.208   6.454 -0.4618  0.0891  0.4576
   32MOL   H31911541   7.007   1.275   6.519  1.5783 -1.4824  0.7506
   32MOL   H32011542   7.059   1.059   6.618 -0.1316 -0.4150  1.8334
   32MOL   H32111543   6.896   1.004   6.597  0.4432  0.1605  1.3181
   32MOL   H32211544   6.797   1.203   6.723  2.1020  2.6236  0.3673
   32MOL   H32311545   6.965   1.231   6.777 -0.6308  1.5063 -0.7638
   32MOL   H32411546   6.827   0.979   6.821 -0.7540  0.8722 -1.3615
   32MOL   H32511547   6.986   1.035   6.884 -0.2662  1.8509  2.4541
   32MOL   C32611548   6.704   1.118   7.006 -0.4159  0.3236  0.5162
   32MOL   O32711549   6.611   1.072   6.936  0.2908 -0.3223  1.0903
   32MOL   C32811550   6.669   1.148   7.147  0.3329  1.1226 -0.1082
   32MOL   C32911551   6.791   1.136   7.243  0.6939  0.1499  0.1893
   32MOL   C33011552   6.743   1.136   7.391 -0.3283  0.0777 -0.3349
   32MOL   C33111553   6.862   1.166   7.481 -0.0822 -0.4004  0.0700
   32MOL   C33211554   6.835   1.131   7.624 -0.0888 -0.5574  0.4263
   32MOL   O33311555   6.740   1.223   7.683  0.0235 -0.0640  0.0425
   32MOL   H33411556   6.593   1.082   7.186  0.6965  1.9064  1.9581
   32MOL   H33511557   6.620   1.245   7.155  0.5502  1.4586 -2.4754
   32MOL   H33611558   6.856   1.223   7.248  1.4481 -0.3914 -0.0091
   32MOL   H33711559   6.837   1.041   7.214  1.0723  0.1062  0.9256
   32MOL   H33811560   6.699   1.037   7.405  1.1282 -0.3439  1.3681
   32MOL   H33911561   6.665   1.210   7.406 -0.5331  0.1036 -1.4751
   32MOL   H34011562   6.892   1.271   7.470 -1.1592 -0.1016 -0.0943
   32MOL   H34111563   6.956   1.120   7.450 -0.5556 -0.6102 -1.0876
   32MOL   H34211564   6.795   1.029   7.622  0.3439 -0.7226  0.2037
   32MOL   H34311565   6.931   1.123   7.674  1.2131  0.8753 -1.7456
   32MOL   C34411566   6.783   1.347   7.726  0.3590  0.2374  0.0724
   32MOL   O34511567   6.900   1.378   7.732  0.4747 -0.1197 -0.9352
   32MOL   C34611568   6.675   1.437   7.782 -0.4769 -0.0318  0.0692
   32MOL   C34711569   6.554   1.450   7.695  0.0073  0.0062 -0.0326
   32MOL   C34811570   6.567   1.579   7.605 -0.5965  0.1610  0.3627
   32MOL   C34911571   6.450   1.582   7.513 -0.0356  0.2958 -0.2685
   32MOL   C35011572   6.454   1.697   7.411  0.5370  0.7699  0.7906
   32MOL   O35111573   6.337   1.694   7.335  0.5694  0.2851  0.1753
   32MOL   H35211574   6.711   1.538   7.804 -0.5486  0.1420 -0.5982
   32MOL   H35311575   6.641   1.386   0.027 -2.6955  0.4395 -0.4737
   32MOL   H35411576   6.461   1.463   7.750  0.1059  0.0744  0.1174
   32MOL   H35511577   6.537   1.364   7.631 -0.3814 -0.4783  0.7126
   32MOL   H35611578   6.655   1.575   7.541 -0.2367 -0.1004  0.8653
   32MOL   H35711579   6.585   1.672   7.660  1.1462  0.6605 -1.0042
   32MOL   H35811580   6.368   1.596   7.584 -0.8294 -0.3453 -1.0585
   32MOL   H35911581   6.432   1.486   7.466  1.0783  0.4982 -1.1285
   32MOL   H36011582   6.450   1.795   7.458 -0.9050  0.9932  0.2405
   32MOL   H36111583   6.543   1.685   7.349  0.8491  0.4467  1.2960
   32MOL   H36211584   6.340   1.619   7.277  0.4762  0.2114  0.2653
   33MOL     C111585   5.111   7.085   5.109  1.2134  0.1247 -0.1788
   33MOL     O211586   5.013   7.107   5.181 -0.0100  0.6178  0.0914
   33MOL     C311587   5.251   7.088   5.166  0.1041  0.1396  0.2511
   33MOL     C411588   5.269   7.211   5.260 -0.8677  0.3078 -0.0662
   33MOL     C511589   5.407   7.197   5.339  0.3038 -1.3062 -0.0473
   33MOL     C611590   5.458   7.327   5.398  0.4298  0.3155 -0.2407
   33MOL     C711591   5.600   7.319   5.438  0.0836 -0.3265 -0.0852
   33MOL     O811592   5.611   7.215   5.537 -0.2871  0.4824  0.1476
   33MOL     H911593   5.320   7.090   5.082  0.8819 -2.1250  0.8147
   33MOL    H1011594   5.267   6.988   5.206  0.1205  0.2855  0.6155
   33MOL    H1111595   5.191   7.224   5.335  0.8588  0.6208  1.7112
   33MOL    H1211596   5.265   7.305   5.205 -0.8883  0.6688  0.5437
   33MOL    H1311597   5.493   7.167   5.277  3.0292  1.4234  2.2732
   33MOL    H1411598   5.403   7.116   5.412 -0.0126 -0.6316  0.6770
   33MOL    H1511599   5.398   7.355   5.484 -0.9018 -0.2718 -0.9671
   33MOL    H1611600   5.448   7.402   5.319 -1.2512 -0.3158 -0.6464
   33MOL    H1711601   5.662   7.312   5.348 -0.9150  2.9314 -1.0768
   33MOL    H1811602   5.626   7.410   5.491 -0.3023  0.0631 -0.5576
   33MOL    H1911603   5.114   7.051   5.005  1.1964 -0.9609  0.1730
   33MOL    C2011604   5.743   7.177   5.568  0.1804  0.0366 -0.5771
   33MOL    O2111605   5.841   7.238   5.525  0.1225 -0.2694 -0.8842
   33MOL    C2211606   5.754   7.049   5.648 -0.6411  0.7131  0.0117
   33MOL    C2311607   5.645   7.025   5.753 -0.6782 -0.2301  0.0570
   33MOL    C2411608   5.695   6.951   5.873  0.0888 -0.7253  0.8319
   33MOL    C2511609   5.583   6.870   5.943 -0.0476 -0.1936 -0.1871
   33MOL    C2611610   5.456   6.952   5.982 -1.2220 -0.9810 -0.5289
   33MOL    O2711611   5.487   7.064   6.062  0.5336 -0.0492 -0.7274
   33MOL    H2811612   5.842   7.052   5.712 -2.8652  0.8868  3.1521
   33MOL    H2911613   5.742   6.965   5.580 -1.3144  1.3129 -0.6335
   33MOL    H3011614   5.553   6.989   5.707 -0.8561 -0.1017  0.3140
   33MOL    H3111615   5.602   7.119   5.786 -0.2478 -0.2039  0.5451
   33MOL    H3211616   5.741   7.027   5.936  1.0216 -0.1104 -0.5853
   33MOL    H3311617   5.771   6.880   5.839  1.4554  0.4266  1.4266
   33MOL    H3411618   5.621   6.823   6.034  1.5190 -3.1100 -2.2788
   33MOL    H3511619   5.546   6.789   5.881 -0.7711  0.8150 -1.0931
   33MOL    H3611620   5.421   6.985   5.884  0.8071 -2.4828 -1.8273
   33MOL    H3711621   5.366   6.901   6.013 -0.8063 -1.7502 -0.5686
   33MOL    C3811622   5.470   7.054   6.195 -0.0751  0.1986  0.3743
   33MOL    O3911623   5.429   6.950   6.256  0.1228  0.3761 -0.0681
   33MOL    C4011624   5.492   7.185   6.263 -0.3392 -0.2374  0.3527
   33MOL    C4111625   5.630   7.206   6.328 -0.1598 -0.0913  0.2585
   33MOL    C4211626   5.746   7.218   6.230 -0.8896 -0.0588  0.5304
   33MOL    C4311627   5.721   7.324   6.121 -0.2636  0.1652  0.1237
   33MOL    C4411628   5.849   7.349   6.045  0.3334 -0.0647 -0.0698
   33MOL    O4511629   5.819   7.436   5.934  0.0743  0.2957 -0.2885
   33MOL    H4611630   5.411   7.212   6.331 -0.6026  0.3179 -0.1720
   33MOL    H4711631   5.473   7.257   6.184  2.2643 -0.8703 -0.9031
   33MOL    H4811632   5.649   7.131   6.406 -1.4002 -1.3616 -0.6324
   33MOL    H4911633   5.630   7.303   6.377 -0.3305  0.7355 -1.3534
   33MOL    H5011634   5.749   7.122   6.177  1.8653 -0.7312  1.8503
   33MOL    H5111635   5.847   7.224   6.269 -0.9663 -0.4658  0.7919
   33MOL    H5211636   5.689   7.418   6.166  2.9623  0.9588  0.8874
   33MOL    H5311637   5.645   7.283   6.054 -0.4962 -0.5507  0.8106
   33MOL    H5411638   5.926   7.397   6.105 -0.5062 -1.4106  2.1829
   33MOL    H5511639   5.878   7.250   6.010 -3.0271 -1.1825  0.0450
   33MOL    C5611640   5.907   7.450   5.836  0.3621 -0.3764  0.7314
   33MOL    O5711641   6.012   7.390   5.824  0.3826  0.5442  0.1498
   33MOL    C5811642   5.861   7.546   5.728  0.5673 -0.6189 -0.4863
   33MOL    C5911643   5.977   7.603   5.638 -0.2345 -0.0936 -0.2894
   33MOL    C6011644   6.103   7.659   5.711  0.1539 -0.5974 -0.0911
   33MOL    C6111645   6.203   7.703   5.598 -0.1683 -0.4101  0.1641
   33MOL    C6211646   6.302   7.796   5.666  0.5256  0.0016  0.4587
   33MOL    O6311647   6.405   7.822   5.565 -0.2036  0.0999  0.0823
   33MOL    H6411648   5.803   7.623   5.778  1.2386 -1.2827  1.3549
   33MOL    H6511649   5.793   7.507   5.652  0.4600 -0.2278 -0.5937
   33MOL    H6611650   5.926   7.694   5.606  2.2154  2.3317  2.3028
   33MOL    H6711651   6.004   7.529   5.562 -0.6284  0.5550 -1.0633
   33MOL    H6811652   6.150   7.589   5.780  1.7312  3.2889  2.9599
   33MOL    H6911653   6.059   7.739   5.770  0.9172  0.0317 -0.3761
   33MOL    H7011654   6.154   7.764   5.522  1.1878 -0.8924 -1.1137
   33MOL    H7111655   6.252   7.616   5.554  2.5153  1.5882 -0.8932
   33MOL    H7211656   6.260   0.049   5.690 -0.3461 -0.1569 -0.4149
   33MOL    H7311657   6.347   7.758   5.758 -0.1157  0.6199  1.0327
   33MOL    C7411658   6.520   0.033   5.607  0.2584  0.5681 -0.7782
   33MOL    O7511659   6.562   0.029   5.726 -0.7269 -0.5677 -0.1176
   33MOL    C7611660   6.611   0.081   5.494  0.5783 -0.2800 -0.4398
   33MOL    C7711661   6.724   7.826   5.475  0.3042 -1.2145  0.4012
   33MOL    C7811662   6.698   7.681   5.427  0.3052  0.6506  0.3186
   33MOL    C7911663   6.812   7.607   5.349  0.5362 -0.1027 -0.7642
   33MOL    C8011664   6.769   7.467   5.309 -0.5668 -0.8027  0.0267
   33MOL    O8111665   6.876   7.398   5.252 -0.4899 -0.2049  0.1889
   33MOL    H8211666   6.655   0.179   5.514 -1.3240  0.7227 -1.0337
   33MOL    H8311667   6.554   0.090   5.401  3.5978 -3.1523 -2.6998
   33MOL    H8411668   6.787   7.821   5.565 -0.1260  2.8280  1.0101
   33MOL    H8511669   6.784   0.022   5.394  0.8959  0.3863  1.6221
   33MOL    H8611670   6.610   7.685   5.363 -0.2856  1.2474  1.1565
   33MOL    H8711671   6.669   7.608   5.503  0.4344 -0.0724 -0.3269
   33MOL    H8811672   6.898   7.603   5.414  0.8078  2.2130 -0.9368
   33MOL    H8911673   6.841   7.669   5.264  2.0911 -0.9432 -0.8516
   33MOL    H9011674   6.746   7.417   5.403 -0.7305 -0.3002  0.2522
   33MOL    H9111675   6.679   7.463   5.247  0.0412 -0.7285 -0.8844
   33MOL    C9211676   6.884   7.265   5.261  0.5424  0.6853  0.0105
   33MOL    O9311677   6.792   7.191   5.282  0.3294  0.7833 -0.4862
   33MOL    C9411678   7.024   7.219   5.243 -0.2115  0.6079 -0.1561
   33MOL    C9511679   7.065   7.075   5.275  1.5716 -0.4512  0.0502
   33MOL    C9611680   6.996   6.976   5.178  0.4183  0.1915  0.6309
   33MOL    C9711681   7.047   6.832   5.176  0.0654  0.9981  0.1365
   33MOL    C9811682   6.967   6.759   5.067 -0.5613  0.8332 -0.3077
   33MOL    O9911683   6.958   6.618   5.077 -0.0614  0.0498  0.7566
   33MOL   H10011684   7.096   7.279   5.299  1.7839 -1.1940 -0.7653
   33MOL   H10111685   7.040   7.231   5.135  1.8660  1.1928  0.1878
   33MOL   H10211686   7.026   7.054   5.374  0.8601  1.0994  0.1253
   33MOL   H10311687   7.173   7.075   5.265  1.4653  1.7086 -1.5689
   33MOL   H10411688   7.004   7.008   5.074  1.7355 -2.3736 -0.0887
   33MOL   H10511689   6.894   6.972   5.216  0.3168  0.8323  0.4389
   33MOL   H10611690   7.033   6.793   5.276  1.6926  1.6340  0.6391
   33MOL   H10711691   7.153   6.825   5.150 -0.2160 -1.7356 -0.4759
   33MOL   H10811692   6.866   6.799   5.075 -1.3401 -1.4506  1.8327
   33MOL   H10911693   7.009   6.783   4.969  0.6731 -1.3946 -0.3508
   33MOL   C11011694   6.911   6.540   4.978 -0.3965  0.9372  0.4396
   33MOL   O11111695   6.863   6.581   4.873 -0.4936  0.1220 -0.1814
   33MOL   C11211696   6.904   6.394   5.016  0.5520 -0.2958  0.5941
   33MOL   C11311697   6.913   6.309   4.896 -0.7445  0.2349 -0.3458
   33MOL   C11411698   7.047   6.309   4.828 -0.6892 -0.0004  0.3178
   33MOL   C11511699   7.029   6.231   4.697  0.0203 -0.1281 -0.4644
   33MOL   C11611700   7.152   6.248   4.600 -0.5579 -0.1001  0.2441
   33MOL   O11711701   7.133   6.169   4.485 -0.4605 -0.8286 -0.6487
   33MOL   H11811702   6.810   6.382   5.071 -0.2832 -0.0806 -0.7640
   33MOL   H11911703   6.975   6.367   5.095  1.1009 -0.9024 -0.0995
   33MOL   H12011704   6.831   6.338   4.830 -0.5608 -2.5300 -1.8078
   33MOL   H12111705   6.887   6.207   4.922 -1.7545  0.8463  1.1475
   33MOL   H12211706   7.126   6.266   4.889 -2.9318 -2.8883  1.2820
   33MOL   H12311707   7.088   6.408   4.806 -1.0331  0.5794  2.2151
   33MOL   H12411708   6.951   6.272   4.633  0.6989  5.6475  2.0310
   33MOL   H12511709   6.999   6.129   4.720 -0.4658  0.2450  0.5996
   33MOL   H12611710   7.147   6.353   4.571  0.4956  0.6303  2.5784
   33MOL   H12711711   7.246   6.220   4.649 -0.2379  1.3496  0.5025
   33MOL   C12811712   7.210   6.176   4.379 -0.3817 -0.9031 -0.3663
   33MOL   O12911713   7.303   6.256   4.369 -0.1042 -0.2879  0.2266
   33MOL   C13011714   7.159   6.098   4.256 -0.3954  0.5916 -0.7814
   33MOL   C13111715   7.273   6.039   4.171  0.2215  0.4794  0.2438
   33MOL   C13211716   7.223   5.954   4.049  0.1933  0.2545  0.8482
   33MOL   C13311717   7.328   5.879   3.958 -0.0956  0.0853  0.3003
   33MOL   C13411718   7.256   5.778   3.865  0.5090  0.5284  0.2683
   33MOL   O13511719   7.345   5.701   3.794  0.3094 -0.5515 -0.0793
   33MOL   H13611720   7.122   6.174   4.188  1.0523 -0.6826 -3.0497
   33MOL   H13711721   7.082   6.023   4.274  0.2971  0.0983  0.1737
   33MOL   H13811722   7.339   5.994   4.244 -0.8960 -0.4244  0.7162
   33MOL   H13911723   7.324   6.125   4.128  1.8440 -1.3530 -1.5962
   33MOL   H14011724   7.148   6.004   3.988 -0.6802 -3.3109 -1.1597
   33MOL   H14111725   7.177   5.864   4.088 -2.4088  0.2703 -1.9917
   33MOL   H14211726   7.410   5.838   4.017 -0.1749  0.7141  0.8596
   33MOL   H14311727   7.373   5.957   3.896  1.4213 -1.6093 -0.7764
   33MOL   H14411728   7.210   5.714   3.941  2.4124 -0.5589  0.5259
   33MOL   H14511729   7.176   5.817   3.801 -1.6471 -1.3909  1.6790
   33MOL   C14611730   7.410   5.602   3.845  0.7560 -0.2046 -0.1228
   33MOL   O14711731   7.394   5.562   3.960  0.0257  0.0907 -0.3866
   33MOL   C14811732   7.497   5.525   3.752 -0.5998  0.2523  0.0223
   33MOL   C14911733   7.623   5.470   3.811 -0.2828  0.5036 -0.1972
   33MOL   C15011734   7.609   5.336   3.890  0.2205 -0.1115  1.0241
   33MOL   C15111735   7.729   5.303   3.971 -0.4083  0.1813 -0.2737
   33MOL   C15211736   7.695   5.178   4.041  1.2252  0.4101 -0.0806
   33MOL   O15311737   7.617   5.205   4.154  0.1426  0.4158  0.4772
   33MOL   H15411738   7.530   5.603   3.684  2.0691  0.3204  1.3376
   33MOL   H15511739   7.444   5.450   3.693 -0.3654 -1.0266  1.4260
   33MOL   H15611740   7.672   5.545   3.873  1.1889  1.2698 -2.2060
   33MOL   H15711741   7.677   5.452   3.718  0.2011 -0.1762  0.2164
   33MOL   H15811742   7.589   5.256   3.819 -1.9373  1.3188 -0.0290
   33MOL   H15911743   7.523   5.346   3.956  0.9740 -0.9649  2.1505
   33MOL   H16011744   7.755   5.390   4.032  1.4573 -2.2784  2.5491
   33MOL   H16111745   7.812   5.285   3.902 -1.0006  0.1677 -0.9900
   33MOL   H16211746   7.666   5.090   3.984 -3.6654 -0.3467  3.2331
   33MOL   H16311747   7.794   5.154   4.080  1.6897  2.6065  0.1208
   33MOL   C16411748   7.521   5.121   4.185  0.8009  0.0469  1.3480
   33MOL   O16511749   7.504   5.011   4.131 -0.2203 -0.8330  0.0761
   33MOL   C16611750   7.437   5.160   4.303  0.5872  0.3005  0.4526
   33MOL   C16711751   7.296   5.210   4.258 -0.0457 -0.3740  0.2031
   33MOL   C16811752   7.210   5.095   4.205  0.5002 -0.0638  0.0404
   33MOL   C16911753   7.060   5.116   4.236 -0.1392  0.6387  0.8004
   33MOL   C17011754   6.989   4.992   4.194  0.6392 -0.1246  0.3513
   33MOL   O17111755   6.994   4.966   4.055  0.4174 -0.0174  0.4161
   33MOL   H17211756   7.494   5.233   4.361 -1.2022  1.4153  0.8415
   33MOL   H17311757   7.441   5.075   4.372 -1.2304  0.0303  0.2595
   33MOL   H17411758   7.314   5.292   4.189 -0.7410  0.6853  1.2673
   33MOL   H17511759   7.246   5.266   4.337  0.6114 -1.2707  1.2800
   33MOL   H17611760   7.237   5.005   4.260  0.7171  0.4280  0.7471
   33MOL   H17711761   7.213   5.087   4.096  0.2465  1.9466 -0.1341
   33MOL   H17811762   7.017   5.199   4.180 -0.2425  0.2379  0.2829
   33MOL   H17911763   7.048   5.132   4.343 -1.4015  0.5668  0.6774
   33MOL   H18011764   7.024   4.907   4.254 -0.1430  0.0216  1.0159
   33MOL   H18111765   6.885   5.010   4.220  0.5293 -0.0329 -0.1467
   33MOL   C18211766   6.926   4.866   4.006  0.6173 -0.7275  0.0750
   33MOL   O18311767   6.841   4.793   4.067  0.2533  0.5528 -0.2701
   33MOL   C18411768   6.973   4.836   3.864 -0.4499  0.2631  0.0008
   33MOL   C18511769   6.933   4.959   3.776  0.0356 -0.4747  0.2634
   33MOL   C18611770   6.920   4.915   3.623  0.5532  0.0171  0.1171
   33MOL   C18711771   6.846   5.006   3.530  0.0897 -0.2220  0.1967
   33MOL   C18811772   6.848   4.967   3.378 -0.1153  0.0424  0.3128
   33MOL   O18911773   6.754   4.857   3.346 -0.3212  0.4038 -0.2521
   33MOL   H19011774   6.927   4.741   3.838 -1.3228  0.3751  1.0920
   33MOL   H19111775   7.081   4.824   3.856 -0.3981  1.1406 -0.8535
   33MOL   H19211776   6.992   5.047   3.801  2.1223 -1.5931 -0.6931
   33MOL   H19311777   6.829   4.977   3.804 -0.0916 -1.5580  0.5276
   33MOL   H19411778   6.875   4.816   3.616  1.4872 -0.4495  0.6942
   33MOL   H19511779   7.020   4.895   3.586  0.3220 -0.3784 -0.3024
   33MOL   H19611780   6.893   5.104   3.541  0.8141 -0.5091 -0.2698
   33MOL   H19711781   6.745   5.037   3.557  0.7167  2.9107 -0.8329
   33MOL   H19811782   6.815   5.045   3.310 -0.5495 -0.0505  0.4138
   33MOL   H19911783   6.951   4.952   3.345 -0.7040  0.9416 -1.9830
   33MOL   C20011784   6.733   4.816   3.221  0.1524 -0.4234 -0.0551
   33MOL   O20111785   6.784   4.853   3.119 -0.0497 -0.5935  0.2857
   33MOL   C20211786   6.642   4.693   3.221  0.3181  0.1050  0.2289
   33MOL   C20311787   6.697   4.564   3.288  0.3506  0.5026 -0.2606
   33MOL   C20411788   6.589   4.464   3.340  0.1040  0.1570  0.3543
   33MOL   C20511789   6.653   4.339   3.401  0.5334  0.0310  0.4558
   33MOL   C20611790   6.552   4.238   3.465  0.1164  1.2219 -0.3374
   33MOL   O20711791   6.491   4.304   3.582  0.1339  0.6098 -0.1026
   33MOL   H20811792   6.609   4.676   3.119 -0.4513 -0.2553  0.5297
   33MOL   H20911793   6.554   4.731   3.272 -1.4471 -0.4615 -2.3079
   33MOL   H21011794   6.759   4.600   3.370 -1.1187  0.7013  0.7925
   33MOL   H21111795   6.760   4.517   3.213  0.9686 -1.0364  1.1952
   33MOL   H21211796   6.520   4.431   3.263 -0.6324 -0.4441  1.2643
   33MOL   H21311797   6.541   4.519   3.420 -2.1758  0.8735 -1.4536
   33MOL   H21411798   6.711   4.376   3.486 -2.0205  0.9236  1.8528
   33MOL   H21511799   6.724   4.300   3.328  1.0138  0.6632  0.5720
   33MOL   H21611800   6.480   4.201   3.393 -0.1817  0.7905  0.1776
   33MOL   H21711801   6.603   4.149   3.502 -2.1273 -0.3321 -0.9135
   33MOL   C21811802   6.479   4.244   3.699 -0.0134  0.0425  0.3116
   33MOL   O21911803   6.505   4.128   3.725  0.1082  0.4671  0.4867
   33MOL   C22011804   6.442   4.341   3.809  1.1072  0.0474 -0.4634
   33MOL   C22111805   6.518   4.472   3.797  0.0777 -0.2767 -0.9150
   33MOL   C22211806   6.464   4.578   3.899  0.2195 -0.1316  0.0506
   33MOL   C22311807   6.523   4.718   3.865  0.3091 -0.6156  0.0399
   33MOL   C22411808   6.456   4.821   3.958  0.5650  0.4853 -0.0951
   33MOL   O22511809   6.488   4.954   3.928  0.6094  0.4971  0.2688
   33MOL   H22611810   6.452   4.303   3.910 -1.8473 -0.0850 -0.1636
   33MOL   H22711811   6.337   4.370   3.797  1.3638  0.8478 -0.7859
   33MOL   H22811812   6.519   4.507   3.694 -2.2490 -0.8805 -1.1777
   33MOL   H22911813   6.624   4.463   3.819  0.4845  0.6934 -2.4855
   33MOL   H23011814   6.499   4.544   3.996  1.4266 -0.5693 -0.5188
   33MOL   H23111815   6.355   4.581   3.904  0.2941  1.4457  0.9346
   33MOL   H23211816   6.501   4.742   3.761  0.0476 -0.3516  0.1542
   33MOL   H23311817   6.632   4.717   3.873  0.3818 -0.1497 -0.7846
   33MOL   H23411818   6.347   4.815   3.953  0.5634 -0.3820  0.7129
   33MOL   H23511819   6.478   4.797   4.062 -0.6360 -3.0420 -0.5863
   33MOL   C23611820   6.460   5.048   4.020 -0.5281  0.0433  0.2190
   33MOL   O23711821   6.385   5.034   4.114 -0.2029 -0.0595  0.4904
   33MOL   C23811822   6.513   5.181   3.980  0.1460 -0.1052  0.2994
   33MOL   C23911823   6.401   5.286   3.948 -0.1634  0.5701  0.3619
   33MOL   C24011824   6.445   5.432   3.958 -0.8438 -0.4172  1.1265
   33MOL   C24111825   6.331   5.535   3.932  0.3166  1.1316 -0.2440
   33MOL   C24211826   6.376   5.679   3.904 -0.5900  0.6730  0.0358
   33MOL   O24311827   6.273   5.769   3.866 -0.1036 -0.5732 -0.0963
   33MOL   H24411828   6.558   5.151   3.885 -2.4519 -1.1761 -0.6211
   33MOL   H24511829   6.594   5.215   4.044  1.9657  0.7357 -2.3412
   33MOL   H24611830   6.318   5.270   4.017 -0.0007  2.6464  1.0718
   33MOL   H24711831   6.360   5.277   3.847  0.5224  2.6755 -0.1181
   33MOL   H24811832   6.526   5.444   3.887 -1.8422  0.1230  0.0586
   33MOL   H24911833   6.485   5.448   4.058  0.4284 -0.9041  0.7015
   33MOL   H25011834   6.287   5.556   4.029 -2.0674  1.8092 -1.4189
   33MOL   H25111835   6.254   5.498   3.864 -0.2561  4.7734 -1.7104
   33MOL   H25211836   6.432   5.713   3.991 -0.2197 -1.0728  0.4951
   33MOL   H25311837   6.444   5.680   3.819  0.9989 -3.6940  1.1360
   33MOL   C25411838   6.219   5.764   3.748 -0.7894  0.8377 -0.2482
   33MOL   O25511839   6.231   5.676   3.663 -0.4714 -0.7199  0.4957
   33MOL   C25611840   6.119   5.879   3.720 -0.1346 -0.0365 -0.4647
   33MOL   C25711841   5.981   5.849   3.783  0.8278 -0.3943  0.8369
   33MOL   C25811842   5.871   5.959   3.778 -0.1433 -0.0787 -0.6304
   33MOL   C25911843   5.810   5.994   3.640  0.4664 -0.6752  0.9308
   33MOL   C26011844   5.706   6.117   3.641 -0.4267 -0.2154  0.0006
   33MOL   O26111845   5.636   6.120   3.524 -0.1169  0.6022 -0.1644
   33MOL   H26211846   6.134   5.903   3.614  3.0022  1.5735  0.2960
   33MOL   H26311847   6.149   5.968   3.775  0.6270  0.2578 -1.3315
   33MOL   H26411848   5.996   5.832   3.890  0.3146  0.5783  1.0732
   33MOL   H26511849   5.940   5.764   3.728  1.4972 -0.5264  0.5351
   33MOL   H26611850   5.908   6.054   3.815 -2.1741  0.0685  1.1688
   33MOL   H26711851   5.787   5.928   3.840  0.8465  1.6889  1.6375
   33MOL   H26811852   5.759   5.901   3.615 -0.8321 -0.0574  1.2305
   33MOL   H26911853   5.887   5.996   3.562  0.1256  2.7976  0.5790
   33MOL   H27011854   5.633   6.100   3.721 -0.2758  0.1744  0.2234
   33MOL   H27111855   5.744   6.214   3.675 -0.6991  0.0057 -0.3175
   33MOL   C27211856   5.660   6.216   3.431  0.9922 -0.2443 -0.0981
   33MOL   O27311857   5.729   6.318   3.441  0.8218  0.2386 -0.0774
   33MOL   C27411858   5.598   6.172   3.300  0.0359 -0.2844  0.0402
   33MOL   C27511859   5.568   6.280   3.197  0.7185 -0.7253 -0.6911
   33MOL   C27611860   5.510   6.232   3.056  0.0813  0.0674  0.2168
   33MOL   C27711861   5.381   6.150   3.070 -0.2521 -0.3160 -0.1085
   33MOL   C27811862   5.351   6.083   2.933  0.3652 -0.2964 -0.3140
   33MOL   O27911863   5.226   6.015   2.932 -0.2221 -0.3690 -0.4019
   33MOL   H28011864   5.508   6.118   3.329 -0.2525  0.3757  0.3735
   33MOL   H28111865   5.670   6.096   3.267 -0.5990 -1.9645  2.4350
   33MOL   H28211866   5.658   6.334   3.166 -0.5632 -0.0755 -3.3579
   33MOL   H28311867   5.493   6.349   3.235  4.2443  2.4754  0.8438
   33MOL   H28411868   5.584   6.174   3.002 -1.1163  0.0831 -1.4584
   33MOL   H28511869   5.497   6.317   2.989  1.8212 -0.7483 -1.1812
   33MOL   H28611870   5.301   6.217   3.101  0.5855  1.2924 -1.3407
   33MOL   H28711871   5.407   6.081   3.150 -1.4862 -0.5863  0.0598
   33MOL   H28811872   5.363   6.155   2.852  2.0457 -1.1800 -0.8666
   33MOL   H28911873   5.432   6.010   2.926  1.2104  0.7333 -1.4194
   33MOL   C29011874   5.134   6.034   2.842  0.4427 -0.4596 -1.1293
   33MOL   O29111875   5.146   6.116   2.747 -0.3320 -0.4572  0.8094
   33MOL   C29211876   5.007   5.952   2.870  0.6473 -0.1352 -0.1902
   33MOL   C29311877   4.891   5.999   2.784 -0.7090  0.1947 -0.1675
   33MOL   C29411878   4.759   5.927   2.825 -0.0769  0.5467  0.8341
   33MOL   C29511879   4.642   6.005   2.772  0.0462  0.3167 -0.5498
   33MOL   C29611880   4.506   5.946   2.818  0.8386  0.5603 -0.1624
   33MOL   O29711881   4.490   5.805   2.813 -0.1111  0.0086  0.0838
   33MOL   H29811882   4.979   5.985   2.970  0.9259 -1.7789  0.4472
   33MOL   H29911883   5.019   5.844   2.870 -0.5615 -0.2762 -1.0600
   33MOL   H30011884   4.913   5.993   2.678 -0.1126  0.2994 -0.0512
   33MOL   H30111885   4.877   6.105   2.808 -1.1550  0.0727  0.1226
   33MOL   H30211886   4.751   5.912   2.933  0.8285  0.0742  0.8342
   33MOL   H30311887   4.770   5.826   2.785 -0.1916  0.4994  0.9233
   33MOL   H30411888   4.634   5.997   2.664  1.9301 -2.8639 -0.5276
   33MOL   H30511889   4.631   6.107   2.807  0.4914  0.0587  0.3650
   33MOL   H30611890   4.466   5.998   2.905 -1.7242 -2.0578  0.3074
   33MOL   H30711891   4.436   5.985   2.743  0.5135  1.4895  0.6244
   33MOL   C30811892   4.503   5.735   2.926 -0.6074 -0.0568 -0.1227
   33MOL   O30911893   4.519   5.780   3.041 -0.1809 -0.2317  0.1651
   33MOL   C31011894   4.501   5.584   2.893  0.6214  0.3510  0.9960
   33MOL   C31111895   4.631   5.526   2.825  0.0946 -0.1422 -0.0942
   33MOL   C31211896   4.641   5.372   2.816 -0.0675 -0.5896  0.2516
   33MOL   C31311897   4.522   5.294   2.764 -0.3091 -0.3638 -0.2370
   33MOL   C31411898   4.574   5.160   2.691 -0.1249  0.4053  0.3825
   33MOL   O31511899   4.474   5.098   2.617  0.2750  0.5728  0.1462
   33MOL   H31611900   4.419   5.553   2.829 -0.1798  0.2713  2.0355
   33MOL   H31711901   4.490   5.537   2.991  0.6872  0.5436  1.0959
   33MOL   H31811902   4.721   5.569   2.870  0.2464 -0.5189 -0.0282
   33MOL   H31911903   4.633   5.561   2.722 -0.3815  0.4883  0.1147
   33MOL   H32011904   4.688   5.325   2.903 -1.0330 -2.5409 -0.2597
   33MOL   H32111905   4.723   5.355   2.746  0.3031 -2.1874  1.0434
   33MOL   H32211906   4.467   5.355   2.692  1.2322  1.3654  0.0174
   33MOL   H32311907   4.452   5.270   2.844 -0.1676 -0.8543 -0.2554
   33MOL   H32411908   4.641   5.186   2.609 -1.2966  0.3797 -0.5975
   33MOL   H32511909   4.628   5.098   2.762 -1.3515 -0.3028  0.7104
   33MOL   C32611910   4.366   5.026   2.665 -0.8826  0.9063  0.3499
   33MOL   O32711911   4.334   5.025   2.788 -0.5291  0.1823  0.5837
   33MOL   C32811912   4.273   4.966   2.554 -0.0941 -0.3225 -0.1422
   33MOL   C32911913   4.176   5.077   2.511 -0.7691  0.2458  0.2676
   33MOL   C33011914   4.252   5.191   2.432 -0.7584 -0.0395  0.3671
   33MOL   C33111915   4.170   5.252   2.321  0.6418 -0.5799  0.4563
   33MOL   C33211916   4.252   5.337   2.223 -0.2573  0.8148 -0.1622
   33MOL   O33311917   4.160   5.396   2.138  0.0418 -0.0669  0.4489
   33MOL   H33411918   4.210   4.887   2.595  0.5887 -0.6559  0.2800
   33MOL   H33511919   4.332   4.920   2.474  0.9959  1.5544 -0.4593
   33MOL   H33611920   4.130   5.107   2.606 -0.7119  1.8806 -0.2164
   33MOL   H33711921   4.092   5.042   2.452 -0.5304  0.8682 -0.4395
   33MOL   H33811922   4.343   5.147   2.391  0.0485 -0.5868  2.6417
   33MOL   H33911923   4.294   5.264   2.501 -1.1128 -0.3982  0.9657
   33MOL   H34011924   4.092   5.312   2.367  0.8636 -1.6509  2.2805
   33MOL   H34111925   4.112   5.181   2.262  0.3125 -0.6391  0.8457
   33MOL   H34211926   4.312   5.410   2.277 -1.1897  1.2426  0.3019
   33MOL   H34311927   4.307   5.260   2.169 -2.0817  0.0584 -0.9926
   33MOL   C34411928   4.176   5.386   2.002 -0.2821 -0.0859 -0.3030
   33MOL   O34511929   4.281   5.354   1.947 -0.0127 -0.0671  0.3523
   33MOL   C34611930   4.053   5.427   1.925 -0.0238 -0.6671 -0.4053
   33MOL   C34711931   4.047   5.571   1.872  0.4915 -0.6576  0.0820
   33MOL   C34811932   4.033   5.684   1.975 -0.2399  0.7763 -0.2483
   33MOL   C34911933   3.891   5.687   2.034 -0.4718  0.2231 -0.1348
   33MOL   C35011934   3.841   5.827   2.079 -0.6557 -0.3257  0.2135
   33MOL   O35111935   3.926   5.857   2.188  0.4923 -0.1841  0.3862
   33MOL   H35211936   3.969   5.413   1.994  0.5214  0.9920  0.6119
   33MOL   H35311937   4.042   5.355   1.843  0.7802  0.2711 -1.3446
   33MOL   H35411938   3.961   5.578   1.805  0.4949 -0.3718  0.1087
   33MOL   H35511939   4.140   5.598   1.821  0.4255  0.4665  0.5453
   33MOL   H35611940   4.066   5.783   1.945  1.7781  0.6283  1.3603
   33MOL   H35711941   4.103   5.666   2.057  1.5810 -1.0943 -2.1704
   33MOL   H35811942   3.890   5.623   2.122  1.6165 -0.0286 -0.2742
   33MOL   H35911943   3.819   5.639   1.968 -0.6103  0.3798 -0.0962
   33MOL   H36011944   3.851   5.896   1.995 -0.1865 -1.0316 -0.3244
   33MOL   H36111945   3.740   5.817   2.117 -1.3795 -0.2894 -1.6653
   33MOL   H36211946   4.009   5.892   2.161  0.9796  0.4682  2.6193
   34MOL     C111947   5.718   4.050   3.223  0.3479  0.6970  0.2633
   34MOL     O211948   5.722   4.052   3.346  0.1530 -0.2202  0.2113
   34MOL     C311949   5.780   4.161   3.138 -0.0216  0.9464  0.2462
   34MOL     C411950   5.705   4.287   3.132  0.0757  0.4358  0.0536
   34MOL     C511951   5.767   4.387   3.037 -1.0555 -0.4454 -0.1976
   34MOL     C611952   5.702   4.527   3.058  0.2664  0.5060  0.2175
   34MOL     C711953   5.549   4.530   3.033 -0.3025 -0.2113 -0.7801
   34MOL     O811954   5.503   4.659   3.013  0.0449  0.2211  0.4993
   34MOL     H911955   5.805   4.117   3.042 -0.8972 -0.6160  0.7141
   34MOL    H1011956   5.879   4.179   3.179  0.3823  0.3144 -0.4405
   34MOL    H1111957   5.683   4.321   3.233 -0.1703 -2.1794  0.9276
   34MOL    H1211958   5.607   4.257   3.093  0.1872  1.3092 -0.9056
   34MOL    H1311959   5.749   4.348   2.936 -0.1401  3.2199 -1.8572
   34MOL    H1411960   5.873   4.387   3.063 -0.5885  0.2043 -2.0165
   34MOL    H1511961   5.746   4.587   2.979 -1.2294  1.5555  0.1599
   34MOL    H1611962   5.723   4.564   3.158  3.6935  0.5813 -0.4637
   34MOL    H1711963   5.536   4.462   2.948 -1.0741 -0.1221 -0.7412
   34MOL    H1811964   5.499   4.486   3.119 -1.4700  1.8484 -0.3635
   34MOL    H1911965   5.653   3.989   3.161  1.6024  1.7347 -2.1195
   34MOL    C2011966   5.402   4.689   2.931 -0.0256 -0.3503 -0.2439
   34MOL    O2111967   5.310   4.616   2.889  0.6547  0.0604  0.5811
   34MOL    C2211968   5.412   4.838   2.895  0.0183 -0.3243 -0.4337
   34MOL    C2311969   5.285   4.904   2.830 -0.4279 -0.3183  0.6313
   34MOL    C2411970   5.306   5.050   2.775  0.0032 -0.2834  0.8361
   34MOL    C2511971   5.392   5.060   2.647  0.2827  0.8889 -0.0354
   34MOL    C2611972   5.410   5.200   2.584 -0.1714 -0.2642 -0.3394
   34MOL    O2711973   5.278   5.253   2.557  0.2450 -0.5673  0.2105
   34MOL    H2811974   5.507   4.868   2.850  0.7165 -0.3628  0.9822
   34MOL    H2911975   5.422   4.893   2.989  0.1159 -2.1059  0.6186
   34MOL    H3011976   5.208   4.908   2.907 -1.7903 -0.4682 -0.6835
   34MOL    H3111977   5.248   4.834   2.755 -4.0900  0.4227  1.6476
   34MOL    H3211978   5.341   5.117   2.853  0.9638 -3.0213  2.8596
   34MOL    H3311979   5.208   5.091   2.751 -0.3553 -1.7360 -0.2733
   34MOL    H3411980   5.361   4.992   2.568  0.8679  0.9889 -0.3580
   34MOL    H3511981   5.494   5.024   2.660  0.1678  0.2250 -0.9652
   34MOL    H3611982   5.465   5.263   2.654  0.5881 -2.4414  1.0548
   34MOL    H3711983   5.464   5.189   2.491  1.1757 -2.0618  0.6306
   34MOL    C3811984   5.266   5.374   2.502 -0.2951 -0.5905  0.1089
   34MOL    O3911985   5.359   5.454   2.490  0.3175  0.0032  0.1650
   34MOL    C4011986   5.128   5.415   2.462  0.6786  0.1810  0.8003
   34MOL    C4111987   5.117   5.449   2.314  0.2188  0.8041  0.0983
   34MOL    C4211988   5.135   5.323   2.222 -0.2576 -0.3582 -0.3677
   34MOL    C4311989   5.086   5.330   2.079 -0.2540 -0.0252  0.3896
   34MOL    C4411990   5.106   5.464   2.010 -0.0535 -0.9215  0.5699
   34MOL    O4511991   5.068   5.451   1.875 -0.2012 -0.1004 -0.2699
   34MOL    H4611992   5.100   5.494   2.532  2.4489 -0.4912  2.3069
   34MOL    H4711993   5.053   5.338   2.475 -0.0027  0.3090 -2.0138
   34MOL    H4811994   5.198   5.520   2.293 -1.1555  1.9715 -1.3889
   34MOL    H4911995   5.021   5.493   2.290 -0.4047 -1.4366 -1.7914
   34MOL    H5011996   5.087   5.243   2.278 -1.9153  1.2180  0.5042
   34MOL    H5111997   5.242   5.302   2.225  0.2802  2.2548  0.5679
   34MOL    H5211998   4.980   5.307   2.068  0.0386 -0.9813 -0.4927
   34MOL    H5311999   5.148   5.264   2.017  0.5520  2.6277 -1.7502
   34MOL    H5412000   5.055   5.546   2.059 -0.3371 -2.1614  2.3780
   34MOL    H5512001   5.212   5.488   1.995 -0.3926 -0.9977 -2.2876
   34MOL    C5612002   5.016   5.555   1.812  0.6389  0.5469  0.4901
   34MOL    O5712003   4.994   5.664   1.857 -0.5162 -0.3637  0.4396
   34MOL    C5812004   5.003   5.530   1.661 -0.0312  0.1226  0.7624
   34MOL    C5912005   5.145   5.527   1.603  0.0657 -0.1987 -0.4482
   34MOL    C6012006   5.232   5.658   1.607 -0.9594  0.2103  0.0813
   34MOL    C6112007   5.362   5.657   1.520 -0.1267  0.3138 -0.2627
   34MOL    C6212008   5.361   5.600   1.373  0.3967 -0.0366  0.3282
   34MOL    O6312009   5.497   5.590   1.327 -0.3554 -0.7773  0.0171
   34MOL    H6412010   4.948   5.608   1.607  0.3191  2.0219  3.0739
   34MOL    H6512011   4.949   5.436   1.652  0.0708  0.1636 -0.3653
   34MOL    H6612012   5.136   5.492   1.500 -0.2886  0.6174 -0.6958
   34MOL    H6712013   5.199   5.447   1.654  0.4203 -0.9992 -2.0323
   34MOL    H6812014   5.268   5.671   1.709 -1.3545  0.1815  0.2282
   34MOL    H6912015   5.157   5.731   1.576 -1.3251  0.1499  0.8181
   34MOL    H7012016   5.437   5.603   1.578 -2.4420  0.6170  3.1508
   34MOL    H7112017   5.414   5.753   1.519  1.9021 -0.7809 -0.6038
   34MOL    H7212018   5.324   5.498   1.383  0.4918  0.0198  1.3217
   34MOL    H7312019   5.302   5.652   1.297 -1.2091 -1.8679  0.2794
   34MOL    C7412020   5.527   5.549   1.200  0.1940  0.0448  0.0771
   34MOL    O7512021   5.443   5.525   1.114  0.0045 -0.8646  0.4500
   34MOL    C7612022   5.673   5.529   1.174 -0.1802  0.3480 -0.3434
   34MOL    C7712023   5.756   5.655   1.194 -0.5584 -0.6605 -0.5495
   34MOL    C7812024   5.901   5.619   1.223  1.1649 -0.5083 -0.1399
   34MOL    C7912025   6.014   5.705   1.160  0.4058 -0.6536 -0.1306
   34MOL    C8012026   6.154   5.682   1.215  0.2310  0.5559 -0.3854
   34MOL    O8112027   6.183   5.552   1.159  0.1288 -0.8234 -0.2184
   34MOL    H8212028   5.695   5.476   1.081  1.4141 -2.8588  1.7995
   34MOL    H8312029   5.691   5.445   1.241 -1.2022 -1.0891 -1.8222
   34MOL    H8412030   5.711   5.733   1.255 -0.4640 -2.5997  2.0498
   34MOL    H8512031   5.762   5.708   1.099  1.0372  0.2555  0.0374
   34MOL    H8612032   5.923   5.521   1.179  1.6059 -0.2669 -0.4565
   34MOL    H8712033   5.932   5.611   1.327  0.8505  4.3508  0.4502
   34MOL    H8812034   5.983   5.810   1.165  2.8003  0.0911 -0.3648
   34MOL    H8912035   6.016   5.678   1.054 -4.4929 -1.8364 -0.0592
   34MOL    H9012036   6.223   5.752   1.168 -0.2887  2.7152  1.9307
   34MOL    H9112037   6.166   5.692   1.323  1.1070 -0.5766 -0.3753
   34MOL    C9212038   6.260   5.474   1.230  0.7535 -0.7943  0.4149
   34MOL    O9312039   6.292   5.487   1.351  0.0018 -0.7979 -0.3055
   34MOL    C9412040   6.318   5.347   1.156  0.5388 -0.0763 -0.9694
   34MOL    C9512041   6.395   5.255   1.246 -0.0355 -0.0850  0.5066
   34MOL    C9612042   6.553   5.272   1.236  0.4792  0.7484 -0.3337
   34MOL    C9712043   6.629   5.150   1.291 -0.0167  0.3477 -0.0989
   34MOL    C9812044   6.777   5.170   1.266  0.9978 -0.3875  0.4569
   34MOL    O9912045   6.858   5.084   1.345 -0.0986  0.0129 -0.1871
   34MOL   H10012046   6.367   5.359   1.059  0.6497 -0.1526 -0.9218
   34MOL   H10112047   6.223   5.299   1.133  0.1504 -0.4316  1.2933
   34MOL   H10212048   6.371   5.152   1.217  0.1437  0.2731 -0.9848
   34MOL   H10312049   6.379   5.267   1.353 -0.4579  0.0039  0.4351
   34MOL   H10412050   6.574   5.366   1.287  0.1819 -0.6352  2.4424
   34MOL   H10512051   6.572   5.273   1.128  1.5147 -2.1225 -0.2322
   34MOL   H10612052   6.585   5.055   1.262  2.2445 -1.1099  1.0907
   34MOL   H10712053   6.619   5.150   1.400  1.3091  0.1855  0.0253
   34MOL   H10812054   6.786   5.157   1.159  0.6422 -2.4260  0.6503
   34MOL   H10912055   6.804   5.274   1.282 -1.7394  0.1626  1.7521
   34MOL   C11012056   6.902   5.129   1.462 -0.6913 -0.4607  0.0929
   34MOL   O11112057   6.881   5.240   1.506 -0.0175 -0.3125 -0.4382
   34MOL   C11212058   7.004   5.038   1.532  0.1995 -0.1265  0.2151
   34MOL   C11312059   7.146   5.052   1.478  0.3106 -0.5044 -0.0737
   34MOL   C11412060   7.191   4.963   1.360  0.3532 -0.7283  0.0349
   34MOL   C11512061   7.344   4.966   1.325  0.0647 -0.7610  0.1494
   34MOL   C11612062   7.402   4.822   1.301  0.2679 -0.3806  0.2021
   34MOL   O11712063   7.362   4.750   1.184 -0.1260  0.0669 -0.5419
   34MOL   H11812064   6.958   4.939   1.537  1.0454 -0.6009 -1.1883
   34MOL   H11912065   7.017   5.063   1.638  1.6791 -0.0337  0.0195
   34MOL   H12012066   7.210   5.029   1.563 -0.9429 -0.5308  0.8817
   34MOL   H12112067   7.171   5.154   1.446 -2.3845  0.0273 -0.6311
   34MOL   H12212068   7.140   5.001   1.271 -1.3083 -0.1342  1.2289
   34MOL   H12312069   7.152   4.864   1.383  1.2881 -1.3939 -1.1609
   34MOL   H12412070   7.388   4.999   1.419  1.2115 -1.6986 -0.0556
   34MOL   H12512071   7.368   5.038   1.247 -1.9481 -0.5164 -0.2842
   34MOL   H12612072   7.510   4.816   1.299  0.3249  0.8795 -1.4053
   34MOL   H12712073   7.372   4.763   1.387 -0.1976  2.7526  2.2726
   34MOL   C12812074   7.274   4.649   1.181 -0.7360  0.8702  0.1468
   34MOL   O12912075   7.237   4.590   1.281 -0.0994 -0.2112 -0.1331
   34MOL   C13012076   7.219   4.620   1.038 -0.0144 -0.3096 -0.3811
   34MOL   C13112077   7.328   4.615   0.938  0.3297 -0.0704  0.0536
   34MOL   C13212078   7.266   4.555   0.807 -0.0529 -0.3439  0.2630
   34MOL   C13312079   7.363   4.535   0.686  0.1862 -0.5902  0.0917
   34MOL   C13412080   7.308   4.429   0.589  0.1388  0.0488  0.1380
   34MOL   O13512081   7.189   4.467   0.521 -0.1706  0.3747  0.3822
   34MOL   H13612082   7.145   4.697   1.015 -0.0829 -0.0538  0.6639
   34MOL   H13712083   7.165   4.526   1.040 -0.4254 -0.1659 -2.9697
   34MOL   H13812084   7.413   4.561   0.979  2.2987  2.3127 -0.8377
   34MOL   H13912085   7.375   4.711   0.921  1.1897 -0.7376 -1.4410
   34MOL   H14012086   7.177   4.610   0.779 -0.2042  0.7037  2.6490
   34MOL   H14112087   7.241   4.452   0.832 -1.4257 -0.5340 -1.7695
   34MOL   H14212088   7.458   4.504   0.730 -0.1475 -2.1680 -0.2547
   34MOL   H14312089   7.379   4.636   0.650 -0.6214 -0.2738  0.6022
   34MOL   H14412090   7.385   4.411   0.514  0.6096  0.2784  0.5673
   34MOL   H14512091   7.291   4.334   0.638  0.3124 -0.2867 -0.4503
   34MOL   C14612092   7.134   4.385   0.422 -0.0905 -1.1957 -0.1762
   34MOL   O14712093   7.203   4.296   0.363  0.2425 -0.5256 -0.1970
   34MOL   C14812094   6.996   4.418   0.383  0.2081 -0.5352  0.3820
   34MOL   C14912095   6.951   4.360   0.249  0.2519  0.3833 -0.4270
   34MOL   C15012096   6.842   4.450   0.173  0.1424  0.5334  0.3917
   34MOL   C15112097   6.697   4.439   0.225  0.6397 -0.3071 -0.2499
   34MOL   C15212098   6.597   4.402   0.118  0.4912 -0.3029  0.0027
   34MOL   O15312099   6.630   4.274   0.061  0.6335  0.3708 -0.1426
   34MOL   H15412100   6.986   4.527   0.380 -0.9052 -0.6676 -1.4121
   34MOL   H15512101   6.923   4.393   0.460  0.8143  0.8201  1.4092
   34MOL   H15612102   6.913   4.260   0.263  1.1354  0.0161 -0.5963
   34MOL   H15712103   7.038   4.363   0.183 -1.3155  1.1247 -2.5443
   34MOL   H15812104   6.847   4.409   0.072  0.6165 -1.1262  1.0724
   34MOL   H15912105   6.872   4.554   0.163  0.6440  0.5758  2.2321
   34MOL   H16012106   6.669   4.533   0.273  0.7960 -0.0579 -0.6356
   34MOL   H16112107   6.700   4.371   0.309 -0.1195  0.6020  0.5228
   34MOL   H16212108   6.497   4.417   0.159 -0.6520 -0.0832 -2.7383
   34MOL   H16312109   6.609   4.475   0.037 -0.2466 -0.8405 -0.5942
   34MOL   C16412110   6.532   4.178   0.050  0.1078  0.3755 -0.1698
   34MOL   O16512111   6.423   4.190   0.103 -0.3394  0.0844 -0.2988
   34MOL   C16612112   6.584   4.050   7.829 -0.0204 -0.2797 -0.0865
   34MOL   C16712113   6.588   4.062   7.677 -0.5166  0.3281  0.8750
   34MOL   C16812114   6.721   4.129   7.619  0.3558 -0.1571  0.9685
   34MOL   C16912115   6.857   4.071   7.662 -1.0073 -0.0295 -0.4615
   34MOL   C17012116   6.979   4.120   7.585  0.6857 -0.9252  0.0473
   34MOL   O17112117   7.109   4.088   7.645  0.2031 -0.0904  0.3399
   34MOL   H17212118   6.512   3.973   0.010  1.6246 -1.4666  1.1292
   34MOL   H17312119   6.683   4.015   0.014  0.4093 -0.3826 -1.6019
   34MOL   H17412120   6.503   4.118   7.638  0.9250  0.9122 -1.5651
   34MOL   H17512121   6.574   3.965   7.630  1.7613  0.5185 -0.2726
   34MOL   H17612122   6.707   4.232   7.652  0.5672 -0.8838  3.4133
   34MOL   H17712123   6.702   4.112   7.512  0.9534 -2.8414  1.2448
   34MOL   H17812124   6.855   3.962   7.650  0.5619 -0.2781  1.2103
   34MOL   H17912125   6.863   4.091   7.769 -1.8852 -1.3577 -0.1517
   34MOL   H18012126   6.968   4.084   7.482  0.4539  0.1594 -0.3210
   34MOL   H18112127   6.971   4.229   7.589  2.5152 -0.7347 -0.8235
   34MOL   C18212128   7.164   4.161   7.742  0.1127  0.1438 -0.1813
   34MOL   O18312129   7.117   4.262   7.791 -0.2288  0.0382 -0.0962
   34MOL   C18412130   7.301   4.105   7.789  0.0828 -0.1709 -0.8080
   34MOL   C18512131   7.326   4.113   0.101  0.4641  0.2848 -0.4132
   34MOL   C18612132   7.438   4.020   0.154 -0.5019  0.4602  0.3127
   34MOL   C18712133   7.447   3.987   0.302 -0.5734 -0.0575  0.1566
   34MOL   C18812134   7.559   3.882   0.337 -0.2045 -0.0357 -0.1829
   34MOL   O18912135   7.681   3.920   0.287 -0.4402 -0.3993  0.7740
   34MOL   H19012136   7.376   4.156   7.729  0.2047  0.4562 -0.1287
   34MOL   H19112137   7.307   3.998   7.771  2.0777 -0.4004  1.0331
   34MOL   H19212138   7.233   4.101   0.155  0.0702 -0.9233 -1.3358
   34MOL   H19312139   7.344   4.218   0.126  1.7132  0.2887 -1.2670
   34MOL   H19412140   7.533   4.066   0.128 -0.9140  1.1102 -0.0661
   34MOL   H19512141   7.433   3.920   0.109  1.6006  1.6703 -2.8025
   34MOL   H19612142   7.360   3.931   0.336  1.1632 -3.1910 -0.3602
   34MOL   H19712143   7.453   4.080   0.359 -0.3191 -0.6523  1.1277
   34MOL   H19812144   7.573   3.882   0.445  1.3617 -2.4583 -0.3504
   34MOL   H19912145   7.534   3.784   0.296  0.7823  0.5114 -2.1715
   34MOL   C20012146   7.742   3.852   0.189  0.3477 -0.4321  0.1916
   34MOL   O20112147   7.704   3.743   0.148 -0.1400  0.6258  0.4642
   34MOL   C20212148   0.034   3.914   0.147  0.3064  0.1490 -0.2012
   34MOL   C20312149   0.147   3.861   0.232  0.4868 -0.6517 -0.4393
   34MOL   C20412150   0.213   3.728   0.173  0.2594  0.5585 -0.0654
   34MOL   C20512151   0.287   3.750   0.039  0.5532  0.2298 -0.3272
   34MOL   C20612152   0.357   3.626   7.830  0.7279  0.2470  0.5156
   34MOL   O20712153   0.432   3.656   7.708  0.4289  0.2973  0.1989
   34MOL   H20812154   0.018   4.020   0.165 -0.6495  0.0688 -0.5266
   34MOL   H20912155   0.042   3.902   0.039  2.1519 -0.2478 -0.0367
   34MOL   H21012156   0.122   3.842   0.337  0.3621 -2.6921 -0.8229
   34MOL   H21112157   0.223   3.939   0.239  1.0503 -1.0784 -1.8372
   34MOL   H21212158   0.139   3.649   0.163  0.0297  0.6002  1.3372
   34MOL   H21312159   0.292   3.689   0.238  0.7107 -2.5569 -2.3622
   34MOL   H21412160   0.368   3.819   0.065  1.2498 -1.2695  1.5745
   34MOL   H21512161   0.242   3.806   7.801  1.3228  2.2326  0.5815
   34MOL   H21612162   0.418   3.576   0.060 -1.2027  0.3931  2.2493
   34MOL   H21712163   0.279   3.554   7.804  1.1309  0.0385 -0.1281
   34MOL   C21812164   0.557   3.693   7.723 -0.2778 -0.3608 -0.1671
   34MOL   O21912165   0.622   3.696   7.827  0.3494  0.1010 -0.3416
   34MOL   C22012166   0.622   3.732   7.592 -1.3430 -0.0398 -0.3077
   34MOL   C22112167   0.779   3.736   7.606  0.1382  0.3862 -0.3248
   34MOL   C22212168   0.854   3.595   7.608 -0.4084  0.5862  0.4101
   34MOL   C22312169   1.006   3.599   7.594  0.6071 -0.0272 -0.4716
   34MOL   C22412170   1.053   3.456   7.602 -0.1799  0.5257  0.2848
   34MOL   O22512171   1.071   3.416   7.466  0.3651 -0.1224 -0.4681
   34MOL   H22612172   0.585   3.834   7.588 -1.9346 -0.2730 -0.8405
   34MOL   H22712173   0.590   3.677   7.503 -2.3177  3.2504 -2.0606
   34MOL   H22812174   0.805   3.790   7.698 -0.9068  2.9935 -1.5328
   34MOL   H22912175   0.823   3.794   7.525  2.7649 -1.6874 -0.4737
   34MOL   H23012176   0.806   3.540   7.526  0.1592 -1.2338  1.2704
   34MOL   H23112177   0.835   3.531   7.695  0.5130  1.6880  1.4403
   34MOL   H23212178   1.036   3.643   7.689  0.8965  0.8377 -0.9625
   34MOL   H23312179   1.047   3.657   7.512 -2.0707  1.6104 -0.7055
   34MOL   H23412180   1.143   3.464   7.663  0.6355  1.2149 -0.9823
   34MOL   H23512181   0.987   3.397   7.666  0.3752  0.6340  0.9635
   34MOL   C23612182   0.991   3.328   7.416  0.2572 -0.2352  0.2976
   34MOL   O23712183   0.894   3.275   7.467 -0.1337  0.3278  0.0193
   34MOL   C23812184   1.042   3.293   7.280  0.2764 -0.0906 -0.3660
   34MOL   C23912185   0.955   3.200   7.193 -0.2650 -0.8366 -0.0065
   34MOL   C24012186   0.995   3.061   7.222 -0.1079  0.9376  0.0481
   34MOL   C24112187   0.899   2.958   7.171 -0.2640 -0.2276  0.4656
   34MOL   C24212188   0.915   2.818   7.237 -0.1699 -0.3519  0.0658
   34MOL   O24312189   0.876   2.816   7.377 -0.1977 -0.3194 -0.4001
   34MOL   H24412190   1.139   3.245   7.289 -0.5776 -1.4820  1.7473
   34MOL   H24512191   1.052   3.386   7.223 -1.1877  0.6220  0.5066
   34MOL   H24612192   0.982   3.228   7.091 -0.2600 -2.1627 -0.3770
   34MOL   H24712193   0.847   3.211   7.196 -0.2147 -0.4256  0.5203
   34MOL   H24812194   1.009   3.053   7.330  2.6920  3.9647  0.0077
   34MOL   H24912195   1.097   3.046   7.188 -0.0551  2.5164 -0.5209
   34MOL   H25012196   0.915   2.943   7.064 -1.5663 -2.2603  0.5333
   34MOL   H25112197   0.795   2.992   7.178  0.1361  1.4166 -1.1431
   34MOL   H25212198   0.845   2.744   7.198  0.2844 -1.9343  2.1603
   34MOL   H25312199   1.013   2.775   7.217 -0.1023  1.1010 -2.9380
   34MOL   C25412200   0.755   2.782   7.416  0.0489 -0.0977  0.4201
   34MOL   O25512201   0.674   2.740   7.337  0.0933  0.6567  0.1679
   34MOL   C25612202   0.732   2.801   7.566  0.1939  0.4664 -0.1573
   34MOL   C25712203   0.682   2.945   7.593  0.3534  0.3709 -0.1120
   34MOL   C25812204   0.711   2.983   7.738 -0.1655 -0.3465  0.3770
   34MOL   C25912205   0.667   3.138   7.753 -0.2474  0.2628 -0.4252
   34MOL   C26012206   0.752   3.192   0.020 -0.6663  0.1791 -0.3822
   34MOL   O26112207   0.685   3.271   0.102  0.4971  0.0249  0.2202
   34MOL   H26212208   0.827   2.780   7.616 -0.1689 -0.4636  0.1518
   34MOL   H26312209   0.665   2.720   7.596  2.1665 -0.8179  0.8855
   34MOL   H26412210   0.573   2.953   7.587  0.0104 -1.3440  2.7401
   34MOL   H26512211   0.734   3.022   7.536  0.4627 -0.4606 -1.1617
   34MOL   H26612212   0.819   2.970   7.748  0.2156  3.2753  1.8705
   34MOL   H26712213   0.659   2.915   7.806 -0.8559  0.5947  0.8082
   34MOL   H26812214   0.562   3.151   7.780 -0.9749 -2.6259 -1.5989
   34MOL   H26912215   0.694   3.191   7.663 -1.1595  1.0031 -0.2722
   34MOL   H27012216   0.785   3.107   0.080 -0.0574 -0.6440 -1.8723
   34MOL   H27112217   0.842   3.232   7.818  0.2583 -2.4137 -0.8620
   34MOL   C27212218   0.748   3.383   0.157 -0.2096 -0.5120 -0.3168
   34MOL   O27312219   0.868   3.418   0.136  0.0113 -0.1604 -0.3143
   34MOL   C27412220   0.652   3.472   0.233  0.3728  0.7665  0.0349
   34MOL   C27512221   0.568   3.387   0.336 -0.1646 -0.5386  0.5690
   34MOL   C27612222   0.634   3.287   0.431 -0.2107  0.2082 -0.3916
   34MOL   C27712223   0.534   3.244   0.542  0.4614  0.0427  0.2637
   34MOL   C27812224   0.572   3.131   0.632  0.1524  0.0766 -0.5480
   34MOL   O27912225   0.678   3.161   0.720  0.3251  0.5203  0.3041
   34MOL   H28012226   0.580   3.512   0.162  0.8652  2.0823  0.2704
   34MOL   H28112227   0.696   3.564   0.271  0.2394  1.7236 -2.0441
   34MOL   H28212228   0.492   3.330   0.283 -0.5062  0.8885 -0.5168
   34MOL   H28312229   0.503   3.455   0.390 -1.9634 -1.0080 -0.9587
   34MOL   H28412230   0.722   3.341   0.466 -0.2476  0.7265 -1.0746
   34MOL   H28512231   0.663   3.202   0.369  2.8239  2.3591 -2.0859
   34MOL   H28612232   0.440   3.215   0.496  0.8382  1.5135 -1.4736
   34MOL   H28712233   0.509   3.323   0.613  0.1853  0.9563 -0.8386
   34MOL   H28812234   0.489   3.089   0.689  2.1595  0.7181  2.9651
   34MOL   H28912235   0.623   3.065   0.561 -0.1021  0.5872 -1.1999
   34MOL   C29012236   0.716   3.077   0.810 -0.1183  0.6854 -0.6197
   34MOL   O29112237   0.673   2.967   0.834  0.4073 -0.6184 -0.1431
   34MOL   C29212238   0.829   3.125   0.902 -0.6767  0.4439 -0.8285
   34MOL   C29312239   0.786   3.255   0.970  0.7902  0.7383  0.3073
   34MOL   C29412240   0.902   3.357   1.010  0.1140  0.2499  0.5068
   34MOL   C29512241   0.868   3.487   1.089  0.1649 -0.2983  0.1250
   34MOL   C29612242   0.874   3.469   1.247  0.4914 -0.2292  1.1863
   34MOL   O29712243   0.748   3.427   1.303 -0.2831 -0.2232 -0.3315
   34MOL   H29812244   0.923   3.128   0.847  1.2538  0.6965  2.3747
   34MOL   H29912245   0.838   3.049   0.979 -0.9228 -1.3732 -2.5418
   34MOL   H30012246   0.719   3.231   1.052  2.2792 -0.5337  1.1602
   34MOL   H30112247   0.732   3.313   0.895 -1.5586 -0.1843  1.2281
   34MOL   H30212248   0.959   3.399   0.927  0.6484  0.4543  0.9814
   34MOL   H30312249   0.978   3.304   1.068  0.8459  0.6060 -0.1149
   34MOL   H30412250   0.771   3.517   1.050  0.4787 -1.2522 -1.4635
   34MOL   H30512251   0.944   3.561   1.065 -1.2905  1.1042 -0.2222
   34MOL   H30612252   0.940   3.385   1.268 -0.0968 -0.6721  1.2697
   34MOL   H30712253   0.906   3.564   1.291  1.3422  0.1663 -0.2420
   34MOL   C30812254   0.753   3.360   1.417  0.0949 -0.1493  0.0799
   34MOL   O30912255   0.853   3.303   1.467 -0.0531 -0.3142 -0.0134
   34MOL   C31012256   0.612   3.323   1.463  0.1292 -0.5523  0.3088
   34MOL   C31112257   0.613   3.277   1.613 -0.1545  0.0242  0.1904
   34MOL   C31212258   0.621   3.387   1.719  0.3152 -1.1478 -0.1563
   34MOL   C31312259   0.683   3.336   1.857  0.0346  0.1558  0.1767
   34MOL   C31412260   0.695   3.432   1.979 -0.6222 -0.2972 -0.2783
   34MOL   O31512261   0.740   3.359   2.087 -0.3809  0.6061  0.1362
   34MOL   H31612262   0.578   3.236   1.407  0.0966 -1.5085  1.7664
   34MOL   H31712263   0.550   3.411   1.450  0.7920 -0.3051 -1.2070
   34MOL   H31812264   0.700   3.213   1.625  2.5080  3.2832 -0.8501
   34MOL   H31912265   0.522   3.219   1.628 -0.0899 -0.5281 -1.4271
   34MOL   H32012266   0.522   3.425   1.743  1.8496  1.5016  2.2634
   34MOL   H32112267   0.676   3.472   1.678 -3.8974  1.6967 -0.1889
   34MOL   H32212268   0.781   3.298   1.829 -0.2690 -0.5812  0.0846
   34MOL   H32312269   0.622   3.249   1.882 -1.4411  0.7109 -1.4039
   34MOL   H32412270   0.773   3.496   1.938 -1.3070 -0.1187 -1.3219
   34MOL   H32512271   0.601   3.486   1.994 -0.9434 -0.3030 -2.1749
   34MOL   C32612272   0.668   3.275   2.161 -0.1097  0.5722  0.3803
   34MOL   O32712273   0.547   3.253   2.167  0.4003  0.3623  0.0560
   34MOL   C32812274   0.747   3.199   2.263 -0.2121  0.2675 -0.1185
   34MOL   C32912275   0.692   3.056   2.304 -0.0490  0.2806 -0.3989
   34MOL   C33012276   0.572   3.051   2.392  0.4052  0.5705 -0.2916
   34MOL   C33112277   0.594   3.067   2.542  0.0257 -0.0655 -0.2436
   34MOL   C33212278   0.474   3.112   2.623 -0.3206  0.5776 -0.9546
   34MOL   O33312279   0.370   3.017   2.619 -0.2269  0.4285  0.4108
   34MOL   H33412280   0.729   3.252   2.357 -1.4772 -0.2568 -0.0521
   34MOL   H33512281   0.853   3.200   2.235 -0.1043  0.9993  0.2885
   34MOL   H33612282   0.765   2.987   2.348 -0.9017 -0.0541  0.5072
   34MOL   H33712283   0.658   3.012   2.210 -1.5712  1.1309 -0.2544
   34MOL   H33812284   0.529   2.951   2.384  0.0218  0.7004  0.1329
   34MOL   H33912285   0.494   3.120   2.359 -1.4462 -0.7734  1.1699
   34MOL   H34012286   0.670   3.144   2.558  2.2869 -2.5697  1.3915
   34MOL   H34112287   0.655   2.987   2.583  1.8235  1.5803  0.3666
   34MOL   H34212288   0.510   3.137   2.723  1.1227 -0.8656 -1.0955
   34MOL   H34312289   0.430   3.207   2.591  0.1112  0.6946 -1.1995
   34MOL   C34412290   0.348   2.930   2.715 -0.2833  0.2855 -0.9130
   34MOL   O34512291   0.414   2.918   2.821  0.7768  0.6818  0.2450
   34MOL   C34612292   0.211   2.868   2.700  0.7231  1.2989 -0.0204
   34MOL   C34712293   0.194   2.730   2.770 -0.7719  0.3104  0.3167
   34MOL   C34812294   0.246   2.613   2.690 -0.3896 -0.4381  0.0308
   34MOL   C34912295   0.140   2.502   2.680 -0.5021 -0.9224  0.4539
   34MOL   C35012296   0.201   2.381   2.614 -0.9143  0.3159 -0.2712
   34MOL   O35112297   0.276   2.296   2.704 -0.4228  0.0402  0.1661
   34MOL   H35212298   0.188   2.865   2.594  0.3560  1.3895  0.0564
   34MOL   H35312299   0.131   2.935   2.728 -0.7407 -0.8457  1.0585
   34MOL   H35412300   0.088   2.717   2.792 -0.5175 -0.2555  1.2436
   34MOL   H35512301   0.234   2.730   2.871  1.4693  0.0709 -0.5535
   34MOL   H35612302   0.334   2.577   2.743  0.1227 -0.2981 -0.7105
   34MOL   H35712303   0.282   2.637   2.590 -0.9339 -1.9827 -0.5444
   34MOL   H35812304   0.053   2.536   2.624 -0.9590 -0.2654  1.5405
   34MOL   H35912305   0.098   2.474   2.776 -1.9733  1.0219  0.4057
   34MOL   H36012306   0.124   2.321   2.565  0.6511 -3.3869  1.5630
   34MOL   H36112307   0.276   2.416   2.543  0.0830 -0.2985  0.4581
   34MOL   H36212308   0.319   2.236   2.645 -1.8268 -1.6805  0.8208
   35MOL     C112309   1.054   1.628   2.783  0.1396 -0.6162 -0.2235
   35MOL     O212310   1.100   1.741   2.759  0.3399 -0.0305  0.9058
   35MOL     C312311   1.107   1.536   2.893  0.5134  0.4038  0.5756
   35MOL     C412312   1.262   1.530   2.893  0.3345  0.1815 -0.2055
   35MOL     C512313   1.329   1.518   2.756  0.0651 -0.3928  0.2995
   35MOL     C612314   1.288   1.394   2.684 -0.3472 -0.3580 -0.6830
   35MOL     C712315   1.385   1.361   2.573 -0.3438 -0.1743  0.3830
   35MOL     O812316   1.436   1.473   2.503 -0.2878  0.0920  0.3247
   35MOL     H912317   1.062   1.440   2.869  1.0353  0.2447  0.2295
   35MOL    H1012318   1.072   1.553   2.995  3.9680  0.7841  1.7642
   35MOL    H1112319   1.296   1.449   2.957  2.6159  0.9488 -0.3708
   35MOL    H1212320   1.298   1.620   2.944 -1.4121  1.6425 -1.4478
   35MOL    H1312321   1.438   1.522   2.755  0.1085 -1.4538  0.1862
   35MOL    H1412322   1.293   1.608   2.706 -1.9440 -2.3182 -1.8276
   35MOL    H1512323   1.188   1.410   2.643 -1.4779 -1.3309  1.6259
   35MOL    H1612324   1.296   1.302   2.742 -0.8693  0.0961  0.1047
   35MOL    H1712325   1.470   1.326   2.632  2.6025  3.0589 -1.7518
   35MOL    H1812326   1.346   1.282   2.508 -2.8695  1.5410 -0.2578
   35MOL    H1912327   0.980   1.584   2.715  0.5644 -0.3430 -0.8680
   35MOL    C2012328   1.377   1.513   2.387 -0.0642  0.1308 -0.3996
   35MOL    O2112329   1.262   1.493   2.364  0.6577 -0.0473 -0.0334
   35MOL    C2212330   1.454   1.618   2.319 -0.1890 -0.8664  0.6773
   35MOL    C2312331   1.371   1.729   2.251  0.1725  0.5040 -0.8534
   35MOL    C2412332   1.454   1.847   2.190 -0.5316  0.7481  0.2225
   35MOL    C2512333   1.382   1.978   2.146  0.0113  0.2651 -0.7113
   35MOL    C2612334   1.483   2.077   2.081  0.4087 -0.8097 -0.1110
   35MOL    O2712335   1.537   2.027   1.959  0.1111  0.0294  0.1016
   35MOL    H2812336   1.505   1.566   2.238  2.0177  3.5496 -0.9242
   35MOL    H2912337   1.528   1.672   2.379  0.2441 -0.6434 -0.0493
   35MOL    H3012338   1.299   1.768   2.323 -1.6254  0.8591 -2.8127
   35MOL    H3112339   1.312   1.688   2.169 -2.8521  2.3116  0.3251
   35MOL    H3212340   1.517   1.802   2.114 -1.8713 -0.1212 -0.3942
   35MOL    H3312341   1.529   1.879   2.263 -2.0572 -0.8970  2.6123
   35MOL    H3412342   1.325   2.021   2.228 -0.3131  0.9343 -1.2871
   35MOL    H3512343   1.300   1.958   2.077 -1.1573  2.3699  0.0139
   35MOL    H3612344   1.435   2.169   2.046 -0.6072 -0.0630  3.1374
   35MOL    H3712345   1.543   2.117   2.162 -2.5487 -1.1847  2.3793
   35MOL    C3812346   1.659   1.988   1.949 -0.3052  0.2867 -0.3440
   35MOL    O3912347   1.742   2.002   2.035  0.1515  0.3059  0.2693
   35MOL    C4012348   1.683   1.920   1.816 -0.5250 -0.1857 -0.4725
   35MOL    C4112349   1.653   1.764   1.834  0.0356  0.0221  0.1750
   35MOL    C4212350   1.765   1.689   1.903  0.0408 -0.0791 -0.3948
   35MOL    C4312351   1.876   1.651   1.802 -0.1571  0.4379 -0.6556
   35MOL    C4412352   1.973   1.552   1.861 -0.4126  0.6007  1.0582
   35MOL    O4512353   2.059   1.483   1.769 -0.2640 -0.0478  0.0163
   35MOL    H4612354   1.778   1.939   1.768  1.4588 -2.3004  2.3742
   35MOL    H4712355   1.600   1.955   1.755  0.7777 -0.0228 -2.1657
   35MOL    H4812356   1.619   1.716   1.742  1.0390 -2.6803  1.1882
   35MOL    H4912357   1.566   1.752   1.898  0.4630  1.7780  1.1231
   35MOL    H5012358   1.725   1.601   1.954 -1.6023  0.6769 -0.3503
   35MOL    H5112359   1.803   1.748   1.986 -1.0955  1.2688 -0.8109
   35MOL    H5212360   1.922   1.745   1.770 -0.3629  0.7479 -0.0557
   35MOL    H5312361   1.837   1.593   1.718  0.3180 -0.0683 -0.5283
   35MOL    H5412362   2.048   1.590   1.929  1.2333 -0.3034 -0.2078
   35MOL    H5512363   1.931   1.476   1.927  0.9165 -0.1547  1.0518
   35MOL    C5612364   2.166   1.553   1.721  0.0106  0.1853  0.2349
   35MOL    O5712365   2.210   1.660   1.761  0.0726 -0.1820 -0.7712
   35MOL    C5812366   2.233   1.483   1.603  0.2239  0.3345 -0.3573
   35MOL    C5912367   2.339   1.379   1.654  0.3117  0.8018  0.2471
   35MOL    C6012368   2.390   1.281   1.550  0.1114  0.3531 -0.4694
   35MOL    C6112369   2.485   1.181   1.619 -0.0562 -0.0598 -0.1762
   35MOL    C6212370   2.626   1.224   1.657 -0.1135 -0.1160 -0.7558
   35MOL    O6312371   2.706   1.241   1.540 -0.2707  0.0635  0.1267
   35MOL    H6412372   2.278   1.560   1.541  1.1157  0.2707  0.1968
   35MOL    H6512373   2.158   1.437   1.538 -0.6542 -0.3563  1.1041
   35MOL    H6612374   2.299   1.333   1.745 -1.8412 -0.1172 -1.1423
   35MOL    H6712375   2.425   1.442   1.676  0.1912  1.2453 -0.5548
   35MOL    H6812376   2.450   1.327   1.471  0.4380  0.2610 -0.2776
   35MOL    H6912377   2.304   1.231   1.507 -1.3424  1.7726  0.7338
   35MOL    H7012378   2.500   1.095   1.553  0.0697  0.8409 -1.3492
   35MOL    H7112379   2.430   1.137   1.702 -0.4568  1.4520  0.3723
   35MOL    H7212380   2.625   1.312   1.721  0.3451 -0.7442  0.1330
   35MOL    H7312381   2.680   1.153   1.719  1.6658  0.8715 -1.1593
   35MOL    C7412382   2.802   1.336   1.537 -0.3352  0.4632 -0.2723
   35MOL    O7512383   2.845   1.393   1.632  0.4104  0.0777  0.1818
   35MOL    C7612384   2.849   1.373   1.393 -0.5392  0.3965 -0.3059
   35MOL    C7712385   2.949   1.486   1.386 -1.1169 -0.0858  0.6164
   35MOL    C7812386   3.091   1.447   1.431  0.3057  0.1126 -0.0666
   35MOL    C7912387   3.182   1.576   1.449  0.4689  0.2607 -0.3048
   35MOL    C8012388   3.301   1.556   1.541  0.5959 -0.1731 -0.5555
   35MOL    O8112389   3.397   1.477   1.480  0.2705  0.3006  0.2848
   35MOL    H8212390   2.758   1.406   1.342 -1.0246 -1.3024 -0.5895
   35MOL    H8312391   2.876   1.285   1.334  1.1429  0.2055  0.7383
   35MOL    H8412392   2.920   1.571   1.447 -1.1965  0.5418 -0.2814
   35MOL    H8512393   2.955   1.526   1.285  0.9029  0.7983  1.0609
   35MOL    H8612394   3.145   1.374   1.370 -0.5366 -0.8801  0.3476
   35MOL    H8712395   3.085   1.410   1.533 -3.2068 -1.0900 -0.6333
   35MOL    H8812396   3.118   1.658   1.482 -0.0090  0.7247 -2.3367
   35MOL    H8912397   3.216   1.598   1.348  1.2999 -2.7588 -0.7088
   35MOL    H9012398   3.346   1.655   1.552 -0.6584  0.2127  1.2457
   35MOL    H9112399   3.272   1.519   1.639  0.1262  4.1001  1.0658
   35MOL    C9212400   3.523   1.479   1.518  0.8755 -0.7414  0.1077
   35MOL    O9312401   3.568   1.568   1.586 -0.4105 -0.3645  0.1017
   35MOL    C9412402   3.615   1.371   1.455  0.5886 -0.1682  0.6148
   35MOL    C9512403   3.598   1.230   1.518  0.8434  0.3484  0.0839
   35MOL    C9612404   3.639   1.216   1.665 -0.2082  0.1276  0.5509
   35MOL    C9712405   3.794   1.240   1.678 -0.3595  0.1972  0.6521
   35MOL    C9812406   3.839   1.189   1.815 -0.1641 -0.1025  0.3079
   35MOL    O9912407   3.985   1.187   1.814 -0.1667 -0.2443  0.4258
   35MOL   H10012408   3.720   1.399   1.457  0.6577  0.1019 -3.4135
   35MOL   H10112409   3.575   1.364   1.354  0.2285 -1.0316  0.8130
   35MOL   H10212410   3.650   1.155   1.459 -0.5680 -0.5775 -0.0026
   35MOL   H10312411   3.495   1.201   1.500  0.5334  1.4769 -0.0237
   35MOL   H10412412   3.617   1.119   1.709  0.9022 -0.7750 -0.8273
   35MOL   H10512413   3.580   1.288   1.721 -3.6400 -0.3279 -2.3105
   35MOL   H10612414   3.819   1.345   1.665  0.3736  0.1270  1.4652
   35MOL   H10712415   3.838   1.181   1.597  0.5771  1.8673 -0.0642
   35MOL   H10812416   3.810   1.246   1.904  2.6029 -0.8516  1.7541
   35MOL   H10912417   3.813   1.084   1.827 -1.3969  0.3105  1.2889
   35MOL   C11012418   4.053   1.142   1.914 -0.3064  0.2046  0.2679
   35MOL   O11112419   4.010   1.065   1.995 -0.1834  0.3988  0.1067
   35MOL   C11212420   4.197   1.177   1.910  0.0271  0.2028 -0.6511
   35MOL   C11312421   4.287   1.101   2.009  0.0914 -0.0389  0.3346
   35MOL   C11412422   4.430   1.159   1.994  0.3958  0.0321 -0.1057
   35MOL   C11512423   4.525   1.101   2.096 -0.6591  0.5118  0.1441
   35MOL   C11612424   4.654   1.182   2.108  0.9760 -0.6435  0.2996
   35MOL   O11712425   4.717   1.185   1.985 -0.0700 -0.5031 -0.1350
   35MOL   H11812426   4.204   1.283   1.933  0.2158 -0.1540  1.0183
   35MOL   H11912427   4.217   1.176   1.803 -0.8322  1.4622 -0.8344
   35MOL   H12012428   4.287   0.993   2.000  0.7473  0.0935 -1.3799
   35MOL   H12112429   4.254   1.115   2.112 -0.2725 -0.6093  0.2937
   35MOL   H12212430   4.424   1.266   2.008  0.7946  0.0503 -0.0603
   35MOL   H12312431   4.462   1.135   1.893 -0.1416 -0.4861 -0.1569
   35MOL   H12412432   4.553   0.998   2.075  0.6348  1.0678 -0.9402
   35MOL   H12512433   4.471   1.097   2.191 -0.2922  0.8032  0.3683
   35MOL   H12612434   4.625   1.281   2.143  2.4977  0.2252 -0.8153
   35MOL   H12712435   4.715   1.140   2.188  0.8728  1.0227  1.2668
   35MOL   C12812436   4.848   1.221   1.976  0.5507 -0.3638 -0.3903
   35MOL   O12912437   4.906   1.280   2.068  0.0853  0.3011  0.1572
   35MOL   C13012438   4.907   1.173   1.845  0.0944 -0.1106 -0.4293
   35MOL   C13112439   5.057   1.209   1.826 -0.1244 -0.5070 -1.3652
   35MOL   C13212440   5.157   1.102   1.878 -0.2906 -0.0916  0.1829
   35MOL   C13312441   5.306   1.142   1.864 -0.2765  0.4119 -0.0559
   35MOL   C13412442   5.393   1.027   1.909 -0.0478 -0.0348 -0.6918
   35MOL   O13512443   5.524   1.046   1.864 -0.1229  0.4254  0.3702
   35MOL   H13612444   4.850   1.222   1.766 -2.1640  1.1024  1.8418
   35MOL   H13712445   4.894   1.065   1.844 -0.2924 -0.1155  1.6875
   35MOL   H13812446   5.073   1.301   1.882 -0.3723 -1.2856  0.0169
   35MOL   H13912447   5.066   1.244   1.723  0.3044  0.4388 -1.0085
   35MOL   H14012448   5.127   1.015   1.819 -1.1608 -0.2896  0.9048
   35MOL   H14112449   5.129   1.067   1.977  0.0648 -1.9678 -0.3578
   35MOL   H14212450   5.308   1.229   1.929 -3.3722  0.1630  0.4059
   35MOL   H14312451   5.323   1.176   1.762  1.2227  2.3261  0.8013
   35MOL   H14412452   5.390   1.002   2.015  3.0437  0.0650 -0.5519
   35MOL   H14512453   5.367   0.937   1.855  1.6087 -2.6675  2.6990
   35MOL   C14612454   5.620   0.965   1.904 -0.6083  0.4734 -0.4850
   35MOL   O14712455   5.605   0.872   1.981  0.1502  0.0173 -0.1601
   35MOL   C14812456   5.754   0.997   1.847  0.1216 -0.8782 -0.2796
   35MOL   C14912457   5.811   1.126   1.907 -1.0991  0.6169  0.6181
   35MOL   C15012458   5.963   1.140   1.893  0.2607  0.2989 -0.0218
   35MOL   C15112459   6.024   1.277   1.931  0.6452 -0.3220 -0.4737
   35MOL   C15212460   6.009   1.325   2.079  0.0417 -0.7386 -0.2041
   35MOL   O15312461   5.879   1.348   2.113  0.1656 -0.4668  0.2285
   35MOL   H15412462   5.739   1.017   1.741 -0.3823 -1.4376 -0.3145
   35MOL   H15512463   5.823   0.912   1.843  1.2432  0.0105 -0.2590
   35MOL   H15612464   5.780   1.127   2.012  1.5296 -0.9480  1.4451
   35MOL   H15712465   5.755   1.209   1.864  0.1191  1.1652  0.0787
   35MOL   H15812466   5.983   1.111   1.789  0.0244  0.4356 -0.1042
   35MOL   H15912467   6.023   1.083   1.964  2.5541  1.3004 -1.0935
   35MOL   H16012468   5.960   1.340   1.869  0.1587  1.7673  2.1073
   35MOL   H16112469   6.126   1.275   1.892  0.4208  1.3923 -1.1974
   35MOL   H16212470   6.047   1.257   2.155 -0.2575 -0.8125 -0.1178
   35MOL   H16312471   6.074   1.412   2.087 -0.0408 -0.8075  1.2442
   35MOL   C16412472   5.842   1.428   2.207 -0.8661  0.4667 -0.1061
   35MOL   O16512473   5.925   1.492   2.273 -0.3488  0.1971  0.2689
   35MOL   C16612474   5.693   1.439   2.228 -0.2929  0.5957  0.8886
   35MOL   C16712475   5.626   1.551   2.134 -0.3962  0.3835  0.1566
   35MOL   C16812476   5.643   1.523   1.983  0.1575  0.1122  0.6216
   35MOL   C16912477   5.535   1.430   1.929  0.7671  1.4938 -0.2130
   35MOL   C17012478   5.565   1.389   1.775 -0.3604  0.0662  0.1053
   35MOL   O17112479   5.558   1.497   1.680 -0.3814  0.4581 -0.1316
   35MOL   H17212480   5.678   1.447   2.336 -2.1080 -3.2937  0.9909
   35MOL   H17312481   5.658   1.342   2.193  0.6866 -0.1713  1.9579
   35MOL   H17412482   5.669   1.650   2.148 -1.2191  0.6325  1.0200
   35MOL   H17512483   5.522   1.565   2.164 -1.0017 -0.2109 -1.6321
   35MOL   H17612484   5.747   1.498   1.962 -0.3267 -1.1987 -0.2508
   35MOL   H17712485   5.614   1.620   1.944 -1.1214 -0.3337  0.4298
   35MOL   H17812486   5.431   1.463   1.932  0.0624 -0.6806  0.1480
   35MOL   H17912487   5.535   1.331   1.974 -0.6188  0.6920 -1.8773
   35MOL   H18012488   5.663   1.343   1.763  0.4430  1.6419  0.5200
   35MOL   H18112489   5.492   1.315   1.741  2.1203 -2.0247 -0.8731
   35MOL   C18212490   5.667   1.580   1.651 -0.7158  0.7304 -0.1558
   35MOL   O18312491   5.782   1.558   1.686  0.1573 -0.0227 -0.3281
   35MOL   C18412492   5.623   1.699   1.565  0.1542 -0.8376 -0.9386
   35MOL   C18512493   5.734   1.783   1.508 -0.2035  0.0342 -0.3707
   35MOL   C18612494   5.850   1.704   1.435 -0.1141  0.8104 -0.1580
   35MOL   C18712495   5.925   1.788   1.336 -0.2064 -0.1266 -0.0246
   35MOL   C18812496   6.041   1.722   1.266  0.2381 -0.5089 -0.3240
   35MOL   O18912497   6.006   1.630   1.173  0.0789  0.2826  0.5207
   35MOL   H19012498   5.550   1.761   1.617  1.5126  3.6168 -3.9341
   35MOL   H19112499   5.574   1.646   1.483 -0.5172  0.3297 -1.3045
   35MOL   H19212500   5.778   1.840   1.589 -0.5606 -2.2859  1.5172
   35MOL   H19312501   5.692   1.841   1.426 -1.4293  0.9798  0.9056
   35MOL   H19412502   5.806   1.620   1.382 -0.9794 -0.3211  2.3009
   35MOL   H19512503   5.923   1.667   1.507 -0.9026  0.0922  0.2843
   35MOL   H19612504   5.961   1.876   1.389 -1.3726  0.2574  0.1583
   35MOL   H19712505   5.869   1.837   1.256  2.3922  1.0243 -1.1842
   35MOL   H19812506   6.118   1.792   1.231  0.6629 -1.1550 -0.6804
   35MOL   H19912507   6.102   1.669   1.338  1.4626  0.2532 -0.7754
   35MOL   C20012508   5.988   1.661   1.046 -0.6443  0.2764  0.1595
   35MOL   O20112509   6.020   1.772   0.998 -0.5102 -0.8694  0.7364
   35MOL   C20212510   5.942   1.550   0.949 -0.4002  0.1196  0.6067
   35MOL   C20312511   5.863   1.431   1.014 -0.0040  0.1002  0.0543
   35MOL   C20412512   5.939   1.311   1.078  0.7942 -0.3074  0.8636
   35MOL   C20512513   6.041   1.251   0.991  0.9772 -0.7174 -0.5096
   35MOL   C20612514   6.093   1.113   1.045  0.0123 -0.3739 -0.0998
   35MOL   O20712515   6.186   1.058   0.959 -0.2710  0.6185 -0.0293
   35MOL   H20812516   6.028   1.519   0.889 -1.6085 -0.0845 -1.0400
   35MOL   H20912517   5.872   1.587   0.874  1.5828  2.1153 -0.3202
   35MOL   H21012518   5.802   1.397   0.931 -0.6611  0.8439  0.2173
   35MOL   H21112519   5.785   1.466   1.082 -0.3554 -4.1214  1.9616
   35MOL   H21212520   5.858   1.238   1.079  0.0708  0.4765  0.5201
   35MOL   H21312521   5.970   1.329   1.181 -1.9742 -0.4356  1.7659
   35MOL   H21412522   6.126   1.318   0.978 -0.7907  1.6424  0.0082
   35MOL   H21512523   6.005   1.231   0.891  1.2060  0.7430 -0.8893
   35MOL   H21612524   6.144   1.131   1.140 -1.3917  3.8639 -0.0354
   35MOL   H21712525   6.010   1.047   1.069  0.2949 -0.2252  1.3510
   35MOL   C21812526   6.169   0.931   0.917 -0.2694  0.4357 -0.3772
   35MOL   O21912527   6.076   0.856   0.945 -0.0323  0.5095  0.3532
   35MOL   C22012528   6.279   0.892   0.821 -0.4019 -0.9232  0.4401
   35MOL   C22112529   6.265   0.973   0.690  0.1520  0.1877  0.1113
   35MOL   C22212530   6.388   0.959   0.604  0.3041  0.6237  0.3803
   35MOL   C22312531   6.356   1.006   0.458 -0.3912  0.6866 -0.4774
   35MOL   C22412532   6.451   0.944   0.358 -0.7055 -0.0837 -0.2710
   35MOL   O22512533   6.397   0.969   0.223  0.2551 -0.0926 -0.5608
   35MOL   H22612534   6.264   0.787   0.796  0.7173 -0.9739 -0.0372
   35MOL   H22712535   6.377   0.905   0.867 -1.0506 -0.9883  1.8724
   35MOL   H22812536   6.267   1.079   0.712 -1.4400  0.4560 -0.9284
   35MOL   H22912537   6.171   0.951   0.639  0.3242  2.2508 -1.1672
   35MOL   H23012538   6.413   0.853   0.595 -2.9257 -0.1231 -0.2087
   35MOL   H23112539   6.479   1.004   0.646  0.5328 -0.5833  1.2242
   35MOL   H23212540   6.361   1.114   0.449 -2.3382  0.7317 -1.2853
   35MOL   H23312541   6.255   0.980   0.426  0.1158 -0.4516 -1.2155
   35MOL   H23412542   6.554   0.975   0.372 -1.2361  1.0453  1.1640
   35MOL   H23512543   6.456   0.837   0.380 -1.0849 -0.6812 -2.8626
   35MOL   C23612544   6.430   1.080   0.163 -0.2757 -0.6351  0.3942
   35MOL   O23712545   6.510   1.160   0.208  0.2711 -0.3662 -0.0254
   35MOL   C23812546   6.364   1.100   0.030  0.5415  0.3424 -0.5219
   35MOL   C23912547   6.401   0.982   7.784  0.1354 -0.3796  0.2273
   35MOL   C24012548   6.360   1.015   7.643  0.8373 -0.0307  0.1029
   35MOL   C24112549   6.404   0.911   7.547 -0.5279 -0.0435 -0.0347
   35MOL   C24212550   6.343   0.918   7.411 -0.4281  0.3921 -0.5212
   35MOL   O24312551   6.209   0.867   7.399 -0.2665 -0.2263 -0.4838
   35MOL   H24412552   6.408   1.190   7.831 -0.4266  0.4511 -1.3078
   35MOL   H24512553   6.258   1.122   0.042  0.3720  0.0016 -1.3196
   35MOL   H24612554   6.358   0.885   7.805  0.4771  0.0942  3.5111
   35MOL   H24712555   6.509   0.972   7.785  0.1419 -0.4072 -0.6226
   35MOL   H24812556   6.390   1.117   7.619 -1.9882  1.3214  2.0511
   35MOL   H24912557   6.251   1.024   7.641  0.9181  1.1317  0.2720
   35MOL   H25012558   6.390   0.812   7.590 -1.6192  0.6805  1.2911
   35MOL   H25112559   6.513   0.909   7.539 -0.2183  2.1682  2.8411
   35MOL   H25212560   6.327   1.023   7.386 -1.2359  0.1726 -0.9541
   35MOL   H25312561   6.411   0.868   7.341  1.0089  1.0414  0.3766
   35MOL   C25412562   6.157   0.842   7.283 -0.3574  0.2967 -0.3624
   35MOL   O25512563   6.206   0.863   7.170 -0.2082  0.7368  0.0496
   35MOL   C25612564   6.019   0.769   7.303  0.0178 -0.1566  0.0763
   35MOL   C25712565   5.967   0.683   7.188 -0.0813 -0.9632 -0.1816
   35MOL   C25812566   6.037   0.555   7.146  0.1323  0.1292  0.0273
   35MOL   C25912567   5.947   0.465   7.057 -0.1019  0.3420 -0.0752
   35MOL   C26012568   6.009   0.325   7.005 -0.1479  0.0756 -0.4586
   35MOL   O26112569   6.137   0.349   6.953  0.4502  0.5066 -0.2955
   35MOL   H26212570   5.959   0.858   7.320  0.3182 -0.1366  1.0364
   35MOL   H26312571   6.015   0.719   7.400 -1.0408  1.0426  0.6571
   35MOL   H26412572   5.972   0.748   7.101 -1.1767 -1.2265 -0.4470
   35MOL   H26512573   5.862   0.657   7.203 -0.3666 -0.7921 -1.7760
   35MOL   H26612574   6.063   0.494   7.233 -2.5519 -1.5279 -0.2709
   35MOL   H26712575   6.122   0.574   7.080  3.2434 -1.0548  3.4651
   35MOL   H26812576   5.911   0.517   6.967 -0.6560  0.8771  0.4521
   35MOL   H26912577   5.860   0.449   7.121  0.9201 -2.2792  0.7056
   35MOL   H27012578   6.033   0.266   7.093 -0.9928  0.7534  0.2411
   35MOL   H27112579   5.938   0.278   6.937 -0.0631 -2.0002  0.8577
   35MOL   C27212580   6.163   0.390   6.833  0.2313  0.1673  0.7092
   35MOL   O27312581   6.082   0.403   6.740 -0.7359  0.3104  0.1000
   35MOL   C27412582   6.307   0.435   6.814  0.7370 -0.4038 -0.4195
   35MOL   C27512583   6.406   0.316   6.799  0.7408 -0.2503 -0.2974
   35MOL   C27612584   6.386   0.212   6.677  0.8294 -0.1942 -0.2486
   35MOL   C27712585   6.435   0.067   6.693 -0.5197 -0.1978 -0.0449
   35MOL   C27812586   6.408   7.818   6.572 -0.3864 -0.2670  0.4065
   35MOL   O27912587   6.451   7.686   6.609 -0.2468  0.6620  0.2480
   35MOL   H28012588   6.326   0.483   6.910  0.8159 -1.6874  0.2172
   35MOL   H28112589   6.317   0.511   6.736 -1.9674  0.1964 -0.2399
   35MOL   H28212590   6.396   0.258   6.890  1.2288  0.5698  0.2844
   35MOL   H28312591   6.505   0.360   6.794  0.3153  0.6561 -0.9044
   35MOL   H28412592   6.427   0.257   6.586 -1.9040  0.7484 -1.0689
   35MOL   H28512593   6.278   0.199   6.664  0.8181 -1.6910  1.2681
   35MOL   H28612594   6.400   0.021   6.785  0.4801  1.0408  0.9752
   35MOL   H28712595   6.542   0.069   6.716 -0.9960 -3.3380  2.6895
   35MOL   H28812596   6.302   7.826   6.546 -0.2620  0.7236  0.1953
   35MOL   H28912597   6.456   7.841   6.476 -0.9327 -1.4735 -0.1647
   35MOL   C29012598   6.581   7.651   6.578 -0.2409 -0.2185  0.6463
   35MOL   O29112599   6.663   7.725   6.526 -0.3048 -0.1947 -0.1110
   35MOL   C29212600   6.608   7.505   6.607 -0.4229 -0.4200  0.2134
   35MOL   C29312601   6.601   7.424   6.482 -0.5521  0.1777 -0.4719
   35MOL   C29412602   6.706   7.450   6.371 -0.1872 -0.0578 -0.1737
   35MOL   C29512603   6.856   7.469   6.429 -0.1154  0.4001  0.2560
   35MOL   C29612604   6.962   7.472   6.316  0.0285  0.3058 -0.2564
   35MOL   O29712605   6.974   7.347   6.258 -0.3794  0.1856 -0.2884
   35MOL   H29812606   6.532   7.478   6.680 -0.8295 -0.0973 -0.0838
   35MOL   H29912607   6.706   7.489   6.651  0.0949 -1.6476 -1.3166
   35MOL   H30012608   6.503   7.439   6.437  0.0899  3.3647 -0.9302
   35MOL   H30112609   6.600   7.316   6.501  2.7066  0.2999  0.6948
   35MOL   H30212610   6.670   7.547   6.335  0.4740  0.8781  1.6067
   35MOL   H30312611   6.693   7.374   6.295 -1.1497  1.1824 -1.2641
   35MOL   H30412612   6.889   7.384   6.489 -0.3821  1.2431  1.6094
   35MOL   H30512613   6.859   7.563   6.484 -3.2596  0.6344  0.1405
   35MOL   H30612614   6.940   7.549   6.241 -1.3680 -0.5708 -0.7704
   35MOL   H30712615   7.055   7.502   6.364 -0.4447  3.0313 -0.9195
   35MOL   C30812616   6.986   7.337   6.122 -0.6909  0.0941 -0.2592
   35MOL   O30912617   6.987   7.427   6.043 -0.4529 -0.8075  0.1325
   35MOL   C31012618   7.005   7.191   6.083 -0.0023 -0.3612 -0.1561
   35MOL   C31112619   7.148   7.139   6.108 -0.2148  0.0324 -0.7239
   35MOL   C31212620   7.192   7.125   6.249 -0.5835  0.6690  0.8067
   35MOL   C31312621   7.315   7.027   6.267  0.2223  0.1900  0.6484
   35MOL   C31412622   7.360   7.021   6.416 -0.5229  0.1835 -0.1874
   35MOL   O31512623   7.443   7.127   6.464 -0.2332 -0.2153  0.0644
   35MOL   H31612624   6.968   7.177   5.981  0.1190  1.7587 -0.5302
   35MOL   H31712625   6.934   7.139   6.147 -0.0824 -0.6480 -0.4796
   35MOL   H31812626   7.210   7.216   6.062  0.3153  0.1453  0.1874
   35MOL   H31912627   7.168   7.050   6.048 -1.9979 -1.2760  0.5488
   35MOL   H32012628   7.105   7.092   6.305 -0.5736  1.2707  1.1854
   35MOL   H32112629   7.235   7.219   6.285  3.8573 -1.0212  0.2688
   35MOL   H32212630   7.398   7.040   6.198  0.9623 -3.4044  0.7601
   35MOL   H32312631   7.276   6.931   6.233  1.7774 -0.5789  1.0116
   35MOL   H32412632   7.273   7.009   6.480 -1.0395  3.2302 -0.2340
   35MOL   H32512633   7.419   6.933   6.442 -2.8262 -0.8579  1.7271
   35MOL   C32612634   7.565   7.142   6.420  0.3662 -0.7266  0.8408
   35MOL   O32712635   7.624   7.068   6.344 -0.1163  0.1119  0.0435
   35MOL   C32812636   7.618   7.276   6.461 -0.4698 -0.5055  0.0470
   35MOL   C32912637   7.536   7.401   6.416 -0.2266 -0.2934 -0.0164
   35MOL   C33012638   7.517   7.413   6.262 -0.7789  0.0708  0.1352
   35MOL   C33112639   7.457   7.545   6.208  0.2816  0.2548 -0.3821
   35MOL   C33212640   7.423   7.552   6.058  0.0828 -0.5944 -0.6475
   35MOL   O33312641   7.553   7.522   5.990  0.0861 -0.7126 -0.2422
   35MOL   H33412642   7.716   7.288   6.414  0.0905  2.8074  1.9191
   35MOL   H33512643   7.629   7.272   6.570  0.8902  2.8357  0.0831
   35MOL   H33612644   7.589   7.486   6.459 -1.5107  0.4421  0.1187
   35MOL   H33712645   7.441   7.413   6.467 -0.9100  0.1520 -1.3817
   35MOL   H33812646   7.448   7.334   6.231 -1.6856  0.3161  1.4557
   35MOL   H33912647   7.606   7.387   6.205  1.0397 -0.1476  2.9910
   35MOL   H34012648   7.533   7.622   6.223  1.6766 -1.1929  0.2392
   35MOL   H34112649   7.367   7.569   6.263  0.9122 -1.2522  1.3780
   35MOL   H34212650   7.348   7.476   6.036  0.5944 -1.3471  0.1834
   35MOL   H34312651   7.386   7.651   6.033  1.2224 -0.9074 -3.8024
   35MOL   C34412652   7.548   7.447   5.888 -0.6505  0.7147  0.0591
   35MOL   O34512653   7.446   7.397   5.841  0.5461 -0.0637 -0.4314
   35MOL   C34612654   7.691   7.396   5.848  0.1791 -0.0991 -0.5786
   35MOL   C34712655   7.778   7.510   5.797  0.2063  0.0130  0.3453
   35MOL   C34812656   7.767   7.532   5.642 -0.6397 -0.8473  0.0875
   35MOL   C34912657   0.030   7.642   5.587  0.3503 -0.8699  0.4307
   35MOL   C35012658   7.844   7.679   5.443  0.2504 -0.1430 -0.8565
   35MOL   O35112659   0.024   7.570   5.359 -0.0409  0.2672 -0.3876
   35MOL   H35212660   7.685   7.312   5.779  0.9324  0.7586 -1.6952
   35MOL   H35312661   7.735   7.353   5.938 -2.3509 -4.2472 -1.1636
   35MOL   H35412662   0.033   7.481   5.833 -0.1167 -0.7900  0.6137
   35MOL   H35512663   7.743   7.596   5.854 -4.4325 -0.8685 -1.0242
   35MOL   H35612664   7.665   7.557   5.616 -0.7117 -0.0672  1.1139
   35MOL   H35712665   7.779   7.439   5.587  0.2540 -0.8317  0.2427
   35MOL   H35812666   0.126   7.592   5.594 -0.5810 -2.7104  0.2654
   35MOL   H35912667   0.041   7.728   5.653 -0.3960 -0.7169  0.3695
   35MOL   H36012668   7.737   7.702   5.437  0.2950 -0.3133 -2.7917
   35MOL   H36112669   0.044   7.775   5.419  0.4612 -0.1634 -0.5579
   35MOL   H36212670   0.117   7.555   5.361 -0.0601  0.1228 -0.5677
   36MOL     C112671   1.010   4.982   4.895  0.1911  0.4264 -0.1252
   36MOL     O212672   0.899   5.036   4.867  0.0072  0.2884  0.1930
   36MOL     C312673   1.010   4.889   5.012  0.5885 -0.2174 -0.1576
   36MOL     C412674   0.879   4.805   5.023  0.4129  0.4280  0.0723
   36MOL     C512675   0.897   4.686   4.938  0.8627  1.0939 -0.6413
   36MOL     C612676   0.796   4.578   4.975 -0.0037 -0.1062 -0.5043
   36MOL     C712677   0.804   4.457   4.884  0.3029 -0.5178  0.2242
   36MOL     O812678   0.909   4.370   4.922  0.6282 -0.2679  0.6495
   36MOL     H912679   1.028   4.948   5.103 -0.1377 -0.2824  0.0304
   36MOL    H1012680   1.097   4.825   5.027  1.0660  0.2733 -0.8425
   36MOL    H1112681   0.788   4.853   4.987  0.3165  0.9227  0.9534
   36MOL    H1212682   0.867   4.774   5.127  2.4286 -0.9317 -0.0655
   36MOL    H1312683   0.996   4.644   4.957  0.0351  0.0320  1.3997
   36MOL    H1412684   0.882   4.708   4.832  0.8607 -0.7171 -1.0366
   36MOL    H1512685   0.696   4.620   4.961  0.3098  0.6192 -0.5969
   36MOL    H1612686   0.799   4.555   5.082  1.4874  2.7746  0.1249
   36MOL    H1712687   0.717   4.392   4.892 -0.5173  0.3351 -1.3941
   36MOL    H1812688   0.806   4.494   4.781  0.3471  1.0574  0.7852
   36MOL    H1912689   1.104   4.990   4.840  1.7963 -0.0340  2.4633
   36MOL    C2012690   0.944   4.271   4.843  0.2606  0.1372  0.6821
   36MOL    O2112691   0.883   4.228   4.747 -0.1320 -0.5022  0.9199
   36MOL    C2212692   1.077   4.215   4.874 -0.0538 -0.3646 -0.7193
   36MOL    C2312693   1.097   4.141   5.001 -0.5676 -0.0061 -0.2100
   36MOL    C2412694   0.993   4.034   5.033 -0.8243  0.0891 -0.2416
   36MOL    C2512695   1.043   3.937   5.137  0.1199  0.2511  0.6782
   36MOL    C2612696   0.932   3.838   5.185  0.1648  0.3899 -0.2624
   36MOL    O2712697   0.991   3.750   5.285 -0.3537  0.1258 -0.1032
   36MOL    H2812698   1.157   4.289   4.879 -1.3852  0.9619  2.0589
   36MOL    H2912699   1.096   4.148   4.790 -1.3391  2.3499 -3.2883
   36MOL    H3012700   1.112   4.211   5.082 -1.5719 -0.7049  0.5917
   36MOL    H3112701   1.194   4.096   4.979 -0.8057 -0.7297  0.2089
   36MOL    H3212702   0.965   3.974   4.947  0.1033  0.5310 -0.8624
   36MOL    H3312703   0.900   4.081   5.065 -1.3497  0.0931 -1.7455
   36MOL    H3412704   1.083   3.989   5.225 -2.3455  0.7556  1.5403
   36MOL    H3512705   1.125   3.874   5.101 -0.0783  0.1645  0.3774
   36MOL    H3612706   0.839   3.882   5.220  0.7404  0.2997  1.3947
   36MOL    H3712707   0.917   3.774   5.097 -0.8684  0.1078  0.1125
   36MOL    C3812708   0.922   3.646   5.330 -0.0006  0.1884 -0.2783
   36MOL    O3912709   0.808   3.625   5.306  0.0416 -0.3057  0.3394
   36MOL    C4012710   1.007   3.552   5.415  0.6569 -0.5695  0.7919
   36MOL    C4112711   1.091   3.627   5.525 -0.1725 -0.0688  0.4657
   36MOL    C4212712   1.131   3.531   5.636  0.5577  0.0284 -0.1692
   36MOL    C4312713   1.216   3.595   5.741  0.1401 -0.3163 -0.6562
   36MOL    C4412714   1.311   3.501   5.814  0.3200 -0.0270 -0.3273
   36MOL    O4512715   1.416   3.561   5.880 -0.4714  0.3979 -0.0381
   36MOL    H4612716   1.077   3.526   5.335 -1.2901  1.2381 -1.5920
   36MOL    H4712717   0.941   3.472   5.448 -0.0744 -0.7994 -1.1657
   36MOL    H4812718   1.042   3.717   5.562 -0.5744 -0.0702 -0.0576
   36MOL    H4912719   1.187   3.655   5.482  0.7939 -3.4764  0.2647
   36MOL    H5012720   1.183   3.449   5.586 -1.4181 -1.7648  0.6310
   36MOL    H5112721   1.054   3.482   5.696 -0.2333 -1.7159 -2.5354
   36MOL    H5212722   1.155   3.651   5.812 -0.8637 -2.6765  0.3977
   36MOL    H5312723   1.273   3.670   5.687  1.9079 -0.1357  1.3776
   36MOL    H5412724   1.255   3.430   5.874  0.2615 -1.1694 -1.7202
   36MOL    H5512725   1.369   3.445   5.740  1.9501 -0.5735  1.2968
   36MOL    C5612726   1.402   3.589   6.010 -0.5935  0.0449 -0.1721
   36MOL    O5712727   1.311   3.546   6.076 -0.0985 -0.9341  0.3109
   36MOL    C5812728   1.506   3.679   6.071  0.5399  0.3932  0.3250
   36MOL    C5912729   1.514   3.822   6.009 -0.2672 -0.3355  0.2296
   36MOL    C6012730   1.380   3.896   5.999  0.5174 -0.7207  0.2674
   36MOL    C6112731   1.392   4.023   5.908 -0.6562  0.5903 -0.6894
   36MOL    C6212732   1.364   3.990   5.761  0.2484  0.6453  0.3130
   36MOL    O6312733   1.483   3.931   5.703 -0.1214  1.1576 -0.3660
   36MOL    H6412734   1.604   3.630   6.066  1.6803  2.7348 -1.1861
   36MOL    H6512735   1.474   3.692   6.174 -2.0124 -2.6028 -0.0172
   36MOL    H6612736   1.559   3.804   5.910  0.1507 -1.5109  0.6163
   36MOL    H6712737   1.588   3.874   6.070 -1.4383  1.7356 -0.0874
   36MOL    H6812738   1.353   3.915   6.103  3.1877 -0.4635  0.9433
   36MOL    H6912739   1.304   3.831   5.955  0.5687 -0.6498  0.0742
   36MOL    H7012740   1.473   4.090   5.934 -1.7323  1.3903  0.6562
   36MOL    H7112741   1.315   4.093   5.939  1.2276  1.9705  1.0124
   36MOL    H7212742   1.288   3.914   5.744  0.8988 -0.2063  1.1832
   36MOL    H7312743   1.348   4.090   5.721  1.6093  0.5137 -0.6009
   36MOL    C7412744   1.482   3.893   5.571  0.2652  0.8749 -0.2393
   36MOL    O7512745   1.391   3.905   5.494  0.8245 -0.5584 -0.4777
   36MOL    C7612746   1.615   3.835   5.520  0.5600  0.3197 -0.7169
   36MOL    C7712747   1.643   3.683   5.537  0.3081  0.2969  0.2967
   36MOL    C7812748   1.700   3.647   5.666 -0.1234  0.4778 -0.0778
   36MOL    C7912749   1.684   3.501   5.694 -0.8552  0.2669 -0.6739
   36MOL    C8012750   1.759   3.448   5.820 -0.4660 -0.2195  0.0286
   36MOL    O8112751   1.899   3.445   5.809  0.3902 -0.2809  0.0858
   36MOL    H8212752   1.687   3.888   5.582 -0.5043  0.0959  0.7323
   36MOL    H8312753   1.646   3.872   5.423  0.4749  0.5301 -0.6627
   36MOL    H8412754   1.705   3.652   5.453 -0.3658 -1.4406  0.4168
   36MOL    H8512755   1.547   3.632   5.530 -0.3039  1.0623  2.6981
   36MOL    H8612756   1.654   3.703   5.747  0.4301 -0.1761  0.6897
   36MOL    H8712757   1.803   3.678   5.680  0.2979 -0.3007 -1.3422
   36MOL    H8812758   1.710   3.444   5.605 -1.9007 -0.8682 -0.2679
   36MOL    H8912759   1.581   3.471   5.708 -1.1221  1.9044  1.2305
   36MOL    H9012760   1.746   3.510   5.909  1.2425  1.5751 -0.9334
   36MOL    H9112761   1.721   3.347   5.836  2.9027 -1.8368 -1.6321
   36MOL    C9212762   1.958   3.350   5.734  0.7637 -0.4736  0.6360
   36MOL    O9312763   1.905   3.258   5.669  0.3671  0.0360 -0.0213
   36MOL    C9412764   2.106   3.365   5.712 -0.4355 -0.4377 -0.1254
   36MOL    C9512765   2.187   3.404   5.834  0.5912 -0.3971 -0.1723
   36MOL    C9612766   2.337   3.419   5.790 -0.1296  0.0893 -0.0537
   36MOL    C9712767   2.381   3.515   5.679 -0.0180  0.3061  0.2963
   36MOL    C9812768   2.532   3.501   5.644 -0.5903 -0.2976  0.8040
   36MOL    O9912769   2.564   3.366   5.604  0.0477 -0.3367  0.7148
   36MOL   H10012770   2.135   3.409   5.617  0.3195 -0.2863  0.1677
   36MOL   H10112771   2.138   3.261   5.701 -0.8987 -0.6503  0.4927
   36MOL   H10212772   2.185   3.335   5.919  1.2887  2.0279  1.8939
   36MOL   H10312773   2.149   3.501   5.865  3.0055  1.1930 -2.0219
   36MOL   H10412774   2.373   3.321   5.761  0.7086 -0.0259  1.3370
   36MOL   H10512775   2.392   3.462   5.873  1.3809 -0.3218 -0.8332
   36MOL   H10612776   2.361   3.619   5.706 -0.2525  0.3382  0.0040
   36MOL   H10712777   2.312   3.500   5.596  2.6661 -1.4988 -1.6984
   36MOL   H10812778   2.557   3.573   5.567  1.6881 -1.0694  0.7888
   36MOL   H10912779   2.596   3.527   5.728  0.8024 -2.3201  0.4187
   36MOL   C11012780   2.535   3.332   5.483 -0.0117 -0.1304 -0.2010
   36MOL   O11112781   2.472   3.399   5.403 -0.1164 -0.0102  0.1644
   36MOL   C11212782   2.586   3.192   5.469  0.5548  0.5861  0.1805
   36MOL   C11312783   2.513   3.084   5.558  0.5393  0.1778 -0.3449
   36MOL   C11412784   2.571   2.946   5.540  0.1328  0.0501  0.3323
   36MOL   C11512785   2.697   2.908   5.620  0.6701 -0.2373 -0.0373
   36MOL   C11612786   2.754   2.769   5.570  0.2230 -0.4941  0.0273
   36MOL   O11712787   2.764   2.778   5.433  0.4324 -0.3783  0.6649
   36MOL   H11812788   2.694   3.194   5.486  0.6598  0.0717 -0.3748
   36MOL   H11912789   2.584   3.166   5.363  0.1932  0.9943  0.0867
   36MOL   H12012790   2.409   3.081   5.524  0.9978  0.1882 -1.7673
   36MOL   H12112791   2.519   3.118   5.661  0.4643 -0.9648  0.0379
   36MOL   H12212792   2.589   2.942   5.432  0.7783 -1.3729  0.4709
   36MOL   H12312793   2.493   2.874   5.562  0.3595 -0.3402 -0.1190
   36MOL   H12412794   2.685   2.903   5.728  0.4781  2.1178  0.0607
   36MOL   H12512795   2.769   2.983   5.588  1.3528 -1.0490 -0.4154
   36MOL   H12612796   2.852   2.757   5.615 -0.7337 -0.7320  2.1087
   36MOL   H12712797   2.691   2.680   5.581  0.8205 -1.2487 -2.2796
   36MOL   C12812798   2.803   2.677   5.356 -0.6685 -0.5637 -0.1824
   36MOL   O12912799   2.851   2.571   5.395 -0.5744  0.4663 -0.1298
   36MOL   C13012800   2.813   2.709   5.212 -0.0677 -0.3658  0.4838
   36MOL   C13112801   2.954   2.750   5.169  0.3481 -0.2421 -0.3937
   36MOL   C13212802   2.952   2.841   5.046  0.0540  0.0365 -0.5068
   36MOL   C13312803   3.087   2.891   5.011  0.1278 -0.0134  0.4907
   36MOL   C13412804   3.092   2.999   4.904  0.3195  0.0177  0.5621
   36MOL   O13512805   3.038   3.119   4.964 -0.4956  0.2897 -0.0661
   36MOL   H13612806   2.747   2.794   5.195 -0.6784 -0.7763  0.8298
   36MOL   H13712807   2.789   2.622   5.151 -0.2223  0.8139 -1.1498
   36MOL   H13812808   2.998   2.655   5.137 -1.4604 -1.1237 -0.3476
   36MOL   H13912809   3.018   2.787   5.249 -1.2758 -0.6633  1.1431
   36MOL   H14012810   2.890   2.928   5.069 -2.9448 -2.1423  0.0844
   36MOL   H14112811   2.902   2.781   4.970  1.7987 -1.1025 -0.7694
   36MOL   H14212812   3.140   2.804   4.974  0.6930  0.6502 -0.2854
   36MOL   H14312813   3.156   2.919   5.091 -0.6437  0.1152  1.1182
   36MOL   H14412814   3.195   3.023   4.877  0.3281 -0.9344 -0.2702
   36MOL   H14512815   3.030   2.974   4.818  1.1895 -1.1897  0.2663
   36MOL   C14612816   3.016   3.220   4.883 -0.4757  0.0085 -0.4018
   36MOL   O14712817   3.035   3.220   4.760  0.7302  0.2442 -0.1984
   36MOL   C14812818   2.963   3.341   4.959 -0.5352  0.8291 -0.7651
   36MOL   C14912819   3.068   3.446   4.993 -0.2136 -0.1833 -0.0309
   36MOL   C15012820   3.156   3.398   5.110  0.8601  0.1440  0.0532
   36MOL   C15112821   3.254   3.491   5.176  0.4170  0.4993 -0.0349
   36MOL   C15212822   3.308   3.437   5.315  0.7642  0.4516  0.0589
   36MOL   O15312823   3.435   3.484   5.353 -0.0894 -0.2451  0.6335
   36MOL   H15412824   2.901   3.315   5.045  0.7182  1.0237  0.2079
   36MOL   H15512825   2.890   3.394   4.898 -2.9325  0.2143  1.4635
   36MOL   H15612826   3.008   3.529   5.031 -1.0838 -0.4895 -0.7218
   36MOL   H15712827   3.138   3.474   4.914 -0.8663  0.7245 -0.2906
   36MOL   H15812828   3.221   3.316   5.079  0.9649 -0.5464  2.0470
   36MOL   H15912829   3.086   3.365   5.186  1.7515 -0.8579  0.4556
   36MOL   H16012830   3.231   3.598   5.176  1.2668  0.6958 -0.8839
   36MOL   H16112831   3.338   3.498   5.107  0.4170 -0.0132 -0.0910
   36MOL   H16212832   3.235   3.443   5.396  0.4190 -1.6824 -0.0585
   36MOL   H16312833   3.315   3.330   5.294  1.6430  0.5232 -0.0200
   36MOL   C16412834   3.544   3.450   5.293 -0.2574 -0.0055 -0.4925
   36MOL   O16512835   3.559   3.354   5.218 -0.2497 -0.4351  0.4507
   36MOL   C16612836   3.665   3.528   5.346 -0.6046 -0.6756 -0.0509
   36MOL   C16712837   3.763   3.448   5.440 -0.7411 -0.5269 -0.7158
   36MOL   C16812838   3.856   3.359   5.359  0.7164  0.0837  0.5210
   36MOL   C16912839   3.935   3.265   5.446  0.0144  0.0687  0.7491
   36MOL   C17012840   4.014   3.160   5.364  0.8084 -0.7416  0.2517
   36MOL   O17112841   4.140   3.220   5.322  0.1589 -0.1125 -0.5488
   36MOL   H17212842   3.619   3.616   5.390 -3.7876 -2.4400  0.3334
   36MOL   H17312843   3.724   3.560   5.260 -1.5459 -0.1165 -0.4862
   36MOL   H17412844   3.702   3.396   5.514 -0.2072  2.4517  1.9265
   36MOL   H17512845   3.822   3.518   5.500 -2.4023  0.1968  0.1261
   36MOL   H17612846   3.919   3.422   5.296 -0.3230 -0.6383 -1.2766
   36MOL   H17712847   3.798   3.293   5.295 -0.9894  0.4629  1.6500
   36MOL   H17812848   3.864   3.204   5.501 -1.4784  0.4772 -0.6613
   36MOL   H17912849   3.992   3.324   5.517 -1.0675 -0.1854  1.8599
   36MOL   H18012850   4.024   3.080   5.437  0.5572  0.6946  1.8948
   36MOL   H18112851   3.967   3.125   5.272  2.4141  0.7408 -1.1668
   36MOL   C18212852   4.149   3.287   5.211  0.7308  0.0873 -0.7232
   36MOL   O18312853   4.074   3.291   5.109 -0.5680  0.3212  0.0848
   36MOL   C18412854   4.279   3.366   5.211  0.1568 -0.8164 -0.6677
   36MOL   C18512855   4.255   3.515   5.184 -0.3974 -0.4607  0.3763
   36MOL   C18612856   4.388   3.568   5.127 -0.0367 -0.4892  0.0565
   36MOL   C18712857   4.444   3.520   4.993  0.1205  0.4770  0.2370
   36MOL   C18812858   4.555   3.600   4.921 -0.8999 -0.1085 -0.4831
   36MOL   O18912859   4.608   3.520   4.815 -0.4546  0.6994 -0.5248
   36MOL   H19012860   4.330   3.321   5.127 -1.2345 -1.8863 -0.9505
   36MOL   H19112861   4.347   3.352   5.295  0.2427 -1.7345 -0.8925
   36MOL   H19212862   4.222   3.575   5.269 -0.9753 -0.6506  0.2851
   36MOL   H19312863   4.177   3.529   5.109 -0.3457  0.2594  0.4534
   36MOL   H19412864   4.464   3.553   5.203 -1.6399  0.9004  1.9962
   36MOL   H19512865   4.382   3.675   5.107 -1.0317 -0.7528 -1.1519
   36MOL   H19612866   4.364   3.505   4.921 -0.0148  1.7632  0.1106
   36MOL   H19712867   4.481   3.419   5.010  0.0004  0.2974 -0.5601
   36MOL   H19812868   4.511   3.688   4.874  1.4700  0.7841 -1.1203
   36MOL   H19912869   4.636   3.626   4.989 -0.8561  0.3617 -0.7189
   36MOL   C20012870   4.736   3.546   4.772 -0.4492  0.8907  0.1508
   36MOL   O20112871   4.812   3.634   4.809 -0.2245 -0.5611  0.2597
   36MOL   C20212872   4.775   3.454   4.653 -0.4637  0.1347 -1.3078
   36MOL   C20312873   4.930   3.443   4.642 -0.0036 -1.2642 -0.4271
   36MOL   C20412874   4.991   3.331   4.557 -0.2451 -0.4645  0.2708
   36MOL   C20512875   5.138   3.302   4.594 -0.6287 -0.2969 -0.5234
   36MOL   C20612876   5.160   3.244   4.742  1.0293 -0.4629  0.2089
   36MOL   O20712877   5.078   3.131   4.764 -0.0450  0.7399 -0.2835
   36MOL   H20812878   4.742   3.507   4.564  1.1083 -0.6894 -2.3940
   36MOL   H20912879   4.726   3.359   4.677 -1.5992  0.9009 -0.5070
   36MOL   H21012880   4.967   3.438   4.744  3.0386  2.1577 -1.2841
   36MOL   H21112881   4.948   3.547   4.615 -1.6421 -0.4128  1.6162
   36MOL   H21212882   4.985   3.357   4.452 -0.3380 -0.2580  0.3287
   36MOL   H21312883   4.925   3.245   4.564 -0.9430  0.1293  1.1574
   36MOL   H21412884   5.195   3.395   4.583  2.6287 -1.9102  1.8612
   36MOL   H21512885   5.180   3.232   4.521  1.3173  0.0456  0.2495
   36MOL   H21612886   5.266   3.228   4.760  1.0149 -0.9776 -0.1715
   36MOL   H21712887   5.135   3.311   4.825  0.9510  0.7831 -0.8063
   36MOL   C21812888   5.115   3.003   4.730 -0.7669 -0.6294 -0.0708
   36MOL   O21912889   5.229   2.968   4.702  0.0921  0.7931  0.0355
   36MOL   C22012890   5.000   2.903   4.747  0.2906 -0.0105  0.7419
   36MOL   C22112891   5.039   2.756   4.758 -0.1328  0.2698  0.1165
   36MOL   C22212892   5.027   2.694   4.616 -0.6233 -0.5766 -0.1983
   36MOL   C22312893   5.073   2.549   4.608  0.5942  0.7204 -0.1797
   36MOL   C22412894   5.008   2.458   4.709 -0.6967  0.9938  0.0636
   36MOL   O22512895   4.868   2.460   4.686 -0.1465  0.2520 -0.2981
   36MOL   H22612896   4.920   2.909   4.674  0.5412 -1.1502  0.3547
   36MOL   H22712897   4.957   2.944   4.838 -1.0112 -0.0774  0.1658
   36MOL   H22812898   4.975   2.702   4.829 -1.3979  2.3332  0.6066
   36MOL   H22912899   5.141   2.745   4.795  0.8502 -1.9687 -3.0027
   36MOL   H23012900   5.092   2.752   4.550 -0.7437 -1.9785 -1.6082
   36MOL   H23112901   4.926   2.693   4.576  0.3494  0.4060 -2.8245
   36MOL   H23212902   5.180   2.555   4.629  0.8116  1.5105 -1.4618
   36MOL   H23312903   5.050   2.513   4.508 -1.4423  1.1833  0.0973
   36MOL   H23412904   5.042   2.357   4.692  0.7469  0.9683  2.8189
   36MOL   H23512905   5.028   2.474   4.815  1.0902 -1.0882  0.0742
   36MOL   C23612906   4.796   2.370   4.748  0.1870  0.1226 -0.1658
   36MOL   O23712907   4.835   2.269   4.800  0.2051  0.4304  0.0354
   36MOL   C23812908   4.647   2.406   4.737 -0.3562  0.2476 -0.1106
   36MOL   C23912909   4.605   2.513   4.836  0.0044  0.1573  0.2591
   36MOL   C24012910   4.641   2.662   4.802  0.2650  0.2114 -0.0506
   36MOL   C24112911   4.642   2.753   4.917 -0.2440  0.7046  0.6061
   36MOL   C24212912   4.631   2.897   4.874 -0.3731 -0.2631 -0.0085
   36MOL   O24312913   4.635   2.996   4.978  0.0778  0.2647  0.0293
   36MOL   H24412914   4.595   2.313   4.757 -1.8055  1.4551  1.8926
   36MOL   H24512915   4.621   2.428   4.634  0.0981  1.4518  0.0209
   36MOL   H24612916   4.639   2.493   4.938  2.6577  1.0872 -0.3979
   36MOL   H24712917   4.497   2.501   4.849  0.3480 -1.5998  1.8747
   36MOL   H24812918   4.574   2.699   4.725  0.8803  1.1828 -0.1215
   36MOL   H24912919   4.741   2.661   4.759 -0.0326 -1.0012 -0.7493
   36MOL   H25012920   4.741   2.747   4.963  0.0476 -1.5243 -0.2399
   36MOL   H25112921   4.561   2.729   4.986 -1.3646 -1.2890 -1.3338
   36MOL   H25212922   4.708   2.919   4.798 -1.7229  1.9429 -0.7951
   36MOL   H25312923   4.544   2.909   4.810 -0.3014 -0.2040 -0.0958
   36MOL   C25412924   4.654   3.121   4.949 -0.0863 -0.6941  0.3713
   36MOL   O25512925   4.662   3.167   4.835  0.0986 -0.3940 -0.0820
   36MOL   C25612926   4.671   3.216   5.069 -0.8538  0.4501 -0.3879
   36MOL   C25712927   4.812   3.208   5.138 -0.0025  0.3568 -0.2235
   36MOL   C25812928   4.923   3.279   5.061  0.1586  0.4405  0.2239
   36MOL   C25912929   4.921   3.436   5.063  0.4369  0.1739  0.2554
   36MOL   C26012930   4.952   3.492   5.202  0.4437 -0.7419 -0.0523
   36MOL   O26112931   4.970   3.630   5.186 -0.5446  0.2821 -0.6120
   36MOL   H26212932   4.586   3.202   5.134 -0.6051  1.5065  0.1845
   36MOL   H26312933   4.665   3.317   5.029  0.2053  0.8844  0.5168
   36MOL   H26412934   4.841   3.104   5.146 -0.5980  0.1621 -0.5580
   36MOL   H26512935   4.798   3.248   5.239 -1.6252  1.0250 -0.6983
   36MOL   H26612936   4.911   3.248   4.958 -0.1915  0.7608  0.1692
   36MOL   H26712937   5.020   3.240   5.093  0.1531  1.5248  1.6391
   36MOL   H26812938   4.829   3.478   5.021  0.4309 -1.6381 -1.6473
   36MOL   H26912939   5.005   3.459   4.998 -0.1912 -2.1356 -1.4499
   36MOL   H27012940   4.868   3.472   5.267  0.4625 -0.5751  0.0220
   36MOL   H27112941   5.041   3.439   5.238  0.1958 -1.4813 -0.5117
   36MOL   C27212942   4.861   3.712   5.190 -1.1348 -0.6145 -0.0964
   36MOL   O27312943   4.752   3.682   5.236  0.1228  0.5345  0.0337
   36MOL   C27412944   4.876   3.854   5.138  0.2898 -0.4370 -0.2962
   36MOL   C27512945   4.981   3.862   5.021 -0.2751 -0.3621  0.1008
   36MOL   C27612946   5.009   4.002   4.960  0.4475  0.6516 -0.3660
   36MOL   C27712947   4.894   4.045   4.870 -0.6442  0.3426  0.2114
   36MOL   C27812948   4.938   4.175   4.792 -0.9252  0.0905 -0.1814
   36MOL   O27912949   4.832   4.215   4.707  0.3585  0.3399  0.3493
   36MOL   H28012950   4.901   3.918   5.223  0.9552 -1.8575  0.5803
   36MOL   H28112951   4.777   3.885   5.103 -0.7942 -1.5092  1.7664
   36MOL   H28212952   4.971   3.781   4.948 -1.4314 -0.4103  0.3049
   36MOL   H28312953   5.068   3.839   5.083  1.0876  0.0322 -1.6522
   36MOL   H28412954   5.102   3.996   4.903  0.3234  1.9347 -0.7184
   36MOL   H28512955   5.019   4.071   5.043 -0.8287  0.5114 -0.0948
   36MOL   H28612956   4.802   4.070   4.922 -0.4617  0.1667  0.6235
   36MOL   H28712957   4.869   3.964   4.803 -2.4191  0.2712  0.9429
   36MOL   H28812958   4.965   4.251   4.865  0.8787  0.2275 -0.9467
   36MOL   H28912959   5.024   4.167   4.725 -0.7106  2.0590 -0.1648
   36MOL   C29012960   4.822   4.346   4.673 -0.7054 -0.2767 -0.0574
   36MOL   O29112961   4.900   4.433   4.707 -0.2363 -0.1444  0.4258
   36MOL   C29212962   4.699   4.381   4.589 -0.8971  0.0548 -0.5786
   36MOL   C29312963   4.591   4.483   4.639  0.5083  0.0954  0.0193
   36MOL   C29412964   4.509   4.433   4.763  0.6532  0.1585  0.1402
   36MOL   C29512965   4.443   4.561   4.828 -0.2641 -0.6474 -0.4961
   36MOL   C29612966   4.344   4.527   4.940 -0.4173 -0.4656 -0.5362
   36MOL   O29712967   4.309   4.653   5.011  0.0318 -0.0652 -0.5180
   36MOL   H29812968   4.642   4.290   4.571 -0.3846 -0.3524 -0.1299
   36MOL   H29912969   4.735   4.422   4.494  2.2969 -0.6746  0.2638
   36MOL   H30012970   4.528   4.493   4.551 -1.4960  2.2720  1.6481
   36MOL   H30112971   4.641   4.579   4.644 -1.4429  1.1466 -0.0309
   36MOL   H30212972   4.564   4.375   4.836  0.3139 -1.4698 -0.8763
   36MOL   H30312973   4.442   4.368   4.708  0.6755  0.4388 -0.2227
   36MOL   H30412974   4.385   4.605   4.747  1.2503 -0.2792 -1.4140
   36MOL   H30512975   4.514   4.638   4.857 -0.7107 -0.2185 -0.5316
   36MOL   H30612976   4.252   4.477   4.908 -1.5355  0.2314  1.5575
   36MOL   H30712977   4.388   4.462   5.016 -2.0157 -0.2415  0.5869
   36MOL   C30812978   4.232   4.747   4.955  0.2353 -0.6293  0.5001
   36MOL   O30912979   4.184   4.739   4.844  0.2131 -0.3073 -0.0403
   36MOL   C31012980   4.233   4.881   5.032  0.3067 -0.2607 -0.2239
   36MOL   C31112981   4.106   4.964   5.018 -0.0948 -0.3005  0.8657
   36MOL   C31212982   4.095   5.047   4.892 -0.3592  0.6047  1.3784
   36MOL   C31312983   3.956   5.113   4.865  0.6083 -0.5219 -0.5032
   36MOL   C31412984   3.963   5.206   4.751  0.0868 -0.2087  0.8710
   36MOL   O31512985   4.045   5.320   4.774 -0.0889  0.2990 -0.4715
   36MOL   H31612986   4.311   4.943   4.987  0.1200 -0.4972 -0.8773
   36MOL   H31712987   4.256   4.855   5.135 -3.0561 -1.0143  0.3928
   36MOL   H31812988   4.110   5.036   5.100 -1.4133 -0.1250  0.7798
   36MOL   H31912989   4.017   4.901   5.018 -0.5426  0.3297  1.0667
   36MOL   H32012990   4.117   4.987   4.804 -1.0102 -0.9915  2.2856
   36MOL   H32112991   4.177   5.120   4.891  0.4517 -0.2557  2.5327
   36MOL   H32212992   3.925   5.165   4.956  0.5920 -1.0584 -0.2023
   36MOL   H32312993   3.872   5.047   4.847  0.8093 -0.7488 -0.6037
   36MOL   H32412994   4.009   5.150   4.670  1.4412  0.5964  1.0709
   36MOL   H32512995   3.865   5.219   4.704 -0.0787  1.4876  1.6635
   36MOL   C32612996   3.985   5.436   4.805  0.6620 -0.2766 -0.7467
   36MOL   O32712997   3.864   5.453   4.811  0.0913  0.0108  0.1326
   36MOL   C32812998   4.079   5.551   4.842  0.0122  0.5809  1.1369
   36MOL   C32912999   4.218   5.504   4.901 -1.0223  0.0382  0.3663
   36MOL   C33013000   4.292   5.603   4.982  0.9292 -1.4891 -0.6880
   36MOL   C33113001   4.332   5.728   4.917 -0.1452 -0.7048  0.9749
   36MOL   C33213002   4.424   5.811   5.006 -0.0989  0.0704  0.1238
   36MOL   O33313003   4.437   5.934   4.947  0.2939  0.7543  0.4127
   36MOL   H33413004   4.030   5.608   4.921  0.9473  1.0814  1.3715
   36MOL   H33513005   4.097   5.616   4.757  0.6722 -2.0313 -0.7966
   36MOL   H33613006   4.287   5.460   4.829  1.5959  2.4373  1.2932
   36MOL   H33713007   4.186   5.423   4.966 -0.6181 -0.1212  0.3721
   36MOL   H33813008   4.369   5.548   5.037  2.4635 -0.8593 -2.1805
   36MOL   H33913009   4.225   5.629   5.064  3.5133  1.2282  0.6367
   36MOL   H34013010   4.246   5.787   4.886  1.0243 -1.1488 -3.5457
   36MOL   H34113011   4.381   5.694   4.826 -3.2392  0.3666 -1.1631
   36MOL   H34213012   4.390   5.821   5.109 -1.0608 -1.5705 -0.0075
   36MOL   H34313013   4.522   5.762   5.007 -0.3123 -0.3734 -0.2549
   36MOL   C34413014   4.542   6.013   4.984  0.1040  0.5338  0.1832
   36MOL   O34513015   4.617   5.990   5.078  0.0090  0.0746 -0.0976
   36MOL   C34613016   4.567   6.138   4.897  0.2899  0.0140 -0.1160
   36MOL   C34713017   4.441   6.216   4.863  0.4356 -0.2885  0.1670
   36MOL   C34813018   4.392   6.314   4.974  0.1150 -0.3898  0.9035
   36MOL   C34913019   4.266   6.393   4.929 -0.5966 -0.1318 -0.2263
   36MOL   C35013020   4.211   6.475   5.043  0.1512 -0.5342 -0.0436
   36MOL   O35113021   4.080   6.525   5.012 -0.7085 -0.2301  0.0521
   36MOL   H35213022   4.630   6.107   4.813  0.5870  0.4299 -0.0533
   36MOL   H35313023   4.628   6.198   4.965 -0.8369  0.3157  0.6303
   36MOL   H35413024   4.356   6.156   4.832 -1.4698  1.7871  1.1868
   36MOL   H35513025   4.476   6.272   4.776 -0.8447 -0.6403 -0.5963
   36MOL   H35613026   4.462   6.390   5.010  0.0327  1.3334 -2.3644
   36MOL   H35713027   4.360   6.254   5.059  4.0661 -0.0496  2.7309
   36MOL   H35813028   4.210   6.310   4.887 -1.0819  1.5232 -2.9432
   36MOL   H35913029   4.293   6.458   4.846  1.1002 -0.6936 -0.1226
   36MOL   H36013030   4.195   6.421   5.136 -0.3804 -1.9783 -0.9553
   36MOL   H36113031   4.286   6.548   5.073 -1.6891  0.0639  3.3033
   36MOL   H36213032   4.088   6.602   4.959 -1.5330 -1.0380 -1.2708
   37MOL     C113033   0.865   2.465   2.132  0.0851 -0.5189 -0.3206
   37MOL     O213034   0.836   2.519   2.020  0.0662  0.1255 -0.0937
   37MOL     C313035   0.916   2.319   2.131  0.7849 -0.0411 -1.6488
   37MOL     C413036   1.038   2.306   2.042 -0.3977 -0.3339  0.3133
   37MOL     C513037   1.090   2.163   2.029  0.1425  0.9047 -0.0451
   37MOL     C613038   0.995   2.063   1.962  0.5715 -0.4471  0.2472
   37MOL     C713039   1.051   1.918   1.957 -0.3057  0.4926  0.4212
   37MOL     O813040   1.043   1.855   2.085 -0.0931 -0.3691 -0.0994
   37MOL     H913041   0.834   2.254   2.102  2.2536 -1.8176 -1.8958
   37MOL    H1013042   0.952   2.298   2.232 -1.9231  0.3101 -0.5844
   37MOL    H1113043   1.124   2.362   2.079  0.3245 -0.6509 -0.8834
   37MOL    H1213044   1.027   2.353   1.945  1.4513  1.8620  1.0959
   37MOL    H1313045   1.106   2.125   2.130  0.0894 -1.3080 -0.8326
   37MOL    H1413046   1.185   2.156   1.976  0.8843 -1.1620  1.4939
   37MOL    H1513047   0.996   2.098   1.858 -0.8207 -3.4430 -0.8355
   37MOL    H1613048   0.894   2.064   2.001  0.3606  1.6508 -0.2901
   37MOL    H1713049   0.996   1.865   1.879  0.4712 -0.2724  0.3937
   37MOL    H1813050   1.156   1.928   1.930  0.0643  1.2727  2.0657
   37MOL    H1913051   0.861   2.517   2.228 -2.2981  1.9677 -1.6959
   37MOL    C2013052   0.991   1.735   2.101 -0.6557 -0.9643  0.4820
   37MOL    O2113053   0.966   1.650   2.012  0.3607  0.2582  0.1846
   37MOL    C2213054   0.979   1.705   2.254  0.3577  0.5857 -0.3239
   37MOL    C2313055   0.955   1.830   2.342  0.2113 -0.0567 -0.5281
   37MOL    C2413056   0.808   1.881   2.330 -0.3971  0.1092  0.2138
   37MOL    C2513057   0.785   2.012   2.402 -1.2227  0.1699 -0.2932
   37MOL    C2613058   0.642   2.057   2.407 -0.2050  0.9268 -0.1960
   37MOL    O2713059   0.564   1.973   2.482 -0.2264 -0.8947  0.0088
   37MOL    H2813060   1.071   1.663   2.294  0.2585  0.1919 -0.5090
   37MOL    H2913061   0.914   1.619   2.272  1.6009 -0.4810 -0.8352
   37MOL    H3013062   1.026   1.909   2.318  1.3334 -0.4169  1.4931
   37MOL    H3113063   0.973   1.813   2.448  3.0257  2.0482 -0.6198
   37MOL    H3213064   0.749   1.808   2.386 -0.1796  0.1615  0.5164
   37MOL    H3313065   0.766   1.884   2.230 -0.6651 -0.4070  0.3090
   37MOL    H3413066   0.833   2.094   2.348 -0.4900 -1.5554 -2.3152
   37MOL    H3513067   0.809   2.020   2.508 -0.6974  1.2377 -0.4795
   37MOL    H3613068   0.636   2.160   2.442 -2.4989  0.5735  0.5395
   37MOL    H3713069   0.600   2.051   2.307 -2.4341 -1.3806  0.8083
   37MOL    C3813070   0.450   2.006   2.528  0.2816  0.1308  0.1000
   37MOL    O3913071   0.408   2.123   2.531 -0.6606  0.2951 -0.0347
   37MOL    C4013072   0.375   1.899   2.606 -0.0097 -0.0983  0.2981
   37MOL    C4113073   0.224   1.918   2.638  0.3192  0.4695 -0.2770
   37MOL    C4213074   0.148   1.895   2.514  0.1149  0.2295 -0.0366
   37MOL    C4313075   7.834   1.900   2.538  0.1269 -0.4577  0.0252
   37MOL    C4413076   7.751   1.866   2.420 -0.2520 -0.4786 -0.2985
   37MOL    O4513077   7.613   1.879   2.456 -0.1837 -0.2609 -0.1873
   37MOL    H4613078   0.431   1.877   2.697 -0.3436  2.0590  1.0606
   37MOL    H4713079   0.399   1.809   2.550 -0.0157 -0.5129  0.9551
   37MOL    H4813080   0.207   2.014   2.686 -0.5534  0.1009  0.1420
   37MOL    H4913081   0.197   1.854   2.722  2.0164 -0.6346 -0.5317
   37MOL    H5013082   0.164   1.790   2.491 -0.7595 -0.3762  2.0717
   37MOL    H5113083   0.177   1.950   2.424  0.9108  0.9151  0.6383
   37MOL    H5213084   7.807   2.001   2.568  0.0364 -0.2245 -0.8283
   37MOL    H5313085   7.813   1.838   2.626  0.9268  0.2294  0.7116
   37MOL    H5413086   7.780   1.935   2.341 -2.5288  1.1936  0.2529
   37MOL    H5513087   7.774   1.762   2.396  0.2604 -0.1015 -1.4296
   37MOL    C5613088   7.533   1.904   2.348  0.1977  0.8072  0.9391
   37MOL    O5713089   7.574   1.896   2.232 -0.1454  0.2358 -0.4944
   37MOL    C5813090   7.385   1.928   2.390 -0.4598  0.2938  0.4393
   37MOL    C5913091   7.295   1.806   2.351  0.0586  0.5740 -0.0715
   37MOL    C6013092   7.264   1.809   2.200  0.0027 -0.7011  0.4739
   37MOL    C6113093   7.128   1.743   2.177  0.1952  0.4114 -0.2398
   37MOL    C6213094   7.101   1.722   2.024  0.2888 -0.2292  0.4573
   37MOL    O6313095   7.175   1.612   1.974 -0.3718 -0.1369  0.4819
   37MOL    H6413096   7.336   2.014   2.344  1.6322  2.5385  2.2820
   37MOL    H6513097   7.378   1.946   2.498  3.7306 -1.1053  1.0098
   37MOL    H6613098   7.196   1.812   2.397 -0.2708 -1.0723 -0.5342
   37MOL    H6713099   7.322   1.706   2.387 -1.6481  0.6573  1.5155
   37MOL    H6813100   7.342   1.757   2.145  1.8562  3.0753 -0.6771
   37MOL    H6913101   7.268   1.909   2.155 -2.2102 -0.3046  1.1111
   37MOL    H7013102   7.048   1.799   2.226  0.4820  0.9475 -0.3701
   37MOL    H7113103   7.119   1.644   2.221 -0.2977  0.7551  0.4471
   37MOL    H7213104   6.995   1.701   2.031  0.4436 -2.8472 -3.5709
   37MOL    H7313105   7.121   1.821   1.982 -0.7349 -0.0052  0.4791
   37MOL    C7413106   7.143   1.549   1.856 -0.5530 -0.4287  0.3806
   37MOL    O7513107   7.043   1.577   1.791 -0.5735 -0.2530  0.2752
   37MOL    C7613108   7.232   1.430   1.806 -0.5556  0.2342  0.0141
   37MOL    C7713109   7.246   1.320   1.912  0.5895 -0.0838  0.5295
   37MOL    C7813110   7.271   1.189   1.840  0.2514  0.3843 -0.1328
   37MOL    C7913111   7.278   1.075   1.938 -0.6421  0.2227 -0.1834
   37MOL    C8013112   7.324   0.945   1.867 -0.5337 -0.2526  0.6679
   37MOL    O8113113   7.334   0.826   1.946  0.1000 -0.5559 -0.0386
   37MOL    H8213114   7.328   1.457   1.761  1.0317 -2.4226  1.7154
   37MOL    H8313115   7.158   1.392   1.736 -2.1833 -0.3519  2.0389
   37MOL    H8413116   7.159   1.317   1.977 -1.9374 -0.2539 -2.7436
   37MOL    H8513117   7.331   1.342   1.977  0.0370 -2.0715  1.9811
   37MOL    H8613118   7.360   1.196   1.777  0.4258  1.7757  0.2543
   37MOL    H8713119   7.187   1.171   1.773 -0.4069 -1.7161  1.2308
   37MOL    H8813120   7.184   1.062   1.991 -1.0832 -0.7990 -1.1983
   37MOL    H8913121   7.357   1.101   2.009 -1.6695  1.5424  0.4987
   37MOL    H9013122   7.240   0.928   1.800  0.4443 -0.2575 -0.5682
   37MOL    H9113123   7.411   0.966   1.806 -0.0481 -2.9182  0.3703
   37MOL    C9213124   7.434   0.809   2.027  1.0129  0.7549  0.7499
   37MOL    O9313125   7.528   0.880   2.057  0.3915  0.0650 -0.1894
   37MOL    C9413126   7.421   0.686   2.113  0.0966 -0.3807 -0.5724
   37MOL    C9513127   7.457   0.556   2.047 -0.4064  0.0160  0.3259
   37MOL    C9613128   7.610   0.533   2.052  0.7452 -0.0085  0.0851
   37MOL    C9713129   7.644   0.385   2.021 -1.0314  0.3299 -0.3304
   37MOL    C9813130   7.720   0.369   1.891  0.1317  0.8938  0.4415
   37MOL    O9913131   0.013   0.393   1.901 -0.1215  0.3463  0.0230
   37MOL   H10013132   7.320   0.693   2.153  0.1470 -0.4391 -0.4371
   37MOL   H10113133   7.490   0.695   2.196  1.5316  0.8491 -1.8616
   37MOL   H10213134   7.432   0.548   1.941  0.0563  1.2163  0.1200
   37MOL   H10313135   7.402   0.473   2.092  1.9045 -0.8194  1.6830
   37MOL   H10413136   7.653   0.532   2.152  1.7992  0.8115 -0.3509
   37MOL   H10513137   7.660   0.609   1.993 -1.7208  1.2954 -0.4027
   37MOL   H10613138   7.558   0.318   2.013  0.0319 -0.9195 -1.3730
   37MOL   H10713139   7.699   0.341   2.104  0.4819 -0.1434 -1.5726
   37MOL   H10813140   7.704   0.262   1.879 -0.4502  0.8521  1.4888
   37MOL   H10913141   7.663   0.411   1.808 -2.0868  0.6939  1.8041
   37MOL   C11013142   0.108   0.306   1.942 -0.0754 -0.9800  0.7963
   37MOL   O11113143   0.095   0.193   1.986 -0.3338  0.1821  0.3742
   37MOL   C11213144   0.245   0.376   1.940 -0.1341 -0.3213 -0.6583
   37MOL   C11313145   0.342   0.290   1.851 -0.1106 -0.1797 -0.5897
   37MOL   C11413146   0.418   0.181   1.922  0.5339  0.5831 -0.5485
   37MOL   C11513147   0.546   0.140   1.844 -0.3925  0.3656  0.3845
   37MOL   C11613148   0.521   0.068   1.715  0.3476 -0.3697 -0.9770
   37MOL   O11713149   0.505   0.155   1.611  0.4571 -0.7024  0.1812
   37MOL   H11813150   0.281   0.403   2.039 -1.7350  0.2616 -0.2304
   37MOL   H11913151   0.236   0.475   1.896  0.4074 -0.4801 -1.1361
   37MOL   H12013152   0.408   0.371   1.823  0.1358 -0.1934 -0.0485
   37MOL   H12113153   0.287   0.250   1.766  2.2032 -0.9032 -1.7807
   37MOL   H12213154   0.351   0.095   1.934  3.1424 -1.5484 -0.7119
   37MOL   H12313155   0.437   0.218   2.022  1.2728 -0.4556 -0.2928
   37MOL   H12413156   0.607   0.080   1.911  3.7438  3.0390 -0.7780
   37MOL   H12513157   0.593   0.232   1.808 -0.6666  0.2424 -0.2978
   37MOL   H12613158   0.606   0.001   1.702 -0.5576 -1.8202  0.2788
   37MOL   H12713159   0.433   0.004   1.726  0.5416 -0.8561 -2.1871
   37MOL   C12813160   0.446   0.107   1.500 -0.1054 -0.3734 -0.4943
   37MOL   O12913161   0.402   7.835   1.485  0.5913 -0.0185 -0.1119
   37MOL   C13013162   0.449   0.208   1.386 -0.1289  0.1780 -0.4528
   37MOL   C13113163   0.390   0.149   1.259 -0.7636 -0.3050  0.5914
   37MOL   C13213164   0.414   0.233   1.128 -0.5608 -0.0302 -1.0101
   37MOL   C13313165   0.343   0.373   1.131  0.3302 -0.4556 -0.1986
   37MOL   C13413166   0.188   0.379   1.119  0.0136 -0.8513 -0.4233
   37MOL   O13513167   0.153   0.516   1.119 -0.1480  0.3135 -0.0035
   37MOL   H13613168   0.554   0.239   1.382  0.2336 -1.1444 -1.4613
   37MOL   H13713169   0.392   0.298   1.409 -1.7521 -0.6505 -1.1472
   37MOL   H13813170   0.286   0.117   1.265 -0.2313 -2.7163 -1.9182
   37MOL   H13913171   0.444   0.056   1.239  0.5407  1.1153 -2.8578
   37MOL   H14013172   0.376   0.167   1.050  1.9113  0.1818 -2.4502
   37MOL   H14113173   0.517   0.243   1.092  0.5796 -0.7095  1.8882
   37MOL   H14213174   0.384   0.424   1.044 -2.2494  0.5658 -0.8468
   37MOL   H14313175   0.361   0.443   1.214 -0.2313 -0.9129  0.3097
   37MOL   H14413176   0.165   0.317   1.032 -0.4843 -0.0799 -0.8433
   37MOL   H14513177   0.156   0.329   1.211 -1.0614  1.8245  0.7209
   37MOL   C14613178   0.023   0.543   1.132 -1.3133 -0.2474 -0.3101
   37MOL   O14713179   7.780   0.454   1.122  0.0221 -0.3616  0.0293
   37MOL   C14813180   7.825   0.693   1.131  0.6231 -1.3246 -0.2175
   37MOL   C14913181   0.025   0.761   0.997 -0.5715 -0.2356  0.3047
   37MOL   C15013182   0.022   0.911   0.970 -1.2093  0.1011  0.3443
   37MOL   C15113183   0.057   0.954   0.825  0.6408  1.2066 -0.3439
   37MOL   C15213184   7.771   0.988   0.747 -0.7134 -0.1909  0.2000
   37MOL   O15313185   7.678   0.879   0.763 -0.4902 -0.2077 -0.1421
   37MOL   H15413186   0.031   0.733   1.219  0.8986  2.0626 -1.8545
   37MOL   H15513187   7.720   0.701   1.157  0.6266 -0.6595 -0.3919
   37MOL   H15613188   7.812   0.719   0.915 -2.0873  0.7685  0.8344
   37MOL   H15713189   0.132   0.740   0.993 -0.4092  0.6418  0.0778
   37MOL   H15813190   0.086   0.955   1.047 -2.1683  2.2484 -0.0419
   37MOL   H15913191   7.764   0.946   0.984 -1.6539 -2.4631  4.3425
   37MOL   H16013192   0.120   0.881   0.774 -0.2210 -1.1844  1.9240
   37MOL   H16113193   0.121   1.040   0.842  0.5147  1.4640 -1.1417
   37MOL   H16213194   7.729   1.075   0.798 -0.9772 -0.3051  0.1783
   37MOL   H16313195   7.800   1.009   0.644 -1.1696  0.4338  0.1981
   37MOL   C16413196   7.557   0.921   0.763 -0.3413 -0.3016  0.0376
   37MOL   O16513197   7.514   1.037   0.748 -0.6493  0.1717 -0.4305
   37MOL   C16613198   7.459   0.810   0.793 -0.4304  1.0441 -0.0207
   37MOL   C16713199   7.478   0.734   0.932 -0.2195 -0.2147 -0.8902
   37MOL   C16813200   7.410   0.800   1.058 -0.3565 -0.1618  0.6975
   37MOL   C16913201   7.467   0.939   1.091 -0.2453  0.0055  0.0162
   37MOL   C17013202   7.422   0.995   1.227  0.0606  0.5538 -0.0260
   37MOL   O17113203   7.500   1.102   1.277 -0.3554  0.6881  0.4358
   37MOL   H17213204   7.482   0.734   0.719 -3.8962  0.4225 -0.5292
   37MOL   H17313205   7.354   0.835   0.778 -0.1572  1.5144 -1.1699
   37MOL   H17413206   7.584   0.714   0.943  0.2809  2.4074 -0.5537
   37MOL   H17513207   7.447   0.630   0.926  0.4703 -0.4536 -0.2703
   37MOL   H17613208   7.418   0.745   1.152 -2.1056 -1.4940  0.0970
   37MOL   H17713209   7.305   0.817   1.037  0.0019  0.4267 -0.6646
   37MOL   H17813210   7.444   1.008   1.010  1.5125 -1.3699 -1.7098
   37MOL   H17913211   7.576   0.938   1.084 -0.1941  1.4449  0.3583
   37MOL   H18013212   7.319   1.029   1.219  0.4258  1.4248 -1.2096
   37MOL   H18113213   7.427   0.912   1.298 -0.2902 -0.5856 -1.2953
   37MOL   C18213214   7.495   1.131   1.409  0.3703 -0.8525 -0.5718
   37MOL   O18313215   7.425   1.065   1.491 -0.5628  0.6322  0.5073
   37MOL   C18413216   7.599   1.239   1.457 -0.4830  0.3822 -0.3739
   37MOL   C18513217   7.632   1.252   1.606  0.0350 -0.3643 -0.0158
   37MOL   C18613218   7.736   1.140   1.643 -0.2396  0.2856 -0.5059
   37MOL   C18713219   7.739   1.104   1.794 -0.2914 -0.5249 -0.5465
   37MOL   C18813220   7.830   0.985   1.818  0.3362 -0.0267  0.2674
   37MOL   O18913221   7.828   0.946   1.958 -0.1795  0.0762  0.3278
   37MOL   H19013222   7.568   1.340   1.426 -1.8595  0.2674  0.5692
   37MOL   H19113223   7.696   1.221   1.410 -0.7910 -1.3157 -0.3802
   37MOL   H19213224   7.542   1.259   1.667 -0.0245 -0.1190 -0.1305
   37MOL   H19313225   7.680   1.348   1.627 -1.3516  0.6155 -1.1920
   37MOL   H19413226   7.838   1.176   1.625 -0.3289  0.5530 -0.4877
   37MOL   H19513227   7.724   1.045   1.592  0.8558  0.4021 -0.9973
   37MOL   H19613228   7.645   1.078   1.844 -0.4014 -0.9018 -0.9470
   37MOL   H19713229   7.769   1.191   1.853  0.1215 -0.5484 -0.7226
   37MOL   H19813230   7.806   0.902   1.751  2.5703  0.4882 -1.2229
   37MOL   H19913231   0.086   1.007   1.782 -0.0553 -0.3188 -1.0451
   37MOL   C20013232   0.012   0.825   1.999 -1.2589 -0.6041 -0.0146
   37MOL   O20113233   0.039   0.735   1.919 -0.5377 -0.0612  0.2179
   37MOL   C20213234   0.006   0.799   2.156 -0.2280 -0.1100 -0.4990
   37MOL   C20313235   0.092   0.894   2.232  0.3850 -0.6529  0.4826
   37MOL   C20413236   0.024   1.024   2.272  0.2992  0.7467  0.7272
   37MOL   C20513237   0.114   1.112   2.366  0.5073  0.5740 -0.5397
   37MOL   C20613238   0.069   1.257   2.353  0.2096  0.4370  0.2710
   37MOL   O20713239   0.170   1.332   2.418  0.2281  0.1616  0.6420
   37MOL   H20813240   0.025   0.695   2.181 -2.9874 -0.2273  1.3197
   37MOL   H20913241   7.748   0.813   2.191  0.4625 -0.8590  1.9450
   37MOL   H21013242   0.180   0.923   2.176 -0.5062  0.2619 -0.4756
   37MOL   H21113243   0.124   0.847   2.325 -1.9638  0.1517  1.7427
   37MOL   H21213244   7.767   1.019   2.311  0.1373  1.6948  0.4287
   37MOL   H21313245   0.015   1.078   2.178 -1.4507  1.7726  1.4586
   37MOL   H21413246   0.218   1.104   2.333  0.0103 -0.1498 -1.9941
   37MOL   H21513247   0.114   1.087   2.472 -2.5557  0.5692 -0.5212
   37MOL   H21613248   0.046   1.287   2.251 -1.1341  0.5229  0.5851
   37MOL   H21713249   7.820   1.272   2.407 -1.1431 -1.4322 -1.5156
   37MOL   C21813250   0.152   1.460   2.440  0.1350  0.2417  0.6217
   37MOL   O21913251   0.050   1.524   2.409 -0.3791 -0.0426 -0.0705
   37MOL   C22013252   0.275   1.528   2.497 -0.4876 -0.2457  0.0702
   37MOL   C22113253   0.265   1.549   2.657 -0.3244  0.4506 -0.1384
   37MOL   C22213254   0.278   1.418   2.728 -0.2099  0.2865 -0.2118
   37MOL   C22313255   0.258   1.428   2.885 -0.5094 -0.0328  0.4061
   37MOL   C22413256   0.128   1.476   2.948  0.4356  0.4711  0.2320
   37MOL   O22513257   0.140   1.474   3.089  0.2169 -0.1900  0.1813
   37MOL   H22613258   0.278   1.626   2.451  0.4163 -0.0605  0.5018
   37MOL   H22713259   0.362   1.466   2.472 -0.2659  1.3442 -3.3650
   37MOL   H22813260   0.167   1.592   2.680  0.4208  3.3793 -2.2023
   37MOL   H22913261   0.331   1.628   2.692 -2.7935  1.6168  2.1100
   37MOL   H23013262   0.383   1.390   2.719 -0.1174  1.2885 -2.3797
   37MOL   H23113263   0.214   1.340   2.685 -2.5194  0.2785  3.0721
   37MOL   H23213264   0.339   1.491   2.923  0.0626 -1.4642  1.6377
   37MOL   H23313265   0.282   1.329   2.924 -0.2043  1.3268  3.8264
   37MOL   H23413266   0.080   1.568   2.913  0.0746  0.7323  1.3846
   37MOL   H23513267   0.053   1.399   2.931  0.1550  0.8164 -0.0991
   37MOL   C23613268   0.025   1.484   3.166 -0.4256  0.1393 -0.3520
   37MOL   O23713269   7.763   1.522   3.122  0.2734  0.2973 -0.3437
   37MOL   C23813270   0.056   1.464   3.323 -0.3932  0.0543  0.6794
   37MOL   C23913271   7.816   1.556   3.408  0.4011  0.9540  0.3499
   37MOL   C24013272   7.832   1.523   3.558 -0.0565  0.1803  0.1821
   37MOL   C24113273   0.134   1.557   3.607 -1.0324 -0.6496  0.2673
   37MOL   C24213274   0.166   1.521   3.751  0.3489  0.3206  0.4905
   37MOL   O24313275   0.275   1.601   3.788  0.2090 -0.0080 -0.0747
   37MOL   H24413276   0.163   1.468   3.342  0.0091 -0.9526 -1.2136
   37MOL   H24513277   0.026   1.361   3.342  0.9091 -0.2797  0.9691
   37MOL   H24613278   7.710   1.548   3.386 -0.0198 -0.3019  2.7161
   37MOL   H24713279   7.839   1.661   3.390  0.4688  0.6867 -1.1889
   37MOL   H24813280   7.804   1.422   3.588 -1.4400  0.9443  1.5121
   37MOL   H24913281   7.764   1.595   3.603 -0.7835  0.0915 -0.7666
   37MOL   H25013282   0.160   1.655   3.565  0.4401 -2.1001 -2.3340
   37MOL   H25113283   0.200   1.500   3.541  0.6013  0.8547  0.5442
   37MOL   H25213284   0.080   1.541   3.815 -1.2351  0.0095 -1.5231
   37MOL   H25313285   0.183   1.414   3.763 -0.4961 -0.0228 -1.2776
   37MOL   C25413286   0.278   1.663   3.899 -0.9132 -0.3322 -0.1651
   37MOL   O25513287   0.187   1.653   3.977 -0.1301 -0.1681  0.1198
   37MOL   C25613288   0.411   1.729   3.935  0.1042 -0.4728  0.1925
   37MOL   C25713289   0.451   1.847   3.842 -0.2100  0.2010  0.3421
   37MOL   C25813290   0.345   1.963   3.817  0.1323  0.3745  0.6903
   37MOL   C25913291   0.308   2.042   3.941 -0.5473 -0.0711 -0.2398
   37MOL   C26013292   0.220   2.156   3.915  0.2867  0.0233  0.0312
   37MOL   O26113293   0.181   2.222   4.034  0.4831  0.4806 -0.4475
   37MOL   H26213294   0.484   1.649   3.916 -0.8556 -1.8039  1.9487
   37MOL   H26313295   0.418   1.746   4.043  2.1098  0.4863 -0.0687
   37MOL   H26413296   0.484   1.810   3.745  1.3994  3.2613 -0.3335
   37MOL   H26513297   0.544   1.880   3.888 -0.3778 -1.8743  2.2607
   37MOL   H26613298   0.255   1.913   3.782 -0.3434  0.4882  1.7345
   37MOL   H26713299   0.382   2.028   3.738 -1.0960 -0.2168 -0.3991
   37MOL   H26813300   0.393   2.087   3.992 -0.4388 -0.0425 -0.4490
   37MOL   H26913301   0.245   1.989   4.013 -1.2883  2.4511  1.0509
   37MOL   H27013302   0.269   2.224   3.846  1.7171 -1.1958 -0.1757
   37MOL   H27113303   0.127   2.126   3.865 -0.4631 -0.3901  1.6315
   37MOL   C27213304   0.248   2.337   4.068 -0.4004 -0.4058 -0.8144
   37MOL   O27313305   0.297   2.420   3.989 -0.1446 -0.6211  0.2245
   37MOL   C27413306   0.241   2.355   4.223 -0.6295  0.7124 -0.5354
   37MOL   C27513307   0.180   2.500   4.258  0.5177  0.0147 -0.3962
   37MOL   C27613308   0.271   2.622   4.243 -0.7739 -0.2065  0.2902
   37MOL   C27713309   0.216   2.758   4.300  0.6688 -0.3697 -0.5707
   37MOL   C27813310   0.315   2.871   4.291 -0.1598 -0.4760 -0.4002
   37MOL   O27913311   0.249   2.990   4.341  0.0586 -0.1409 -0.2621
   37MOL   H28013312   0.339   2.333   4.267 -0.2290 -3.1868 -3.1074
   37MOL   H28113313   0.178   2.274   4.261 -0.9694  0.4613 -1.6365
   37MOL   H28213314   0.149   2.497   4.362 -0.0871 -1.0636 -0.5976
   37MOL   H28313315   0.085   2.502   4.205  0.3785  0.3653 -0.1351
   37MOL   H28413316   0.295   2.632   4.137 -1.3865  0.5843  0.2171
   37MOL   H28513317   0.360   2.605   4.304  0.3850  0.6512 -1.1229
   37MOL   H28613318   0.200   2.749   4.407 -0.2892  0.5152 -0.6330
   37MOL   H28713319   0.124   2.780   4.246 -0.6562 -2.4826  0.7376
   37MOL   H28813320   0.412   2.845   4.332 -0.0910 -1.0959 -0.9471
   37MOL   H28913321   0.332   2.890   4.185 -0.9677  2.1134 -0.1072
   37MOL   C29013322   0.317   3.091   4.390 -1.3759  0.5972 -0.1396
   37MOL   O29113323   0.436   3.091   4.395 -0.7172  0.1568 -0.6317
   37MOL   C29213324   0.232   3.204   4.456 -0.4700  0.0420  0.3866
   37MOL   C29313325   0.149   3.289   4.361  0.3315  0.2020  0.0777
   37MOL   C29413326   0.242   3.375   4.277 -0.0721  1.1573 -0.1241
   37MOL   C29513327   0.179   3.505   4.228 -0.3150  0.1442 -0.5435
   37MOL   C29613328   0.253   3.561   4.109  0.0898  0.5655 -0.4888
   37MOL   O29713329   0.252   3.474   3.997 -0.3626 -0.1885  0.0792
   37MOL   H29813330   0.301   3.275   4.502  1.1617  0.3193 -2.3769
   37MOL   H29913331   0.166   3.157   4.530 -0.3702  0.3722  0.6884
   37MOL   H30013332   0.073   3.350   4.409 -0.7473 -1.0009 -0.0628
   37MOL   H30113333   0.089   3.215   4.308  1.4592 -1.8881  1.6058
   37MOL   H30213334   0.285   3.329   4.188  1.5839  1.9699  0.2242
   37MOL   H30313335   0.333   3.398   4.333 -0.4639  2.0180  0.1671
   37MOL   H30413336   0.166   3.578   4.307 -0.8766 -0.3132 -0.2160
   37MOL   H30513337   0.080   3.484   4.187 -0.5374  0.0866  0.0306
   37MOL   H30613338   0.202   3.656   4.093 -2.3518 -0.5045  0.7146
   37MOL   H30713339   0.354   3.585   4.141  0.6424 -2.4593  0.2542
   37MOL   C30813340   0.226   3.515   3.870 -0.2206 -0.5404  0.2112
   37MOL   O30913341   0.200   3.632   3.842  0.1253  0.1338 -0.2677
   37MOL   C31013342   0.232   3.400   3.767  0.0124 -0.4174  1.0335
   37MOL   C31113343   0.213   3.444   3.621  0.3050  0.1138  0.0849
   37MOL   C31213344   0.297   3.358   3.523 -0.2371  0.0343  0.0037
   37MOL   C31313345   0.270   3.364   3.365  0.0032 -0.2332  0.3814
   37MOL   C31413346   0.342   3.266   3.274  0.7737 -0.0491  0.6952
   37MOL   O31513347   0.292   3.130   3.277  0.0104 -0.2209  0.0249
   37MOL   H31613348   0.170   3.315   3.795  1.3064 -1.9582 -0.6330
   37MOL   H31713349   0.335   3.365   3.775  1.0483  2.4968  1.0327
   37MOL   H31813350   0.232   3.550   3.605 -1.5636  0.4738  0.1793
   37MOL   H31913351   0.106   3.434   3.604 -0.3990  1.0239  3.4935
   37MOL   H32013352   0.278   3.254   3.549 -0.4363  0.1994  0.5242
   37MOL   H32113353   0.401   3.378   3.548 -0.5297  1.5742  0.0260
   37MOL   H32213354   0.293   3.464   3.327 -1.8348 -0.3832 -1.2055
   37MOL   H32313355   0.165   3.341   3.352  0.4016 -0.6939 -2.5465
   37MOL   H32413356   0.346   3.297   3.169  0.3758  1.3670  1.1015
   37MOL   H32513357   0.447   3.280   3.299  0.6793  0.0775  1.0204
   37MOL   C32613358   0.371   3.038   3.217 -0.3715 -0.6261  1.1336
   37MOL   O32713359   0.477   3.065   3.164  0.0600  0.2597  0.3133
   37MOL   C32813360   0.317   2.892   3.208  0.0117  0.0237  0.6083
   37MOL   C32913361   0.289   2.823   3.339  0.3030 -0.3792 -0.2995
   37MOL   C33013362   0.425   2.781   3.399  0.4802 -0.6827 -0.0387
   37MOL   C33113363   0.390   2.688   3.515 -0.1611 -0.2485  0.1038
   37MOL   C33213364   0.505   2.660   3.613  0.5824 -0.0369 -0.8816
   37MOL   O33313365   0.540   2.788   3.667  0.1181 -0.1451 -0.1093
   37MOL   H33413366   0.386   2.827   3.155  1.2423  0.1648  1.9891
   37MOL   H33513367   0.227   2.899   3.147  0.7686 -0.5977 -0.5783
   37MOL   H33613368   0.217   2.743   3.326 -0.3407 -0.0330  0.9930
   37MOL   H33713369   0.237   2.897   3.401  0.9709  1.2875 -1.6693
   37MOL   H33813370   0.478   2.861   3.451  0.7908  0.2091 -1.6710
   37MOL   H33913371   0.488   2.731   3.326  2.4393  2.1434 -0.3614
   37MOL   H34013372   0.343   2.597   3.477  2.1509 -2.5181  2.4766
   37MOL   H34113373   0.309   2.736   3.568 -0.6272  1.7556 -2.3144
   37MOL   H34213374   0.470   2.598   3.695 -2.2799  3.2674  0.4876
   37MOL   H34313375   0.593   2.608   3.573  1.2889 -0.6012  1.3438
   37MOL   C34413376   0.667   2.826   3.689  0.0858 -0.1855 -0.8407
   37MOL   O34513377   0.761   2.753   3.666 -0.5488  0.0592  0.1102
   37MOL   C34613378   0.684   2.967   3.752 -0.2001 -0.4796 -0.0538
   37MOL   C34713379   0.563   3.066   3.723 -0.2879 -0.2077 -0.2220
   37MOL   C34813380   0.588   3.199   3.775 -0.0371  0.1158 -0.6179
   37MOL   C34913381   0.568   3.205   3.934  0.0896  0.2427 -0.3224
   37MOL   C35013382   0.567   3.350   3.988 -0.1032  0.1890 -0.5082
   37MOL   O35113383   0.688   3.417   3.984 -0.3792 -0.5161 -0.5952
   37MOL   H35213384   0.772   3.007   3.701 -1.1277  1.7750  0.0338
   37MOL   H35313385   0.688   2.960   3.860  1.1596  2.8730  0.1958
   37MOL   H35413386   0.471   3.015   3.749 -0.9655  1.0206 -0.1790
   37MOL   H35513387   0.535   3.077   3.619  1.2459  0.4045 -0.5849
   37MOL   H35613388   0.514   3.268   3.734  1.1711  1.6884 -0.1826
   37MOL   H35713389   0.688   3.232   3.746  0.9457 -0.4730  2.0135
   37MOL   H35813390   0.645   3.143   3.979  0.0138  0.6516  0.3842
   37MOL   H35913391   0.476   3.162   3.973 -0.2069  0.6504 -0.5715
   37MOL   H36013392   0.507   3.424   3.935  2.1629  1.3577 -1.5072
   37MOL   H36113393   0.536   3.334   4.091  1.3015 -1.3143 -0.2960
   37MOL   H36213394   0.682   3.495   4.037 -0.6601 -0.0025 -1.3663
   38MOL     C113395   4.650   2.159   3.943  0.3422  0.3114 -0.6480
   38MOL     O213396   4.629   2.111   3.835  0.7557 -0.3617  0.1020
   38MOL     C313397   4.770   2.244   3.989 -0.0488 -1.0484 -0.3600
   38MOL     C413398   4.784   2.366   3.899 -0.6694 -0.0957 -0.1049
   38MOL     C513399   4.916   2.445   3.925  0.7405 -0.9128  0.1580
   38MOL     C613400   4.905   2.537   4.054  0.5509 -0.2702  0.3590
   38MOL     C713401   5.017   2.631   4.085 -0.2356 -0.4747 -0.3842
   38MOL     O813402   5.141   2.556   4.103  0.3052 -0.3086  0.4310
   38MOL     H913403   4.864   2.188   3.983 -0.1646 -1.3916  0.8242
   38MOL    H1013404   4.761   2.282   4.091 -1.4075 -0.1761 -0.8021
   38MOL    H1113405   4.691   2.421   3.909  0.3168  1.9946 -2.0056
   38MOL    H1213406   4.806   2.344   3.795  0.1703  0.2126  0.0023
   38MOL    H1313407   4.946   2.497   3.834 -2.3060  0.8779  0.0871
   38MOL    H1413408   4.996   2.373   3.939  0.4438 -1.0206  1.3517
   38MOL    H1513409   4.901   2.474   4.143  2.3223 -0.1606  0.5357
   38MOL    H1613410   4.807   2.586   4.054  0.0447 -1.2447  1.7977
   38MOL    H1713411   5.035   2.705   4.007  0.9132 -1.2043 -0.8274
   38MOL    H1813412   4.994   2.685   4.177  0.6890 -0.4210 -0.1792
   38MOL    H1913413   4.578   2.140   4.022 -0.6511 -1.1864 -1.8842
   38MOL    C2013414   5.244   2.614   4.179 -0.3897 -0.3319 -0.9933
   38MOL    O2113415   5.234   2.714   4.254  0.2543  0.2968 -0.9203
   38MOL    C2213416   5.379   2.543   4.154  0.3215 -0.3429  0.0447
   38MOL    C2313417   5.506   2.613   4.197  0.2177  0.2118 -0.1637
   38MOL    C2413418   5.609   2.505   4.177  0.2422  0.4573  0.4985
   38MOL    C2513419   5.744   2.531   4.240  0.1735  0.2598  0.5456
   38MOL    C2613420   5.819   2.654   4.189 -0.1776  0.9014 -0.3272
   38MOL    O2713421   5.902   2.628   4.077  0.5293  0.3572 -0.6939
   38MOL    H2813422   5.387   2.524   4.047 -2.5930  0.1663 -0.3021
   38MOL    H2913423   5.369   2.450   4.208 -0.0187 -2.1413 -3.0036
   38MOL    H3013424   5.499   2.638   4.303  0.9890  2.1905 -0.5430
   38MOL    H3113425   5.524   2.703   4.138  2.0554 -1.2149 -1.8200
   38MOL    H3213426   5.615   2.501   4.068 -0.5378 -1.3511  0.4965
   38MOL    H3313427   5.576   2.407   4.210 -0.8759  0.0780 -1.6276
   38MOL    H3413428   5.808   2.448   4.210 -2.5693 -1.6293 -0.2786
   38MOL    H3513429   5.741   2.536   4.348  1.9624 -0.2333  0.6441
   38MOL    H3613430   5.756   2.741   4.171 -0.1469  0.6115 -1.9343
   38MOL    H3713431   5.901   2.678   4.255  0.2695 -2.4808  0.4552
   38MOL    C3813432   5.872   2.693   3.961 -0.1105 -0.4868  0.0649
   38MOL    O3913433   5.762   2.742   3.942  0.0911 -0.7927  0.0234
   38MOL    C4013434   5.990   2.705   3.863  0.1660 -0.7993 -0.1550
   38MOL    C4113435   5.954   2.769   3.717 -0.2818  0.2592 -0.0439
   38MOL    C4213436   6.077   2.770   3.636 -0.0951  0.6622 -0.9916
   38MOL    C4313437   6.049   2.828   3.498  0.2479  0.0528  0.0854
   38MOL    C4413438   6.167   2.824   3.399  0.0122 -0.3890  0.2898
   38MOL    O4513439   6.268   2.907   3.450  0.7587  0.0918 -0.5608
   38MOL    H4613440   6.026   2.605   3.839 -3.4157 -2.6120  1.5860
   38MOL    H4713441   6.074   2.761   3.903 -0.2657 -1.1471  1.2665
   38MOL    H4813442   5.915   2.869   3.738 -0.3136 -0.0547  1.4722
   38MOL    H4913443   5.871   2.713   3.675 -0.9360  1.5459 -0.5137
   38MOL    H5013444   6.126   2.674   3.624 -0.8933 -0.0274  1.0763
   38MOL    H5113445   6.151   2.838   3.678 -0.9784  0.8646  0.2577
   38MOL    H5213446   6.014   2.931   3.504  2.3163  0.8029 -0.4058
   38MOL    H5313447   5.961   2.781   3.455  0.1221 -1.2469  1.6706
   38MOL    H5413448   6.207   2.725   3.377 -1.5074 -0.6817 -1.2935
   38MOL    H5513449   6.141   2.867   3.302 -0.6395 -0.0262  0.6263
   38MOL    C5613450   6.384   2.921   3.386  0.2211  0.0885  0.1905
   38MOL    O5713451   6.407   2.872   3.274 -0.2871 -0.2330 -0.1042
   38MOL    C5813452   6.495   2.996   3.467 -0.2190  0.3302 -0.1210
   38MOL    C5913453   6.473   3.146   3.498  0.5231 -0.2114  0.6455
   38MOL    C6013454   6.392   3.170   3.628 -0.3994 -0.0478 -0.1097
   38MOL    C6113455   6.396   3.313   3.674 -0.0038 -0.9869 -0.4987
   38MOL    C6213456   6.322   3.332   3.807 -0.6441  0.5576  0.2634
   38MOL    O6313457   6.183   3.301   3.781  0.1783 -0.1767 -0.2516
   38MOL    H6413458   6.580   2.972   3.402  0.5130  3.5563 -0.4184
   38MOL    H6513459   6.509   2.935   3.556 -0.3445 -2.5584 -1.9992
   38MOL    H6613460   6.412   3.187   3.417  0.0727 -1.5992  0.2678
   38MOL    H6713461   6.567   3.200   3.487  0.5764 -0.1514  1.3834
   38MOL    H6813462   6.427   3.102   3.706 -1.0473 -0.3828 -0.1084
   38MOL    H6913463   6.289   3.140   3.607 -0.3022 -0.4513 -0.0214
   38MOL    H7013464   6.364   3.384   3.597 -1.8251 -1.1128  0.1120
   38MOL    H7113465   6.501   3.337   3.689 -0.2100  0.0700 -0.6759
   38MOL    H7213466   6.367   3.269   3.884 -4.2107 -0.4234  1.6743
   38MOL    H7313467   6.326   3.436   3.840  0.3457  0.5594  0.1373
   38MOL    C7413468   6.091   3.396   3.751 -0.1771 -0.3760  0.0553
   38MOL    O7513469   6.111   3.517   3.763  0.2521 -0.1091  0.3330
   38MOL    C7613470   5.968   3.340   3.682  0.5006  1.3941 -0.0238
   38MOL    C7713471   5.908   3.221   3.763  0.5159 -0.1334 -0.0913
   38MOL    C7813472   5.843   3.271   3.891 -0.4516  0.3202  0.1172
   38MOL    C7913473   5.774   3.154   3.976 -0.3998  0.1455 -0.2191
   38MOL    C8013474   5.872   3.043   4.008  0.5565 -0.2953 -1.0812
   38MOL    O8113475   5.982   3.096   4.079  0.5270  0.7887  0.3934
   38MOL    H8213476   6.004   3.309   3.584  0.3271 -1.0891  0.6659
   38MOL    H8313477   5.889   3.413   3.663 -0.3007  0.2383 -1.2258
   38MOL    H8413478   5.986   3.147   3.781  0.9435  0.2944 -0.1779
   38MOL    H8513479   5.825   3.172   3.712 -0.5509  2.0380 -0.5029
   38MOL    H8613480   5.776   3.352   3.861  0.8499  0.9824 -1.0249
   38MOL    H8713481   5.915   3.332   3.944  1.1387 -0.5278 -1.0389
   38MOL    H8813482   5.691   3.112   3.920 -0.0928 -0.4537 -0.2323
   38MOL    H8913483   5.734   3.202   4.065  1.7574 -1.5191  1.7240
   38MOL    H9013484   5.832   2.965   4.074  0.6861  0.8633  0.3919
   38MOL    H9113485   5.899   2.990   3.917 -0.9440 -1.2595 -0.9871
   38MOL    C9213486   6.106   3.070   4.027 -0.0010  0.1336 -0.5947
   38MOL    O9313487   6.137   3.012   3.921  0.0708 -0.3110  0.0708
   38MOL    C9413488   6.220   3.121   4.119  0.0548  0.1602 -0.2525
   38MOL    C9513489   6.219   3.271   4.156 -0.2036 -0.1633  0.0831
   38MOL    C9613490   6.300   3.306   4.279  0.1532  0.7866 -0.8163
   38MOL    C9713491   6.447   3.263   4.248  0.0827 -0.6941 -0.5296
   38MOL    C9813492   6.548   3.284   4.361  0.8014 -1.0665 -0.3580
   38MOL    O9913493   6.510   3.208   4.468 -0.1332 -0.2534 -0.3659
   38MOL   H10013494   6.306   3.103   4.055 -1.4211  0.1736 -2.2852
   38MOL   H10113495   6.219   3.054   4.204 -0.7582  0.2836 -0.1580
   38MOL   H10213496   6.115   3.302   4.165 -0.7176 -1.5190 -0.9884
   38MOL   H10313497   6.246   3.332   4.069 -0.6520  1.3588  0.9906
   38MOL   H10413498   6.266   3.252   4.368  0.3356  0.4892 -0.9234
   38MOL   H10513499   6.284   3.413   4.285  0.2640  0.6965  1.4317
   38MOL   H10613500   6.474   3.325   4.163 -0.0688  0.5438  0.3161
   38MOL   H10713501   6.456   3.157   4.225  1.2163 -0.2859 -2.0113
   38MOL   H10813502   6.648   3.281   4.318  1.3597  1.0073  0.7084
   38MOL   H10913503   6.535   3.391   4.380 -0.9543 -1.5560  1.3387
   38MOL   C11013504   6.577   3.216   4.584 -0.4965  0.0763 -0.3531
   38MOL   O11113505   6.683   3.272   4.605  0.4420 -0.2773  1.0034
   38MOL   C11213506   6.512   3.124   4.684 -0.1293 -0.4678  0.4735
   38MOL   C11313507   6.363   3.159   4.729 -0.2511  0.0858  0.0096
   38MOL   C11413508   6.324   3.092   4.865  0.2141 -0.8297  0.0715
   38MOL   C11513509   6.314   2.939   4.867  1.2071 -0.1030  0.1701
   38MOL   C11613510   6.319   2.883   5.008  0.2743 -0.6734 -0.1266
   38MOL   O11713511   6.430   2.940   5.064 -0.5670  0.4365 -0.1937
   38MOL   H11813512   6.568   3.128   4.778 -1.3246  1.9933  1.1263
   38MOL   H11913513   6.526   3.020   4.654 -0.8717 -0.6413  0.7326
   38MOL   H12013514   6.297   3.125   4.649  0.1902  0.1379 -0.3788
   38MOL   H12113515   6.357   3.266   4.749 -2.9210 -0.4564  2.4120
   38MOL   H12213516   6.229   3.129   4.904  0.2480  0.7972 -1.3439
   38MOL   H12313517   6.393   3.128   4.941 -0.4133 -0.3397  0.4133
   38MOL   H12413518   6.384   2.880   4.808 -0.0350  0.0437 -1.4589
   38MOL   H12513519   6.218   2.920   4.820  0.7025  0.4753  0.9515
   38MOL   H12613520   6.242   2.913   5.078  1.4236 -0.7644  1.1925
   38MOL   H12713521   6.317   2.774   4.999 -1.5340 -0.6279 -0.5080
   38MOL   C12813522   6.514   2.860   5.147 -0.0106 -0.7920 -0.1205
   38MOL   O12913523   6.493   2.746   5.183 -0.3963  0.0030 -0.8635
   38MOL   C13013524   6.633   2.931   5.192 -0.0347  0.3040 -0.4349
   38MOL   C13113525   6.698   3.028   5.084 -0.0096  0.0895  0.1519
   38MOL   C13213526   6.678   3.180   5.105  0.5857 -0.3473  0.0392
   38MOL   C13313527   6.770   3.257   5.009 -0.0598  0.7378 -0.0467
   38MOL   C13413528   6.755   3.411   5.009  0.4312  0.6155 -0.0968
   38MOL   O13513529   6.803   3.448   5.133  0.4092  0.0343  0.5876
   38MOL   H13613530   6.704   2.855   5.222 -0.9880 -0.3097  0.3124
   38MOL   H13713531   6.600   2.994   5.275 -0.8603 -0.8904  0.1628
   38MOL   H13813532   6.671   2.989   4.986  1.2262 -0.4913  0.0298
   38MOL   H13913533   6.806   3.010   5.089  0.1038  0.5985 -0.4107
   38MOL   H14013534   6.691   3.207   5.210  1.5870 -2.4165  0.4650
   38MOL   H14113535   6.573   3.203   5.088  0.4343  0.3699  1.7581
   38MOL   H14213536   6.752   3.220   4.908  1.3079 -0.8317  0.2685
   38MOL   H14313537   6.869   3.221   5.034 -0.9043  0.0199  2.4759
   38MOL   H14413538   6.824   3.455   4.938  0.0779  1.5094  0.1081
   38MOL   H14513539   6.661   3.453   4.973  0.2822 -0.7397 -1.3401
   38MOL   C14613540   6.824   3.579   5.158  0.2040  0.2868 -0.5466
   38MOL   O14713541   6.808   3.668   5.080  0.2557  0.4422 -0.5386
   38MOL   C14813542   6.890   3.610   5.287 -0.6051  0.1783 -0.0829
   38MOL   C14913543   6.787   3.616   5.398 -0.1041  0.1644  0.6118
   38MOL   C15013544   6.721   3.743   5.419 -0.4460 -0.7537 -0.2269
   38MOL   C15113545   6.622   3.754   5.543  0.3760  0.2191  0.5731
   38MOL   C15213546   6.531   3.881   5.529  0.1120 -0.0755 -0.1237
   38MOL   O15313547   6.612   3.997   5.546 -0.5274 -0.0759  0.0407
   38MOL   H15413548   6.945   3.704   5.284 -2.3885  1.2599  0.4103
   38MOL   H15513549   6.961   3.528   5.298  0.6394  1.4296  1.4533
   38MOL   H15613550   6.834   3.582   5.491 -1.8182 -0.7177  1.2034
   38MOL   H15713551   6.713   3.538   5.377 -0.2944  0.1026  1.4575
   38MOL   H15813552   6.652   3.767   5.338 -1.6335  2.0714  1.5649
   38MOL   H15913553   6.800   3.817   5.416 -2.5253  1.6475  1.9127
   38MOL   H16013554   6.666   3.761   5.643  1.4478  0.3716  0.0932
   38MOL   H16113555   6.558   3.666   5.550 -0.2373  0.5921 -0.2806
   38MOL   H16213556   6.477   3.872   5.435 -0.8051  1.3670  0.2618
   38MOL   H16313557   6.457   3.871   5.608  1.5238  0.4295  1.2852
   38MOL   C16413558   6.560   4.098   5.618  0.2600 -0.1598  0.2173
   38MOL   O16513559   6.441   4.105   5.654 -0.3012 -0.3082 -0.2266
   38MOL   C16613560   6.657   4.218   5.639  0.2395 -0.1229  1.1437
   38MOL   C16713561   6.805   4.180   5.688 -0.1041  0.3275 -0.4436
   38MOL   C16813562   6.816   4.105   5.815 -0.1092 -0.5885 -0.1455
   38MOL   C16913563   6.960   4.064   5.840  0.3144  0.4615 -0.1664
   38MOL   C17013564   6.980   3.963   5.960  0.4891  0.3198 -0.0774
   38MOL   O17113565   7.116   3.946   5.974 -0.1730  0.1531 -0.0129
   38MOL   H17213566   6.620   4.286   5.715  1.3050  1.5987  0.1738
   38MOL   H17313567   6.660   4.271   5.544 -3.3711 -2.4723 -0.3533
   38MOL   H17413568   6.853   4.278   5.695 -0.1187  0.3233 -0.2998
   38MOL   H17513569   6.875   4.134   5.618 -0.4077  0.4174 -0.8046
   38MOL   H17613570   6.747   4.020   5.815  0.4304 -1.0316  0.5803
   38MOL   H17713571   6.778   4.156   5.903  0.3217  0.9289 -0.8285
   38MOL   H17813572   7.024   4.150   5.860  0.8339 -0.1539  0.8746
   38MOL   H17913573   6.995   4.028   5.743 -0.5986 -0.2138 -0.2569
   38MOL   H18013574   6.935   4.016   6.045 -0.6283  0.7296 -0.9095
   38MOL   H18113575   6.918   3.874   5.947  0.7850  0.1885 -0.6055
   38MOL   C18213576   7.169   3.838   6.041 -0.8110 -0.0196  0.5980
   38MOL   O18313577   7.109   3.763   6.116  0.3145  0.0032 -0.9772
   38MOL   C18413578   7.322   3.816   6.026 -0.2053 -0.8887  0.5224
   38MOL   C18513579   7.364   3.672   6.016 -0.1550  0.6029  0.4935
   38MOL   C18613580   7.503   3.662   5.953  0.0635  0.2840 -0.1256
   38MOL   C18713581   7.628   3.659   6.043 -0.4537  0.1722 -0.6536
   38MOL   C18813582   7.754   3.612   5.968  1.0935 -0.5012 -0.3048
   38MOL   O18913583   0.025   3.628   6.049 -0.7844  0.7711 -0.0626
   38MOL   H19013584   7.354   3.860   6.121 -2.3241  2.0181 -0.0453
   38MOL   H19113585   7.356   3.874   5.940  0.7949 -3.6677 -1.0047
   38MOL   H19213586   7.300   3.608   5.955  0.3380  1.0506 -0.5143
   38MOL   H19313587   7.360   3.624   6.114  1.5042  0.1880  0.3801
   38MOL   H19413588   7.516   3.738   5.876  0.1322 -0.9703 -1.3569
   38MOL   H19513589   7.508   3.563   5.907 -0.5750 -0.7356  1.9412
   38MOL   H19613590   7.602   3.590   6.124  0.3553  0.3485 -0.2308
   38MOL   H19713591   7.647   3.758   6.085 -0.3235  1.0000 -2.6063
   38MOL   H19813592   7.745   3.508   5.937  1.2893 -0.4681 -0.4774
   38MOL   H19913593   7.760   3.671   5.877  0.7818  2.4280  1.5149
   38MOL   C20013594   0.049   3.527   6.132 -0.7919  0.0842  0.5570
   38MOL   O20113595   7.844   3.414   6.128  0.1462 -0.4585  0.0959
   38MOL   C20213596   0.149   3.575   6.233  0.2271  0.1700  0.4524
   38MOL   C20313597   0.084   3.665   6.333  0.3864  0.5486 -0.5579
   38MOL   C20413598   7.809   3.620   6.421  0.1162 -0.6135  0.2288
   38MOL   C20513599   7.734   3.712   6.502 -0.5986 -0.0893 -0.0489
   38MOL   C20613600   7.641   3.816   6.433  0.0334 -0.5235  0.4028
   38MOL   O20713601   7.594   3.915   6.522 -0.3057 -1.0625 -0.3949
   38MOL   H20813602   0.219   3.645   6.187  1.4886 -0.8171  0.8120
   38MOL   H20913603   0.212   3.493   6.270  0.2162 -0.7726 -1.5466
   38MOL   H21013604   0.063   3.763   6.290  0.5799 -0.3872 -2.8545
   38MOL   H21113605   0.162   3.694   6.403  0.1400 -0.3993  0.1171
   38MOL   H21213606   0.003   3.546   6.492  0.7332  0.6995  1.2813
   38MOL   H21313607   7.742   3.555   6.364 -0.3885  0.0759  0.0264
   38MOL   H21413608   7.789   3.760   6.582 -0.4724 -1.5018  0.7266
   38MOL   H21513609   7.666   3.655   6.565 -4.4069  0.8218 -3.1298
   38MOL   H21613610   7.682   3.862   6.344 -0.1618 -2.3153 -0.6464
   38MOL   H21713611   7.542   3.776   6.409 -0.5467  0.0896  1.7379
   38MOL   C21813612   7.534   4.027   6.481 -0.5506 -0.1915  0.1798
   38MOL   O21913613   7.503   4.052   6.363  0.0494  0.4636 -0.9943
   38MOL   C22013614   7.510   4.128   6.599  0.8162 -0.7415  0.1169
   38MOL   C22113615   7.446   4.060   6.726 -0.1903 -0.3103 -0.0884
   38MOL   C22213616   7.435   4.161   6.844  0.0516  0.0350  0.9754
   38MOL   C22313617   7.347   4.122   6.954  0.7961  0.0185 -0.3030
   38MOL   C22413618   7.363   4.185   7.092 -0.1208 -0.1929  0.7595
   38MOL   O22513619   7.293   4.112   7.200 -0.0765  0.1022  0.1255
   38MOL   H22613620   7.448   4.210   6.563  1.7420  0.8418  2.0508
   38MOL   H22713621   7.608   4.174   6.613  0.2212  0.5034  0.2153
   38MOL   H22813622   7.513   3.981   6.761 -1.0142 -1.4683 -1.0819
   38MOL   H22913623   7.349   4.025   6.692 -0.9002  2.3508 -0.9409
   38MOL   H23013624   7.387   4.253   6.811  0.0066 -0.0259  0.8702
   38MOL   H23113625   7.534   4.194   6.875  0.3522 -0.7770  0.9217
   38MOL   H23213626   7.345   4.013   6.957 -0.3818 -0.0623 -2.6042
   38MOL   H23313627   7.248   4.143   6.913  0.9590 -1.4274 -1.4995
   38MOL   H23413628   7.472   4.196   7.095  0.0114 -0.6639 -1.7225
   38MOL   H23513629   7.321   4.284   7.080  1.8091  0.4482 -0.9700
   38MOL   C23613630   7.352   4.007   7.257 -0.8593  0.7048  0.1138
   38MOL   O23713631   7.465   3.960   7.235 -0.1097  0.3569 -0.2257
   38MOL   C23813632   7.263   3.946   7.370 -0.1174 -0.2048 -0.3228
   38MOL   C23913633   7.350   3.864   7.471 -0.1391 -0.1489  0.1034
   38MOL   C24013634   7.270   3.800   7.580  0.6846  0.0034 -0.1798
   38MOL   C24113635   7.363   3.724   7.677  0.6682  0.7903 -0.0702
   38MOL   C24213636   7.288   3.638   7.782  0.2203  0.1862 -0.3412
   38MOL   O24313637   7.211   3.724   0.023 -0.0643  0.8450  0.5265
   38MOL   H24413638   7.191   3.879   7.324  1.2766 -1.2514 -1.0044
   38MOL   H24513639   7.212   4.027   7.424  2.2777  0.2470  1.3341
   38MOL   H24613640   7.413   3.936   7.524  1.0238 -1.4381  0.5120
   38MOL   H24713641   7.415   3.791   7.423 -0.6997 -1.2516  1.0113
   38MOL   H24813642   7.190   3.733   7.548  0.8934 -0.3469  0.0349
   38MOL   H24913643   7.221   3.876   7.640  0.1233 -0.1981 -0.3834
   38MOL   H25013644   7.435   3.793   7.721 -0.1880  1.1283  0.8268
   38MOL   H25113645   7.421   3.650   7.622 -0.9877 -1.5339  1.2466
   38MOL   H25213646   7.225   3.560   7.739 -3.2715  1.4442  2.2507
   38MOL   H25313647   7.351   3.587   0.010 -1.4287 -0.1536  0.8930
   38MOL   C25413648   7.107   3.684   0.089  0.0664 -0.3290  0.1767
   38MOL   O25513649   7.049   3.580   0.073 -0.1576 -0.5146  0.3176
   38MOL   C25613650   7.061   3.791   0.189 -0.1205  1.1994  0.4204
   38MOL   C25713651   6.980   3.894   0.114 -0.5326 -0.1586  0.3512
   38MOL   C25813652   6.899   3.989   0.198  0.5665 -0.2971 -0.0795
   38MOL   C25913653   6.778   3.926   0.280 -0.3371 -0.1598 -0.3774
   38MOL   C26013654   6.742   4.009   0.399 -0.2628  0.6067  0.4453
   38MOL   O26113655   6.844   3.985   0.496  0.3909  0.0738  0.4701
   38MOL   H26213656   7.138   3.849   0.238  1.9472 -1.0887 -0.0150
   38MOL   H26313657   7.000   3.735   0.260 -1.6855  0.1385 -1.6870
   38MOL   H26413658   6.910   3.845   0.045  0.0191  0.7510 -0.8709
   38MOL   H26513659   7.042   3.960   0.053  1.6519 -0.9053  1.7326
   38MOL   H26613660   6.873   4.079   0.143  0.4900  0.7631  1.6465
   38MOL   H26713661   6.966   4.040   0.267  0.7250  1.7052 -1.6825
   38MOL   H26813662   6.800   3.827   0.320  2.2871  0.5229 -0.0257
   38MOL   H26913663   6.688   3.916   0.219 -1.4480  2.9279  0.6567
   38MOL   H27013664   6.722   4.114   0.378 -0.3297  0.3826 -0.6286
   38MOL   H27113665   6.651   3.957   0.430  0.0998 -0.0145  0.4814
   38MOL   C27213666   6.882   4.084   0.573  0.1752  0.1507 -0.9421
   38MOL   O27313667   6.815   4.188   0.588 -0.1453  0.2516 -0.8254
   38MOL   C27413668   6.998   4.058   0.666  0.0485  0.6596  0.5102
   38MOL   C27513669   7.121   4.002   0.593  0.6548  0.5776  0.0176
   38MOL   C27613670   7.241   4.002   0.693 -0.6642  0.3001 -0.3750
   38MOL   C27713671   7.371   3.937   0.649 -0.2010 -0.5363  0.2579
   38MOL   C27813672   7.440   3.857   0.765 -0.1178 -0.2870 -0.8569
   38MOL   O27913673   7.565   3.806   0.726  0.7503  0.1701  0.1837
   38MOL   H28013674   6.958   3.994   0.745 -1.0474  2.5435  1.5197
   38MOL   H28113675   7.028   4.155   0.705 -1.1411  2.1008 -2.0103
   38MOL   H28213676   7.142   4.059   0.503 -0.5068 -0.9011 -1.2319
   38MOL   H28313677   7.098   3.904   0.551  1.1764  0.2876  0.4043
   38MOL   H28413678   7.202   3.952   0.781 -1.8851 -0.2505 -1.2199
   38MOL   H28513679   7.255   4.106   0.720 -1.0682  0.3343 -0.2984
   38MOL   H28613680   7.441   4.015   0.618 -0.6060  0.0085  0.7041
   38MOL   H28713681   7.353   3.863   0.571 -1.6661 -1.1200  1.1364
   38MOL   H28813682   7.452   3.923   0.850 -0.0706 -0.3409 -0.8219
   38MOL   H28913683   7.376   3.774   0.795 -0.2819 -0.4171 -1.5622
   38MOL   C29013684   7.615   3.692   0.778 -0.3749  0.3147  0.5007
   38MOL   O29113685   7.551   3.619   0.857 -0.0277 -0.1526  0.3805
   38MOL   C29213686   7.755   3.665   0.716  0.0346  0.5256 -0.8055
   38MOL   C29313687   0.018   3.755   0.786 -0.4254 -0.1815 -0.1716
   38MOL   C29413688   0.054   3.724   0.938 -0.6359  0.6750 -0.2919
   38MOL   C29513689   0.152   3.830   0.999 -0.4373 -0.3828  0.3123
   38MOL   C29613690   0.170   3.824   1.160 -0.5506 -0.8463  0.0468
   38MOL   O29713691   0.242   3.705   1.195  0.2950 -0.4126  0.4860
   38MOL   H29813692   7.755   3.695   0.611  0.7955  0.0986 -0.9370
   38MOL   H29913693   7.771   3.557   0.717  0.6490  0.6182 -0.0879
   38MOL   H30013694   7.829   3.858   0.782  0.0131 -0.0029  0.6222
   38MOL   H30113695   0.116   3.750   0.738  0.2971 -1.2523  1.3787
   38MOL   H30213696   0.085   3.620   0.941 -2.1626  0.2208 -0.0879
   38MOL   H30313697   7.806   3.718   0.995 -0.9354  3.5581 -0.3514
   38MOL   H30413698   0.111   3.930   0.989  1.2902  0.1922 -1.5192
   38MOL   H30513699   0.244   3.823   0.941  0.3248  0.5860  1.3677
   38MOL   H30613700   0.206   3.918   1.201  0.4733 -0.9280 -0.6447
   38MOL   H30713701   0.071   3.819   1.205 -0.6061 -3.9813 -0.2909
   38MOL   C30813702   0.374   3.711   1.217 -0.1692  0.0952  0.1276
   38MOL   O30913703   0.432   3.822   1.219 -0.1053  0.5572 -0.2521
   38MOL   C31013704   0.451   3.575   1.250 -0.5111  0.6434 -0.0364
   38MOL   C31113705   0.419   3.452   1.163 -0.2782  0.3073 -0.1241
   38MOL   C31213706   0.392   3.475   1.005 -0.4805 -0.6448 -0.4450
   38MOL   C31313707   0.372   3.335   0.941  0.5635  0.6256  0.3402
   38MOL   C31413708   0.287   3.345   0.813 -0.0966  0.3390  0.4776
   38MOL   O31513709   0.252   3.218   0.756  0.5356 -0.2231 -1.3512
   38MOL   H31613710   0.422   3.550   1.353 -1.1181 -1.4422 -0.6982
   38MOL   H31713711   0.559   3.578   1.242 -0.5640  0.2870 -0.8196
   38MOL   H31813712   0.332   3.403   1.206  0.2205  0.1443  0.6998
   38MOL   H31913713   0.504   3.387   1.184  0.4201  1.5283  0.9099
   38MOL   H32013714   0.479   3.526   0.962 -1.1791  1.0271  0.1159
   38MOL   H32113715   0.307   3.541   0.989  0.0942  0.1014 -0.4251
   38MOL   H32213716   0.317   3.274   1.013 -0.5761  0.2446 -0.8371
   38MOL   H32313717   0.472   3.295   0.925  0.1668 -0.0578 -0.4713
   38MOL   H32413718   0.196   3.394   0.848 -0.7914 -1.0091  0.5711
   38MOL   H32513719   0.316   3.417   0.736  3.2709 -1.3520  0.0457
   38MOL   C32613720   0.121   3.177   0.759  0.8916 -1.0201  0.6971
   38MOL   O32713721   0.022   3.251   0.789 -0.1287 -0.4311 -0.0834
   38MOL   C32813722   0.111   3.030   0.719  0.2320 -0.0095  0.2829
   38MOL   C32913723   0.211   2.925   0.766 -0.3569 -0.2096  0.7133
   38MOL   C33013724   0.182   2.886   0.916 -0.1406 -0.1895  0.3228
   38MOL   C33113725   0.273   2.769   0.958 -0.1798 -0.5112  0.3908
   38MOL   C33213726   0.218   2.694   1.074 -1.1979  0.0630 -1.0455
   38MOL   O33313727   0.303   2.587   1.105 -0.1259  0.0089 -0.2838
   38MOL   H33413728   0.109   3.026   0.610 -1.1687 -2.9820  0.3650
   38MOL   H33513729   0.020   2.988   0.762  1.7893  0.1894  4.0163
   38MOL   H33613730   0.312   2.966   0.756 -1.1089  1.2987 -0.7467
   38MOL   H33713731   0.201   2.841   0.698 -1.8769  0.9127 -0.4920
   38MOL   H33813732   0.076   2.861   0.920 -0.0616 -0.3085  1.7786
   38MOL   H33913733   0.203   2.965   0.988  0.4781 -1.5181  1.6269
   38MOL   H34013734   0.368   2.816   0.981  0.6523 -1.6620 -0.6142
   38MOL   H34113735   0.277   2.699   0.874 -1.7327 -0.2348  0.0732
   38MOL   H34213736   0.196   2.768   1.151 -1.8435 -0.1921 -0.9820
   38MOL   H34313737   0.124   2.646   1.046 -1.6842  0.6696 -0.4824
   38MOL   C34413738   0.387   2.585   1.214 -0.0604  0.0520  0.3247
   38MOL   O34513739   0.399   2.667   1.303 -0.0873  0.1745  0.4825
   38MOL   C34613740   0.486   2.471   1.200 -0.2120 -0.6742 -0.0028
   38MOL   C34713741   0.630   2.520   1.199  0.6870 -0.1002  0.4322
   38MOL   C34813742   0.671   2.593   1.069  0.6780  0.2948 -0.2124
   38MOL   C34913743   0.821   2.614   1.059 -0.0655 -0.3290 -0.4404
   38MOL   C35013744   0.875   2.655   0.920  0.3618  0.6733  0.2086
   38MOL   O35113745   0.830   2.564   0.827 -0.2615  0.9161 -0.4803
   38MOL   H35213746   0.450   2.408   1.118  2.2025 -1.6811 -0.3318
   38MOL   H35313747   0.471   2.414   1.292  0.6098  0.2411  0.6970
   38MOL   H35413748   0.687   2.427   1.204 -0.5115 -0.8453  0.4853
   38MOL   H35513749   0.660   2.574   1.288 -0.6556 -1.3471  1.6617
   38MOL   H35613750   0.616   2.685   1.049 -0.3612 -0.5871 -1.5157
   38MOL   H35713751   0.634   2.535   0.984 -1.3491 -1.5439  1.8499
   38MOL   H35813752   0.867   2.521   1.093  1.3688  0.6265  0.3386
   38MOL   H35913753   0.842   2.689   1.136  0.0175 -1.8273  1.0246
   38MOL   H36013754   0.833   2.751   0.888  0.4167  0.4545 -0.5173
   38MOL   H36113755   0.983   2.663   0.905  0.3557 -1.6805 -1.2573
   38MOL   H36213756   0.752   2.602   0.790  0.8339  1.6283 -2.1028
   39MOL     C113757   7.014   6.699   4.650  0.2461  0.1187  0.1299
   39MOL     O213758   7.128   6.717   4.695  0.5042  0.1166  0.0455
   39MOL     C313759   6.979   6.621   4.519  0.0811  0.3898 -0.0316
   39MOL     C413760   7.080   6.622   4.413  0.7264  0.2525 -0.2671
   39MOL     C513761   7.018   6.549   4.294  0.3787  0.0563 -0.0647
   39MOL     C613762   7.129   6.524   4.189  0.4742 -0.1029  0.0587
   39MOL     C713763   7.070   6.463   4.066 -0.2620  0.2346  0.7414
   39MOL     O813764   7.182   6.444   3.981 -0.1938  0.1549  0.1473
   39MOL     H913765   6.878   6.650   4.492 -0.2819 -2.1166 -1.5811
   39MOL    H1013766   6.956   6.520   4.553  0.9098  0.2896  0.2468
   39MOL    H1113767   7.169   6.568   4.444 -0.5129 -1.6447  0.0615
   39MOL    H1213768   7.094   6.725   4.379  0.4844  0.3280 -0.1419
   39MOL    H1313769   6.936   6.607   4.251 -3.2529 -5.3110 -0.9272
   39MOL    H1413770   6.974   6.453   4.320  1.1156  0.1417  1.5318
   39MOL    H1513771   7.206   6.460   4.232  0.7418 -0.4153 -0.8733
   39MOL    H1613772   7.174   6.619   4.161  2.2060 -0.6696  0.8361
   39MOL    H1713773   7.011   6.373   4.081 -0.0631  0.4023  2.6609
   39MOL    H1813774   7.009   6.529   4.004  1.0120  1.7731  1.0814
   39MOL    H1913775   6.934   6.743   4.709  2.5797  1.1964  2.5932
   39MOL    C2013776   7.196   6.341   3.913 -0.7168 -0.2544 -0.3438
   39MOL    O2113777   7.117   6.246   3.907  0.0868  0.4212  0.0067
   39MOL    C2213778   7.331   6.339   3.836 -0.4190  0.6219 -0.6035
   39MOL    C2313779   7.322   6.242   3.711 -0.5685  0.4518  0.7234
   39MOL    C2413780   7.457   6.226   3.636  0.4284 -0.4185 -0.6186
   39MOL    C2513781   7.444   6.123   3.518  0.3556  0.5885 -0.5306
   39MOL    C2613782   7.579   6.098   3.446  0.1607 -0.3298  0.1757
   39MOL    O2713783   7.561   5.975   3.374 -0.7709  0.4321 -0.2861
   39MOL    H2813784   7.408   6.300   3.903 -0.6393  1.6259  0.2432
   39MOL    H2913785   7.358   6.439   3.803 -1.5263  0.3343 -2.4738
   39MOL    H3013786   7.241   6.284   3.650  0.0850  1.4159  0.5025
   39MOL    H3113787   7.282   6.146   3.742 -0.0459 -0.1709 -0.4775
   39MOL    H3213788   7.532   6.202   3.711  0.4000  0.4125 -0.3176
   39MOL    H3313789   7.476   6.329   3.606  0.0900  0.0031  0.5728
   39MOL    H3413790   7.362   6.157   3.454 -0.5518 -1.2799 -0.3872
   39MOL    H3513791   7.408   6.031   3.564 -2.1705  1.1264 -1.3449
   39MOL    H3613792   7.597   6.183   3.380  0.4434 -0.8089 -0.3670
   39MOL    H3713793   7.664   6.107   3.513  1.1922  2.4403 -1.3944
   39MOL    C3813794   7.626   5.869   3.422 -0.2512 -0.3189  0.0470
   39MOL    O3913795   7.703   5.873   3.520 -0.2389 -0.4386  0.0166
   39MOL    C4013796   7.598   5.736   3.360  0.8179  0.0077 -0.3289
   39MOL    C4113797   7.661   5.719   3.221  0.3793 -0.0181 -0.2063
   39MOL    C4213798   7.792   5.638   3.228 -0.5814  0.1784  0.7591
   39MOL    C4313799   0.014   5.634   3.079  0.2880 -0.5346 -0.1675
   39MOL    C4413800   0.150   5.564   3.060 -0.8426  0.1709  0.2720
   39MOL    O4513801   0.133   5.426   3.086 -0.2650 -0.1020  0.1646
   39MOL    H4613802   7.492   5.719   3.341  0.8448 -1.0709  0.4432
   39MOL    H4713803   7.627   5.654   3.425  0.9057  0.4248  0.1666
   39MOL    H4813804   7.691   5.814   3.177  0.5788 -0.2786 -0.6327
   39MOL    H4913805   7.606   5.657   3.151  0.0240 -0.8245  0.7740
   39MOL    H5013806   7.773   5.534   3.255  0.6740 -0.2452  0.0503
   39MOL    H5113807   0.025   5.671   3.297  0.8706 -0.5231 -0.4876
   39MOL    H5213808   0.037   5.736   3.046 -0.0864 -1.0303 -1.9858
   39MOL    H5313809   7.788   5.596   3.006  0.3119 -0.2368 -0.3486
   39MOL    H5413810   0.183   5.575   2.957 -0.2500 -0.2568  0.4142
   39MOL    H5513811   0.233   5.610   3.114  1.0807 -0.6555 -1.8882
   39MOL    C5613812   0.178   5.376   3.203 -0.0614  0.6458 -0.0067
   39MOL    O5713813   0.259   5.432   3.279  0.2193 -0.2925  0.6261
   39MOL    C5813814   0.131   5.231   3.218 -0.5112  0.0443  0.8876
   39MOL    C5913815   0.202   5.151   3.327 -0.3114 -0.6685 -0.4466
   39MOL    C6013816   0.355   5.116   3.296 -0.4984 -0.0156  0.0727
   39MOL    C6113817   0.438   5.038   3.405  0.0806 -0.0055  0.3891
   39MOL    C6213818   0.366   4.911   3.451  0.2221 -0.2492  0.3781
   39MOL    O6313819   0.415   4.837   3.560 -0.4943  0.5473 -0.5094
   39MOL    H6413820   0.135   5.181   3.122  0.4952  1.3869  0.2252
   39MOL    H6513821   0.025   5.230   3.245 -1.0751 -0.9683 -1.2904
   39MOL    H6613822   0.143   5.059   3.329 -0.7832 -0.3449  1.0433
   39MOL    H6713823   0.176   5.203   3.419 -1.0388  1.6942 -1.9513
   39MOL    H6813824   0.400   5.211   3.267 -1.9630  0.7703  0.3283
   39MOL    H6913825   0.351   5.056   3.205 -2.2592  1.2050 -0.6916
   39MOL    H7013826   0.442   5.112   3.484 -1.3566  1.2981 -0.7202
   39MOL    H7113827   0.539   5.022   3.367  0.5075  2.2833  0.4598
   39MOL    H7213828   0.270   4.954   3.480  1.1070  1.9455  0.1555
   39MOL    H7313829   0.340   4.849   3.365  2.6056 -0.8745  0.0511
   39MOL    C7413830   0.399   4.702   3.559  0.8655  0.0395  1.0061
   39MOL    O7513831   0.308   4.646   3.492  0.1045 -0.4372 -0.3635
   39MOL    C7613832   0.465   4.627   3.673 -0.0717  0.0520 -0.1834
   39MOL    C7713833   0.612   4.673   3.705 -0.5632  0.2802 -0.5185
   39MOL    C7813834   0.602   4.797   3.800 -0.0073  0.1548  0.4007
   39MOL    C7913835   0.743   4.833   3.845 -0.2084 -0.4282  0.2782
   39MOL    C8013836   0.738   4.971   3.916 -0.1373 -0.3240 -0.4756
   39MOL    O8113837   0.865   4.984   3.975  0.3766 -0.3418 -0.1096
   39MOL    H8213838   0.473   4.528   3.628 -1.4302 -0.2941  0.3057
   39MOL    H8313839   0.405   4.626   3.764 -0.5831  1.0858 -0.5022
   39MOL    H8413840   0.653   4.706   3.610 -0.8719  0.6013 -0.5429
   39MOL    H8513841   0.667   4.593   3.755  0.7540  0.4961 -1.6144
   39MOL    H8613842   0.543   4.773   3.888 -0.0511 -0.0205  0.3233
   39MOL    H8713843   0.561   4.883   3.747 -0.0530  0.1219  0.3827
   39MOL    H8813844   0.810   4.839   3.759 -0.7105 -0.0984 -0.0947
   39MOL    H8913845   0.782   4.752   3.906  1.0672  0.0142  0.0545
   39MOL    H9013846   0.722   5.056   3.850  0.2486  0.0455 -0.0924
   39MOL    H9113847   0.658   4.975   3.990  0.8750  0.5870  0.5852
   39MOL    C9213848   0.885   5.081   4.065 -0.0299  0.0476 -0.0397
   39MOL    O9313849   0.794   5.143   4.117  0.1427  0.1178 -0.0176
   39MOL    C9413850   1.034   5.096   4.101 -0.2329 -0.0344  0.5993
   39MOL    C9513851   1.096   4.960   4.130 -0.2633 -0.2205  0.0701
   39MOL    C9613852   1.042   4.876   4.252  1.0026  1.0229 -0.4790
   39MOL    C9713853   1.077   4.939   4.390 -0.4244  0.4607 -0.3203
   39MOL    C9813854   1.002   4.878   4.506 -0.4017  0.4515 -0.0991
   39MOL    O9913855   1.051   4.742   4.520  0.5021 -0.2391 -0.5549
   39MOL   H10013856   1.038   5.166   4.184  1.5859  1.1881 -0.4810
   39MOL   H10113857   1.088   5.141   4.017  0.5508 -3.0297 -0.5747
   39MOL   H10213858   1.203   4.980   4.139 -0.7609  1.9150  1.3545
   39MOL   H10313859   1.083   4.899   4.040 -0.0485 -1.1103  0.6322
   39MOL   H10413860   1.089   4.779   4.248 -1.8936 -0.5678  2.0017
   39MOL   H10513861   0.936   4.855   4.238  0.7464  0.2446  2.3177
   39MOL   H10613862   1.062   5.046   4.395  0.4452  0.5156  2.0489
   39MOL   H10713863   1.185   4.925   4.398 -0.3038  1.3076 -0.5125
   39MOL   H10813864   1.025   4.938   4.594  2.2002 -0.3724 -0.1684
   39MOL   H10913865   0.897   4.877   4.478 -0.5428 -1.0571  0.4438
   39MOL   C11013866   0.966   4.647   4.540 -0.2745  0.2779 -0.4749
   39MOL   O11113867   0.839   4.658   4.555  0.2804 -0.5843 -0.0925
   39MOL   C11213868   1.031   4.507   4.531  0.1732  0.0346 -0.2979
   39MOL   C11313869   0.999   4.418   4.411  0.2436 -0.0976 -0.1112
   39MOL   C11413870   1.036   4.474   4.270  0.4222 -0.6120 -0.1719
   39MOL   C11513871   1.009   4.364   4.162  0.1009 -0.1102  0.5126
   39MOL   C11613872   0.966   4.429   4.031 -0.3994 -0.9289  0.3540
   39MOL   O11713873   1.054   4.540   3.993  0.4791  0.0548 -0.0163
   39MOL   H11813874   1.002   4.453   4.622  2.3826  0.4065  0.6499
   39MOL   H11913875   1.139   4.517   4.535  0.2049 -0.5003  0.2978
   39MOL   H12013876   0.893   4.394   4.422  0.1910  0.8547  1.6518
   39MOL   H12113877   1.058   4.329   4.429 -0.0904 -0.1199  0.9024
   39MOL   H12213878   1.143   4.490   4.259  0.8228 -0.4039  3.3036
   39MOL   H12313879   0.998   4.574   4.247  2.1570 -0.0329 -0.6323
   39MOL   H12413880   0.931   4.298   4.201  0.2880  0.7455  2.4068
   39MOL   H12513881   1.101   4.307   4.153  0.6524  0.7844  0.4451
   39MOL   H12613882   0.944   4.361   3.949 -0.4775 -1.1169  0.5308
   39MOL   H12713883   0.869   4.475   4.048 -0.5255 -1.3388  0.7416
   39MOL   C12813884   1.039   4.596   3.879  0.5673 -0.3454  0.9678
   39MOL   O12913885   0.946   4.583   3.799 -0.1693  0.3656 -0.3001
   39MOL   C13013886   1.159   4.685   3.847 -0.1900 -0.4165 -0.0407
   39MOL   C13113887   1.149   4.789   3.731  0.2215  0.1127  0.4399
   39MOL   C13213888   1.289   4.850   3.705  0.7762  0.1538  0.4573
   39MOL   C13313889   1.311   4.981   3.782 -0.4495 -0.6768 -0.6894
   39MOL   C13413890   1.451   5.035   3.753  0.0288  0.1663  0.6249
   39MOL   O13513891   1.482   5.153   3.834  0.3174  0.2386  0.4638
   39MOL   H13613892   1.238   4.614   3.823  1.1032  1.6881 -2.3120
   39MOL   H13713893   1.211   4.735   3.929 -0.9107 -0.6040  0.5349
   39MOL   H13813894   1.060   4.852   3.740 -0.6947 -1.1368  0.3534
   39MOL   H13913895   1.121   4.725   3.647  0.1425  4.5013 -3.0471
   39MOL   H14013896   1.305   4.875   3.600  0.2207 -2.2935 -0.2365
   39MOL   H14113897   1.370   4.780   3.723 -0.4906 -1.8009 -1.2263
   39MOL   H14213898   1.311   4.949   3.886 -0.9301 -1.8373 -1.0391
   39MOL   H14313899   1.225   5.046   3.769 -0.4539 -0.4689  0.3320
   39MOL   H14413900   1.524   4.960   3.783 -1.5394 -1.1234  1.3067
   39MOL   H14513901   1.462   5.060   3.648  0.1884 -1.3002  0.2808
   39MOL   C14613902   1.498   5.272   3.786 -0.0103 -0.2041 -0.2058
   39MOL   O14713903   1.480   5.309   3.664  0.9451  0.1482 -0.2222
   39MOL   C14813904   1.518   5.380   3.890 -0.4145 -0.0699  0.3744
   39MOL   C14913905   1.392   5.412   3.973 -0.1981 -0.3975 -0.2377
   39MOL   C15013906   1.434   5.518   4.080 -0.0270 -0.1510 -0.4135
   39MOL   C15113907   1.491   5.456   4.210 -0.5673 -0.1295 -0.7035
   39MOL   C15213908   1.523   5.570   4.309  0.4794 -0.3597 -0.3844
   39MOL   O15313909   1.625   5.646   4.261  0.3355  0.1651  0.7124
   39MOL   H15413910   1.556   5.470   3.842 -0.3029 -1.2392 -1.7717
   39MOL   H15513911   1.599   5.336   3.949  0.5466  0.0118 -0.8718
   39MOL   H15613912   1.360   5.325   4.030  0.6770 -0.4853  0.1239
   39MOL   H15713913   1.307   5.455   3.920 -0.4707  1.3139  1.5308
   39MOL   H15813914   1.345   5.565   4.121  1.7413  1.7418  1.4264
   39MOL   H15913915   1.497   5.598   4.043  2.4573 -0.8869  2.0109
   39MOL   H16013916   1.591   5.423   4.184 -0.0165  2.1318 -1.6002
   39MOL   H16113917   1.424   5.380   4.249  0.4356 -1.5360 -1.6777
   39MOL   H16213918   1.437   5.635   4.324  1.7998  1.3130  0.0321
   39MOL   H16313919   1.552   5.517   4.400  1.4113 -0.2200 -0.5956
   39MOL   C16413920   1.737   5.667   4.324  0.4083 -0.7652  0.1574
   39MOL   O16513921   1.757   5.624   4.437  0.1757  0.5183  0.0427
   39MOL   C16613922   1.834   5.757   4.258  0.1890 -0.3376 -0.3993
   39MOL   C16713923   1.771   5.859   4.156 -0.7875 -1.0988  0.1694
   39MOL   C16813924   1.709   5.981   4.223  0.5368  0.4145 -0.1226
   39MOL   C16913925   1.705   6.101   4.132  0.4268 -0.0213  0.8400
   39MOL   C17013926   1.658   6.229   4.212  0.2146 -0.0652 -0.1731
   39MOL   O17113927   1.525   6.214   4.261  0.3211 -0.3749  0.1484
   39MOL   H17213928   1.908   5.688   4.216  0.4317  0.9365 -2.1250
   39MOL   H17313929   1.888   5.816   4.331 -1.5180 -0.4579  0.9831
   39MOL   H17413930   1.704   5.809   4.086  0.1068 -0.2527 -1.3212
   39MOL   H17513931   1.853   5.894   4.093 -1.0638 -0.6035  0.0846
   39MOL   H17613932   1.738   6.003   4.326  2.8445 -0.0145 -0.6415
   39MOL   H17713933   1.606   5.953   4.242  0.8711 -0.7640  0.0044
   39MOL   H17813934   1.627   6.089   4.057 -0.7025  1.6087  1.7121
   39MOL   H17913935   1.805   6.112   4.090 -0.2956  0.2042 -0.8283
   39MOL   H18013936   1.725   6.254   4.295 -0.6122  1.2353  0.1269
   39MOL   H18113937   1.668   6.308   4.137 -3.2550  1.0218  0.4141
   39MOL   C18213938   1.448   6.314   4.276 -0.2625  0.3881  0.1805
   39MOL   O18313939   1.480   6.432   4.258 -0.7180 -0.4621 -0.1767
   39MOL   C18413940   1.306   6.277   4.332  0.7707 -0.1665 -0.0707
   39MOL   C18513941   1.227   6.377   4.416 -0.6040 -0.1258  0.3877
   39MOL   C18613942   1.087   6.328   4.446  0.6840  0.6671  0.1198
   39MOL   C18713943   1.078   6.234   4.569 -0.0176  0.8699 -0.2982
   39MOL   C18813944   0.952   6.161   4.584 -0.3469 -0.2437  0.3281
   39MOL   O18913945   0.851   6.256   4.611  0.4339 -0.3810  0.2610
   39MOL   H19013946   1.311   6.181   4.382  0.3923 -1.2226 -2.0029
   39MOL   H19113947   1.239   6.251   4.249  0.6956 -0.0785 -0.0371
   39MOL   H19213948   1.208   6.473   4.368 -1.5165 -1.6859 -2.5037
   39MOL   H19313949   1.270   6.388   4.516 -0.2712 -1.9709  0.4732
   39MOL   H19413950   1.041   6.277   4.361 -0.3623  0.2231  0.9499
   39MOL   H19513951   1.027   6.419   4.454 -1.0702 -0.3753 -0.9793
   39MOL   H19613952   1.093   6.300   4.655 -0.1911  0.8324 -0.2381
   39MOL   H19713953   1.164   6.168   4.560 -1.0691 -0.5672  0.0146
   39MOL   H19813954   0.940   6.101   4.494 -0.1583 -1.2091  0.9402
   39MOL   H19913955   0.945   6.082   4.658  0.1446  0.3132  0.9770
   39MOL   C20013956   0.724   6.223   4.583 -0.3586 -0.1766 -0.0062
   39MOL   O20113957   0.687   6.137   4.504  0.7728 -0.0200  0.7144
   39MOL   C20213958   0.622   6.307   4.656 -0.0158  0.0830 -0.3538
   39MOL   C20313959   0.592   6.245   4.795 -0.6483 -0.2938  0.0398
   39MOL   C20413960   0.461   6.318   4.845  0.1978 -0.3081  0.5522
   39MOL   C20513961   0.476   6.466   4.864 -0.5492 -0.6087  0.4531
   39MOL   C20613962   0.363   6.536   4.943  0.2472 -0.6397 -0.4336
   39MOL   O20713963   0.241   6.529   4.867 -0.3648  0.3267 -0.4737
   39MOL   H20813964   0.532   6.305   4.595 -0.7326 -0.6391  0.7112
   39MOL   H20913965   0.669   6.406   4.662 -1.9251  0.9352  1.1743
   39MOL   H21013966   0.674   6.262   4.864  0.7522 -1.2038 -1.3626
   39MOL   H21113967   0.583   6.136   4.792 -0.5612 -0.2818 -0.7114
   39MOL   H21213968   0.447   6.280   4.946  0.7316 -0.6749  0.4927
   39MOL   H21313969   0.372   6.298   4.786 -0.0048  2.9568 -0.3171
   39MOL   H21413970   0.495   6.511   4.766 -2.5225  0.2190  0.4264
   39MOL   H21513971   0.568   6.483   4.919 -1.6844 -0.6527  2.4174
   39MOL   H21613972   0.337   6.490   5.039 -0.0213  2.3963  1.0434
   39MOL   H21713973   0.394   6.639   4.963  0.6824 -1.0301  0.9996
   39MOL   C21813974   0.131   6.592   4.909 -0.5065 -0.2530  0.3991
   39MOL   O21913975   0.132   6.677   5.000 -0.1362  0.2476  0.2271
   39MOL   C22013976   0.006   6.559   4.841 -0.0994  0.3231  0.1043
   39MOL   C22113977   7.831   6.634   4.709  0.3121 -0.7047  0.8421
   39MOL   C22213978   7.809   6.784   4.720 -0.3533 -0.5907 -0.4563
   39MOL   C22313979   7.816   6.849   4.585  0.4080  0.1939  1.1801
   39MOL   C22413980   7.776   6.993   4.581  0.5052  0.0348 -0.0895
   39MOL   O22513981   7.637   7.007   4.575 -0.2858  0.1015  0.3144
   39MOL   H22613982   7.765   6.589   4.902 -0.6419  0.0051 -0.4879
   39MOL   H22713983   0.001   6.451   4.825  1.0717 -0.1498  2.6837
   39MOL   H22813984   7.746   6.599   4.649 -0.0284  1.0051  0.2965
   39MOL   H22913985   0.068   6.621   4.638 -0.6825  0.1174 -0.4797
   39MOL   H23013986   0.045   6.827   4.780 -0.8955 -0.3180  0.0716
   39MOL   H23113987   7.709   6.802   4.758  0.3644  0.9109  0.7576
   39MOL   H23213988   7.752   6.787   4.522 -1.0609  0.8559  1.9943
   39MOL   H23313989   0.071   6.826   4.547 -0.0848  3.0401 -1.9911
   39MOL   H23413990   7.806   7.052   4.667  0.2628 -0.3816  0.2824
   39MOL   H23513991   7.825   7.043   4.497  0.1920  0.4778 -0.0108
   39MOL   C23613992   7.567   7.003   4.453 -0.0623 -0.3075  0.1346
   39MOL   O23713993   7.618   6.980   4.346  0.1028 -0.3152 -0.4479
   39MOL   C23813994   7.421   7.018   4.466  0.0389  0.4617 -0.1261
   39MOL   C23913995   7.347   7.011   4.335 -0.8156  1.3504 -0.0426
   39MOL   C24013996   7.196   7.012   4.359 -0.2884  0.2408 -0.2840
   39MOL   C24113997   7.107   7.009   4.238 -0.4886 -0.7920 -0.8149
   39MOL   C24213998   6.957   6.976   4.264 -0.4259  0.0955 -0.2051
   39MOL   O24313999   6.883   7.035   4.165 -0.3677 -0.9326  0.4087
   39MOL   H24414000   7.387   7.113   4.507  0.0550 -0.0495  1.0931
   39MOL   H24514001   7.385   6.944   4.538  0.7283 -1.8673 -2.0962
   39MOL   H24614002   7.360   6.922   4.274 -1.5977  0.7552  0.6391
   39MOL   H24714003   7.387   7.090   4.272 -1.4357  0.6562 -1.3203
   39MOL   H24814004   7.170   7.093   4.427 -2.3186 -0.9593  0.4148
   39MOL   H24914005   7.179   6.921   4.416 -0.1277  0.1361 -0.4039
   39MOL   H25014006   7.149   6.939   4.166 -0.6510 -1.1931 -0.5176
   39MOL   H25114007   7.114   7.108   4.192 -1.1160 -0.4313 -0.1340
   39MOL   H25214008   6.923   6.874   4.284 -2.0526  0.6734  0.0580
   39MOL   H25314009   6.925   7.026   4.356 -0.7869 -0.9364  0.2383
   39MOL   C25414010   6.798   6.965   4.083  0.1355  0.1268 -0.1532
   39MOL   O25514011   6.780   6.843   4.097 -0.4506 -0.1595 -0.0299
   39MOL   C25614012   6.709   7.042   3.992 -0.6862  0.3433  0.6369
   39MOL   C25714013   6.791   7.138   3.904 -0.5500 -0.3350 -0.9745
   39MOL   C25814014   6.813   7.278   3.964 -0.5094  0.0294  0.1327
   39MOL   C25914015   6.906   7.369   3.882  0.4319 -0.3398 -0.1493
   39MOL   C26014016   6.883   7.516   3.898 -0.2834  0.1396 -0.1117
   39MOL   O26114017   7.007   7.587   3.878  0.1828 -0.3474  0.2917
   39MOL   H26214018   6.627   7.086   4.049 -0.9073 -1.4231  1.7219
   39MOL   H26314019   6.666   6.964   3.928 -2.4697  2.6901 -1.1281
   39MOL   H26414020   6.744   7.148   3.805 -2.9305  0.5372  0.2003
   39MOL   H26514021   6.891   7.103   3.880 -2.0045 -3.5333 -2.7755
   39MOL   H26614022   6.854   7.272   4.065 -2.3085  0.7998  0.9426
   39MOL   H26714023   6.718   7.331   3.980 -1.0445 -0.8855 -0.0278
   39MOL   H26814024   6.893   7.356   3.775  0.2393  2.2915 -0.4545
   39MOL   H26914025   7.006   7.343   3.918  0.4644 -2.0235 -1.3856
   39MOL   H27014026   6.811   7.540   3.820  1.3224 -0.5043 -1.8245
   39MOL   H27114027   6.842   7.533   3.998 -3.6612  1.2948 -1.6146
   39MOL   C27214028   6.998   7.719   3.840  0.0545  0.4941  0.1271
   39MOL   O27314029   6.897   7.782   3.827  0.6182  0.5308  0.3332
   39MOL   C27414030   7.134   7.774   3.809  0.3025  0.2398 -0.1853
   39MOL   C27514031   7.245   7.748   3.916 -0.0398  0.3202 -0.0865
   39MOL   C27614032   7.248   7.842   4.043  0.5598  0.2742 -0.0429
   39MOL   C27714033   7.344   7.800   4.153  0.1837  0.3040 -0.5664
   39MOL   C27814034   7.312   7.838   4.294  0.1974  0.3757 -0.2352
   39MOL   O27914035   7.178   7.800   4.325 -0.4049  0.4579 -0.7148
   39MOL   H28014036   7.129   0.035   3.780 -0.0785  0.7192  1.5253
   39MOL   H28114037   7.167   7.719   3.721  0.9749  0.3080  0.0231
   39MOL   H28214038   7.338   7.784   3.871 -1.2147  3.4001 -0.1950
   39MOL   H28314039   7.240   7.645   3.953  2.9938 -0.0978 -0.6930
   39MOL   H28414040   7.150   0.018   4.086 -0.9309 -2.9017 -1.7866
   39MOL   H28514041   7.285   0.094   4.007 -0.8392  0.6150 -0.5981
   39MOL   H28614042   7.440   0.000   4.129  0.9233  0.2463  2.0830
   39MOL   H28714043   7.341   7.691   4.158 -0.0060  0.3039 -0.6795
   39MOL   H28814044   7.378   7.777   4.356 -0.7409  1.6554  2.1007
   39MOL   H28914045   7.322   0.101   4.312  0.8366  0.3593 -0.4850
   39MOL   C29014046   7.136   7.805   4.459  0.5758 -0.2882  0.3173
   39MOL   O29114047   7.202   7.822   4.565 -0.2264 -0.1604  0.5584
   39MOL   C29214048   6.988   7.775   4.472  0.3847 -0.3664  0.3255
   39MOL   C29314049   6.911   7.838   4.591  0.7595  0.6308  0.0270
   39MOL   C29414050   6.757   0.001   4.561  0.0550  0.4169  0.2173
   39MOL   C29514051   6.675   0.019   4.682 -0.2923  0.0371 -0.3939
   39MOL   C29614052   6.526   0.018   4.653 -0.1571 -0.1189  0.5104
   39MOL   O29714053   6.493   0.112   4.552  0.2088  0.2661 -0.4433
   39MOL   H29814054   6.961   7.670   4.457 -0.1206  0.0104 -1.6451
   39MOL   H29914055   6.951   7.820   4.380  0.0269 -0.5383  0.3840
   39MOL   H30014056   6.955   0.091   4.612  0.2128  0.7661  0.5230
   39MOL   H30114057   6.922   7.788   4.687 -1.7801  0.2844  0.1655
   39MOL   H30214058   6.732   7.747   4.521 -0.3230  0.5314  0.1690
   39MOL   H30314059   6.733   0.073   4.483  1.2846  0.8910  0.2727
   39MOL   H30414060   6.699   0.109   4.739  2.6024 -0.3699 -0.8967
   39MOL   H30514061   6.684   7.778   4.749  0.7271  1.0279  0.7563
   39MOL   H30614062   6.499   7.770   4.602  1.1065  0.4552 -1.2792
   39MOL   H30714063   6.468   0.043   4.742 -1.1985  2.1266 -0.7569
   39MOL   C30814064   6.363   0.150   4.530 -0.3164 -0.2441 -0.7668
   39MOL   O30914065   6.267   0.080   4.566 -0.5682  0.0775 -0.4795
   39MOL   C31014066   6.344   0.282   4.457  0.6443 -0.1355 -0.2092
   39MOL   C31114067   6.424   0.310   4.335  0.2859 -0.1836 -0.3396
   39MOL   C31214068   6.346   0.291   4.210  0.4535  0.3031 -0.8992
   39MOL   C31314069   6.411   0.344   4.079 -0.8360 -0.3479 -0.1896
   39MOL   C31414070   6.345   0.315   3.946  0.2986  0.0377 -0.1496
   39MOL   O31514071   6.392   0.399   3.842 -0.1591  0.0706  0.4373
   39MOL   H31614072   6.386   0.349   4.532  1.7892 -0.4425 -0.5617
   39MOL   H31714073   6.239   0.308   4.439  0.7476  2.1406  2.2955
   39MOL   H31814074   6.517   0.255   4.330 -0.2759 -1.1028 -0.8304
   39MOL   H31914075   6.465   0.411   4.342  0.8476 -0.3141 -1.5523
   39MOL   H32014076   6.248   0.339   4.211 -0.3034 -1.2096  0.9655
   39MOL   H32114077   6.325   0.185   4.200 -2.3184  0.7906 -0.6804
   39MOL   H32214078   6.508   0.294   4.076 -0.5972  0.1689 -1.4508
   39MOL   H32314079   6.425   0.452   4.088  1.5396 -0.3349 -3.0321
   39MOL   H32414080   6.375   0.211   3.933  1.3707  0.4096 -0.7536
   39MOL   H32514081   6.237   0.313   3.953  0.2574  0.4467 -0.6288
   39MOL   C32614082   6.483   0.353   3.758  0.4010  0.3302  0.3979
   39MOL   O32714083   6.531   0.239   3.752  0.4050 -0.1672  0.2438
   39MOL   C32814084   6.522   0.456   3.663  0.2259  0.1861 -0.3723
   39MOL   C32914085   6.596   0.407   3.536 -0.4396  0.2489  0.2086
   39MOL   C33014086   6.514   0.328   3.446  0.3273 -0.7259  0.0757
   39MOL   C33114087   6.591   0.305   3.314 -1.0566  0.2155 -0.0189
   39MOL   C33214088   6.505   0.247   3.201 -0.0945 -0.1248  0.2631
   39MOL   O33314089   6.563   0.251   3.062  1.2948 -0.0664 -0.1061
   39MOL   H33414090   6.573   0.527   3.728  0.8043 -0.6152  0.0437
   39MOL   H33514091   6.429   0.510   3.643 -0.3339 -0.0905  1.4526
   39MOL   H33614092   6.689   0.356   3.559 -1.3258 -0.8566  1.4195
   39MOL   H33714093   6.638   0.495   3.489 -0.2689  0.0245 -0.0621
   39MOL   H33814094   6.424   0.381   3.415  1.1413  0.2428 -0.6867
   39MOL   H33914095   6.473   0.239   3.492 -1.3864 -0.2117 -0.4147
   39MOL   H34014096   6.671   0.236   3.339 -0.8682  0.1608 -0.7759
   39MOL   H34114097   6.633   0.401   3.284 -0.3920  0.2394  0.9593
   39MOL   H34214098   6.496   0.141   3.223 -2.4530  0.3956  2.1071
   39MOL   H34314099   6.404   0.288   3.205  0.1399  0.4770  0.0008
   39MOL   C34414100   6.502   0.179   2.967 -0.1951  0.3811 -0.4018
   39MOL   O34514101   6.400   0.107   2.984 -0.5355  0.7333  0.3232
   39MOL   C34614102   6.571   0.208   2.832  0.3946 -0.2638 -0.4908
   39MOL   C34714103   6.487   0.155   2.710 -0.3344  0.1411 -0.4306
   39MOL   C34814104   6.557   0.184   2.580  0.0117 -0.3039 -0.3662
   39MOL   C34914105   6.684   0.095   2.571 -0.1930 -0.0641  0.0303
   39MOL   C35014106   6.757   0.110   2.439  0.1319  1.0433 -0.4373
   39MOL   O35114107   6.670   0.120   2.326 -0.8990  0.9163 -0.7129
   39MOL   H35214108   6.669   0.163   2.817 -0.0748 -1.0438 -1.2347
   39MOL   H35314109   6.580   0.315   2.814 -3.1178  0.2093  0.1788
   39MOL   H35414110   6.385   0.190   2.726  0.0003  0.8694  0.1272
   39MOL   H35514111   6.476   0.049   2.731  1.7452  0.1149  0.5481
   39MOL   H35614112   6.600   0.283   2.597 -0.1589 -0.1811 -0.6613
   39MOL   H35714113   6.493   0.180   2.492  1.0839  1.0428 -1.2404
   39MOL   H35814114   6.653   7.836   2.589  1.4878 -0.8096 -1.1385
   39MOL   H35914115   6.757   0.125   2.647 -0.7242 -0.1639  0.5803
   39MOL   H36014116   6.813   0.204   2.449  0.9034  0.5423  0.0951
   39MOL   H36114117   6.832   0.031   2.432 -0.7708  0.1466 -0.1428
   39MOL   H36214118   6.621   0.039   2.328 -0.6573  0.7902  0.6715
   40MOL     C114119   5.244   5.912   6.119  0.0356  0.4568 -0.5068
   40MOL     O214120   5.186   5.998   6.186 -0.2421 -0.0733  0.0287
   40MOL     C314121   5.250   5.924   5.964  0.1583  0.3063  0.0789
   40MOL     C414122   5.194   6.063   5.920  0.4446 -0.1427  0.1766
   40MOL     C514123   5.043   6.060   5.890  0.3246 -0.1120  0.6062
   40MOL     C614124   4.994   6.180   5.812 -0.3987  0.4822 -0.0623
   40MOL     C714125   4.863   6.131   5.736  0.7825  0.2615 -0.3680
   40MOL     O814126   4.760   6.146   5.826  0.0051 -0.1372  0.3144
   40MOL     H914127   5.194   5.847   5.911  1.3082  0.7539 -1.8462
   40MOL    H1014128   5.354   5.913   5.931  0.3245  0.6475  0.4944
   40MOL    H1114129   5.252   6.106   5.838  0.7606 -0.8152  0.0495
   40MOL    H1214130   5.216   6.146   5.988 -2.8105  2.6694 -2.0236
   40MOL    H1314131   4.977   6.053   5.976 -0.2228 -0.4106  0.1670
   40MOL    H1414132   5.026   5.970   5.831  2.1398  0.2152 -0.4483
   40MOL    H1514133   5.068   6.201   5.734  3.0046 -1.0511  2.6248
   40MOL    H1614134   4.968   6.255   5.887 -0.1889  2.4312 -1.8913
   40MOL    H1714135   4.838   6.194   5.651  1.0701 -1.5842 -1.8611
   40MOL    H1814136   4.859   6.028   5.701  1.4007  0.7478 -1.8865
   40MOL    H1914137   5.284   5.817   6.156 -0.3868 -0.3138 -1.9638
   40MOL    C2014138   4.630   6.151   5.781 -0.4451 -0.5785  0.6264
   40MOL    O2114139   4.592   6.146   5.660 -0.8018 -0.5430 -0.1245
   40MOL    C2214140   4.529   6.164   5.896  0.4370  0.2899 -0.5946
   40MOL    C2314141   4.554   6.287   5.991  0.1904  0.4298  0.3128
   40MOL    C2414142   4.537   6.418   5.922 -0.1664  1.0629  0.0743
   40MOL    C2514143   4.621   6.530   5.984 -0.0065 -0.0041  0.7560
   40MOL    C2614144   4.768   6.544   5.943 -0.2830  0.3451 -0.1769
   40MOL    O2714145   4.774   6.577   5.808  0.4112  0.4022  0.4505
   40MOL    H2814146   4.521   6.069   5.948 -1.2820  0.1032 -1.1585
   40MOL    H2914147   4.427   6.176   5.859  0.5918 -0.2193 -1.1846
   40MOL    H3014148   4.653   6.277   6.035  0.2672  2.5683  0.6692
   40MOL    H3114149   4.482   6.280   6.073 -2.7353  2.5601 -1.9746
   40MOL    H3214150   4.435   6.456   5.916 -0.6756 -0.2462  0.2978
   40MOL    H3314151   4.550   6.407   5.815 -1.0324 -0.2680  0.0925
   40MOL    H3414152   4.616   6.516   6.092 -1.3453  2.0365  0.9827
   40MOL    H3514153   4.572   6.626   5.971 -0.0909 -0.1196  0.2105
   40MOL    H3614154   4.822   6.605   6.016 -1.5185  0.6926  0.4635
   40MOL    H3714155   4.821   6.449   5.955 -0.2520  0.3508 -0.2698
   40MOL    C3814156   4.787   6.706   5.770 -0.2908  0.2904  0.1729
   40MOL    O3914157   4.787   6.798   5.844  0.2602  0.0943  0.1377
   40MOL    C4014158   4.783   6.725   5.622 -0.0152  0.2636 -0.6447
   40MOL    C4114159   4.682   6.628   5.555  0.0762 -0.2624  0.7619
   40MOL    C4214160   4.756   6.512   5.489  0.0318 -0.2553 -0.4419
   40MOL    C4314161   4.681   6.415   5.409 -0.2848 -0.2312  0.3888
   40MOL    C4414162   4.755   6.278   5.383 -0.3096  0.0345  0.0935
   40MOL    O4514163   4.869   6.306   5.313  0.2832 -0.1476  0.3047
   40MOL    H4614164   4.883   6.730   5.577  0.5692 -1.7572  0.3742
   40MOL    H4714165   4.753   6.829   5.608 -0.3100  0.1559 -0.8006
   40MOL    H4814166   4.624   6.682   5.480 -1.7616  0.3046  2.5674
   40MOL    H4914167   4.599   6.598   5.620 -1.8106 -0.3578 -1.5848
   40MOL    H5014168   4.785   6.464   5.581  1.6836  1.8326  0.1579
   40MOL    H5114169   4.847   6.540   5.435  0.0059 -0.1340 -0.4228
   40MOL    H5214170   4.652   6.476   5.323 -0.1785  1.9997  1.9035
   40MOL    H5314171   4.588   6.388   5.459 -0.8805  0.5100 -0.3034
   40MOL    H5414172   4.771   6.226   5.477 -0.7960 -0.7443 -0.2541
   40MOL    H5514173   4.688   6.222   5.318  1.9908 -1.2759 -1.2073
   40MOL    C5614174   4.968   6.216   5.305 -0.5473 -0.9733  0.4513
   40MOL    O5714175   4.998   6.129   5.386  0.1680  0.4953 -0.1585
   40MOL    C5814176   5.050   6.251   5.182  0.3797 -0.0201  0.0753
   40MOL    C5914177   4.966   6.229   5.058  0.7317  0.2459 -0.1835
   40MOL    C6014178   5.039   6.219   4.924  0.2253 -0.2992  0.2669
   40MOL    C6114179   4.958   6.158   4.805 -0.6225  0.2832 -0.7050
   40MOL    C6214180   5.035   6.141   4.677 -0.6168  0.1429 -0.7827
   40MOL    O6314181   5.064   6.257   4.605 -0.1758 -0.6248  0.4604
   40MOL    H6414182   5.145   6.200   5.196  1.1981  1.4561 -0.0592
   40MOL    H6514183   5.077   6.355   5.197 -0.2629  0.0401  0.8850
   40MOL    H6614184   4.884   6.301   5.065 -0.3530 -1.1416  1.9272
   40MOL    H6714185   4.919   6.133   5.076  2.9596 -0.0383  5.0108
   40MOL    H6814186   5.135   6.167   4.925  0.7801  0.6579 -1.3735
   40MOL    H6914187   5.078   6.318   4.903  0.3173 -0.6876 -1.4898
   40MOL    H7014188   4.871   6.223   4.797 -0.9655 -0.0424  0.1997
   40MOL    H7114189   4.913   6.062   4.830 -0.0098  0.2288  0.2175
   40MOL    H7214190   5.130   6.090   4.694 -1.5574 -2.0999 -2.0838
   40MOL    H7314191   4.978   6.079   4.609 -1.0630 -2.8207  2.1936
   40MOL    C7414192   5.153   6.237   4.507 -1.0248 -0.6648  0.2243
   40MOL    O7514193   5.196   6.126   4.469 -0.1389  0.1825 -0.0361
   40MOL    C7614194   5.196   6.362   4.445  0.1388 -0.1688 -0.2223
   40MOL    C7714195   5.318   6.426   4.501  0.1864  0.4469 -0.7897
   40MOL    C7814196   5.297   6.470   4.651 -0.0695  0.6916  0.3736
   40MOL    C7914197   5.201   6.592   4.665 -0.0363  0.1769  0.0845
   40MOL    C8014198   5.235   6.687   4.780 -0.2952 -0.0045  0.2669
   40MOL    O8114199   5.191   6.632   4.899  0.3566  0.1865 -0.4434
   40MOL    H8214200   5.112   6.431   4.458 -0.7158 -1.2000 -0.1818
   40MOL    H8314201   5.215   6.349   4.338  1.3634 -0.2149  0.0010
   40MOL    H8414202   5.340   6.519   4.449 -0.8634  0.9078 -0.4296
   40MOL    H8514203   5.400   6.355   4.489  0.4594  0.6638 -0.1725
   40MOL    H8614204   5.388   6.493   4.706 -0.3520 -1.6467  1.8959
   40MOL    H8714205   5.268   6.382   4.708  2.8470 -0.6375 -0.1048
   40MOL    H8814206   5.095   6.569   4.677  0.0494  0.2779  1.0679
   40MOL    H8914207   5.202   6.651   4.573  4.5645  1.3213  0.7436
   40MOL    H9014208   5.343   6.700   4.789 -0.6051  2.7455  0.5058
   40MOL    H9114209   5.182   6.782   4.774 -0.1463  0.0492 -0.2545
   40MOL    C9214210   5.198   6.700   5.010  0.0038 -0.8220 -0.2328
   40MOL    O9314211   5.233   6.821   5.017  0.0197 -0.4163 -0.3297
   40MOL    C9414212   5.151   6.613   5.131  0.2759 -0.1793  0.0575
   40MOL    C9514213   5.032   6.669   5.204  0.5703 -0.2206  0.9729
   40MOL    C9614214   4.903   6.711   5.125 -0.1827  0.2776 -0.3820
   40MOL    C9714215   4.805   6.796   5.201 -0.1882  0.3035  1.1223
   40MOL    C9814216   4.690   6.854   5.114 -0.0571 -0.3032  0.4049
   40MOL    O9914217   4.575   6.884   5.191 -0.6088  0.5263  0.1431
   40MOL   H10014218   5.234   6.611   5.201 -0.2370  1.7430  0.7541
   40MOL   H10114219   5.144   6.515   5.084 -0.5227 -1.6054  3.0849
   40MOL   H10214220   5.055   6.757   5.264  0.0619 -0.1619  1.0816
   40MOL   H10314221   5.001   6.596   5.279 -0.9723 -0.2496  0.3110
   40MOL   H10414222   4.839   6.629   5.093  1.8819 -2.4538  2.2036
   40MOL   H10514223   4.943   6.767   5.040  4.4620 -2.9041 -0.4398
   40MOL   H10614224   4.860   6.877   5.251 -0.8924  1.1678  0.4996
   40MOL   H10714225   4.774   6.740   5.289 -2.8566  0.2518  0.1682
   40MOL   H10814226   4.734   6.944   5.070  1.5779  0.8374  4.1550
   40MOL   H10914227   4.673   6.784   5.033 -0.6643 -2.6356  2.4892
   40MOL   C11014228   4.497   6.794   5.232  0.5570 -0.2978  0.0063
   40MOL   O11114229   4.502   6.678   5.202  0.0196  0.0110 -0.6394
   40MOL   C11214230   4.375   6.854   5.308  0.0254  0.8233  0.5079
   40MOL   C11314231   4.410   6.976   5.404  0.4973 -0.5144  0.0810
   40MOL   C11414232   4.284   7.033   5.467  0.0060  0.0849  0.1626
   40MOL   C11514233   4.313   7.153   5.565  0.3819 -0.2865 -0.5720
   40MOL   C11614234   4.203   7.217   5.642  0.0885 -0.6177  0.0629
   40MOL   O11714235   4.094   7.261   5.554 -0.7290 -0.1570  0.0235
   40MOL   H11814236   4.335   6.771   5.366  0.6053  1.4562  1.8645
   40MOL   H11914237   4.291   6.881   5.244  0.6604 -0.0303 -0.6920
   40MOL   H12014238   4.458   7.058   5.351 -1.8597  0.0932 -1.1654
   40MOL   H12114239   4.482   6.944   5.479 -0.5638 -1.8961  0.5450
   40MOL   H12214240   4.228   6.961   5.526  0.5122 -0.7100 -0.3102
   40MOL   H12314241   4.211   7.055   5.389  1.7296  0.5134 -1.3687
   40MOL   H12414242   4.344   7.240   5.507  3.4273 -1.2533 -0.4998
   40MOL   H12514243   4.392   7.128   5.636  0.6563 -0.8548 -1.0634
   40MOL   H12614244   4.166   7.138   5.708 -1.4732  0.8201  0.9649
   40MOL   H12714245   4.237   7.297   5.707 -0.3358 -0.0564 -0.3981
   40MOL   C12814246   3.986   7.316   5.609 -0.3089 -0.4761  1.1366
   40MOL   O12914247   3.965   7.326   5.735  0.2365 -0.1783  0.7190
   40MOL   C13014248   3.872   7.338   5.506  0.0204 -0.0003  0.3531
   40MOL   C13114249   3.763   7.433   5.561 -0.6707 -0.0279 -0.0248
   40MOL   C13214250   3.646   7.466   5.460 -0.4555  0.4029 -0.0234
   40MOL   C13314251   3.529   7.528   5.528  0.6061 -0.6202 -0.0812
   40MOL   C13414252   3.416   7.558   5.428  0.3555 -0.4250  0.7056
   40MOL   O13514253   3.333   7.445   5.398  0.1988  0.3466 -0.1814
   40MOL   H13614254   3.823   7.241   5.495 -0.6368  0.3188  0.4612
   40MOL   H13714255   3.897   7.359   5.402  2.0709 -0.4721  0.7126
   40MOL   H13814256   3.805   7.522   5.608 -1.3260 -0.2189  0.9307
   40MOL   H13914257   3.720   7.381   5.647 -0.0089  0.7893  0.8131
   40MOL   H14014258   3.613   7.369   5.425  1.0367 -0.2727  0.4013
   40MOL   H14114259   3.676   7.536   5.382 -1.9165  0.3773 -0.6149
   40MOL   H14214260   3.563   7.626   5.561 -0.2058  0.1087 -1.3790
   40MOL   H14314261   3.499   7.466   5.613 -0.0408 -0.5397 -0.2518
   40MOL   H14414262   3.347   7.639   5.452  0.1745 -0.1779 -0.5894
   40MOL   H14514263   3.465   7.583   5.334 -0.1701  2.2897  1.0958
   40MOL   C14614264   3.237   7.404   5.489  0.6781  0.0083  0.0703
   40MOL   O14714265   3.221   7.457   5.606  0.0459  0.3671  0.9456
   40MOL   C14814266   3.161   7.285   5.436 -0.2223 -0.0543  0.4244
   40MOL   C14914267   3.026   7.323   5.366  0.0304 -0.2286  0.1802
   40MOL   C15014268   3.036   7.407   5.235 -0.2446  0.1822 -0.3906
   40MOL   C15114269   2.902   7.399   5.164  0.4402  0.7151  0.0520
   40MOL   C15214270   2.922   7.462   5.028  0.1536 -0.4704  0.0529
   40MOL   O15314271   2.979   7.591   5.017  0.1103 -0.5028 -0.1744
   40MOL   H15414272   3.143   7.220   5.522 -0.8404  0.0368  0.3695
   40MOL   H15514273   3.227   7.221   5.377  0.6205 -0.7181  2.0724
   40MOL   H15614274   2.958   7.359   5.443  1.4165 -1.4490  2.0302
   40MOL   H15714275   2.970   7.231   5.349 -0.9419  0.6853 -1.7293
   40MOL   H15814276   3.110   7.361   5.170  1.4961  1.8448  0.3648
   40MOL   H15914277   3.062   7.512   5.249 -0.0199  0.3740 -2.1360
   40MOL   H16014278   2.834   7.471   5.208  0.0884 -0.1771  1.0025
   40MOL   H16114279   2.857   7.300   5.156  1.9654 -0.1377  1.6286
   40MOL   H16214280   2.982   7.390   4.971  3.1216  0.7774  1.5109
   40MOL   H16314281   2.834   7.483   4.967  1.6105 -2.4610 -2.8909
   40MOL   C16414282   3.106   7.604   4.980 -0.0449 -1.0387  0.1038
   40MOL   O16514283   3.184   7.512   4.959  0.5135 -0.3488 -0.1441
   40MOL   C16614284   3.165   7.747   4.993  0.2898 -0.0137  0.0006
   40MOL   C16714285   3.201   7.790   5.138 -0.4458  0.1616 -0.4171
   40MOL   C16814286   3.074   7.812   5.232  0.4034 -0.1302 -0.0116
   40MOL   C16914287   3.106   0.024   5.371 -0.0369  0.5038 -0.6782
   40MOL   C17014288   3.150   0.171   5.370  0.1074 -0.4174 -0.6345
   40MOL   O17114289   3.049   0.241   5.294 -0.0408 -0.2228 -0.1807
   40MOL   H17214290   3.102   7.822   4.946  2.4952  1.5832 -0.5067
   40MOL   H17314291   3.263   7.754   4.945  1.3135 -0.8391  1.8873
   40MOL   H17414292   3.257   0.039   5.137 -0.3757  0.1266 -1.6766
   40MOL   H17514293   3.254   7.712   5.192  0.3738  0.2132 -1.1352
   40MOL   H17614294   3.011   7.723   5.233  1.3066 -0.8549 -2.4693
   40MOL   H17714295   3.004   0.034   5.183 -1.3524 -0.0624  2.5059
   40MOL   H17814296   3.174   7.802   5.425  0.7988  2.7234  1.1176
   40MOL   H17914297   3.017   0.018   5.434 -0.0910  0.2395 -0.7792
   40MOL   H18014298   3.141   0.208   5.473 -2.4731 -0.7031 -0.7256
   40MOL   H18114299   3.248   0.193   5.328 -0.3686  3.2077 -0.0253
   40MOL   C18214300   3.090   0.311   5.186  0.2158  0.6095  0.2341
   40MOL   O18314301   3.204   0.343   5.161 -0.1422 -0.1795 -0.6407
   40MOL   C18414302   2.985   0.355   5.084  0.4460 -0.8532  0.8269
   40MOL   C18514303   2.896   0.254   5.010  0.1974  0.7370 -0.3037
   40MOL   C18614304   2.770   0.207   5.082 -0.7715 -0.0657  0.2213
   40MOL   C18714305   2.692   0.108   5.008  0.4573  0.1447 -0.6201
   40MOL   C18814306   2.574   0.036   5.084  0.1277  0.2794  0.3013
   40MOL   O18914307   2.518   7.780   5.006  0.4336  0.1509 -0.2464
   40MOL   H19014308   3.041   0.418   5.014 -0.5841 -1.5892 -0.6749
   40MOL   H19114309   2.928   0.432   5.135 -1.0539  1.2007 -3.7104
   40MOL   H19214310   2.948   0.165   4.975 -0.5395  0.3885 -0.5281
   40MOL   H19314311   2.858   0.308   4.923 -0.5814  1.3655  0.4267
   40MOL   H19414312   2.703   0.283   5.123  0.1351 -0.0412  1.7049
   40MOL   H19514313   2.805   0.160   5.174  0.6630  2.2918  0.9404
   40MOL   H19614314   2.751   0.021   4.976 -0.1929 -0.4394 -0.2382
   40MOL   H19714315   2.647   0.149   4.917 -1.1641  0.0447  0.1320
   40MOL   H19814316   2.600   0.010   5.187  2.4436  2.6621  0.3656
   40MOL   H19914317   2.502   0.118   5.096 -2.1635 -1.7625  0.9101
   40MOL   C20014318   2.530   7.651   5.043  0.6028  0.2782 -0.1371
   40MOL   O20114319   2.595   7.612   5.142 -0.1407  0.1669 -0.3982
   40MOL   C20214320   2.448   7.558   4.949 -0.4602 -0.1473 -0.1764
   40MOL   C20314321   2.297   7.585   4.960 -0.2122 -0.1543 -0.1574
   40MOL   C20414322   2.243   7.520   5.096  0.1545  0.5938 -0.2111
   40MOL   C20514323   2.093   7.533   5.112 -0.1768  0.0891 -1.2025
   40MOL   C20614324   2.040   7.484   5.248  0.5436 -0.1282 -0.6733
   40MOL   O20714325   2.091   7.563   5.351 -0.3849  0.1817  0.0515
   40MOL   H20814326   2.468   7.454   4.978 -0.7013 -0.7293 -2.0243
   40MOL   H20914327   2.473   7.576   4.845  0.0221 -2.6606 -0.5396
   40MOL   H21014328   2.246   7.538   4.876  0.6053 -1.1953 -0.0760
   40MOL   H21114329   2.266   7.689   4.969 -0.7341 -0.4243  1.2656
   40MOL   H21214330   2.285   7.577   5.179 -0.5512  2.2031 -0.9247
   40MOL   H21314331   2.258   7.415   5.121  1.5186  0.7554 -0.2926
   40MOL   H21414332   2.034   7.491   5.030 -0.4827 -0.0926 -0.8901
   40MOL   H21514333   2.063   7.638   5.111 -0.6723 -0.0626 -2.3409
   40MOL   H21614334   1.932   7.472   5.246  0.5249 -0.1170  0.1719
   40MOL   H21714335   2.083   7.387   5.272  2.6429  0.9016 -0.1720
   40MOL   C21814336   2.029   7.676   5.378  0.1958  0.3546  0.3679
   40MOL   O21914337   1.921   7.709   5.332  0.2653 -0.0698  0.0376
   40MOL   C22014338   2.112   7.768   5.467  0.1246 -0.1701  0.9182
   40MOL   C22114339   2.229   7.844   5.389  0.0417  0.1779 -0.2275
   40MOL   C22214340   2.341   0.043   5.485  0.0354 -0.3688 -0.1366
   40MOL   C22314341   2.448   0.142   5.422 -0.2629  0.0181 -0.1491
   40MOL   C22414342   2.552   0.181   5.520  1.0042  0.8572 -0.8575
   40MOL   O22514343   2.621   0.292   5.460  0.1830 -0.8673  0.0058
   40MOL   H22614344   2.157   7.708   5.546  2.7433  1.0217  0.4081
   40MOL   H22714345   2.049   7.844   5.512 -0.9310 -0.9751  0.8019
   40MOL   H22814346   2.194   0.080   5.324 -1.2560  0.7487  1.1213
   40MOL   H22914347   2.275   7.772   5.323  0.4894 -1.4181  1.7684
   40MOL   H23014348   2.383   7.805   5.542  0.6298 -0.1075 -0.1918
   40MOL   H23114349   2.289   0.101   5.562 -0.3367 -0.6599 -0.1682
   40MOL   H23214350   2.396   0.234   5.395 -0.4228  0.1287  0.5294
   40MOL   H23314351   2.493   0.096   5.334 -1.7900  1.2471 -1.5968
   40MOL   H23414352   2.507   0.213   5.614  0.4119 -2.5533  0.0802
   40MOL   H23514353   2.623   0.102   5.546 -0.8892 -0.6515 -0.1205
   40MOL   C23614354   2.745   0.321   5.501 -0.3006  0.0683  0.2893
   40MOL   O23714355   2.800   0.264   5.591 -0.4714 -0.4827 -1.4026
   40MOL   C23814356   2.797   0.441   5.418 -0.8392  0.0938 -0.4280
   40MOL   C23914357   2.892   0.541   5.486  0.0103 -0.0906 -0.6401
   40MOL   C24014358   3.027   0.488   5.534  0.1524 -0.1506 -0.5665
   40MOL   C24114359   3.095   0.592   5.623 -0.0388  0.7204  0.2785
   40MOL   C24214360   3.236   0.554   5.661 -0.1301  0.5343 -0.3452
   40MOL   O24314361   3.321   0.616   5.572  0.1472  0.3548  0.1743
   40MOL   H24414362   2.704   0.483   5.381 -0.4603  0.6686 -0.7279
   40MOL   H24514363   2.847   0.386   5.338 -2.6502 -0.5948 -1.1249
   40MOL   H24614364   2.840   0.588   5.569  1.3959  0.8417 -0.2870
   40MOL   H24714365   2.910   0.619   5.412 -1.0121  0.9944  0.2462
   40MOL   H24814366   3.084   0.478   5.441 -1.4299  1.1330 -1.7062
   40MOL   H24914367   3.010   0.393   5.583 -0.7125 -0.1514 -0.8523
   40MOL   H25014368   3.040   0.612   5.714  0.8753  0.7028  0.8473
   40MOL   H25114369   3.102   0.691   5.580  1.1847 -0.4845 -2.4562
   40MOL   H25214370   3.252   0.592   5.761  0.8953  1.2379 -0.7774
   40MOL   H25314371   3.257   0.447   5.671 -2.6590 -0.2698 -2.8752
   40MOL   C25414372   3.367   0.549   5.473 -0.1126  0.3906 -0.1042
   40MOL   O25514373   3.353   0.423   5.451  0.2758 -0.5106  0.3528
   40MOL   C25614374   3.448   0.630   5.375  0.3826  0.4352  0.5149
   40MOL   C25714375   3.369   0.756   5.318  0.9693  0.0398  0.2730
   40MOL   C25814376   3.211   0.749   5.283 -0.0038  0.9395 -0.1132
   40MOL   C25914377   3.164   0.889   5.251  0.2957  0.2295  0.6300
   40MOL   C26014378   3.009   0.876   5.231 -0.8121  0.1859 -0.4853
   40MOL   O26114379   2.952   1.004   5.217 -0.0869  0.2136  0.8083
   40MOL   H26214380   3.477   0.566   5.291 -0.1559  1.3705 -0.3858
   40MOL   H26314381   3.540   0.656   5.426  1.9141 -0.9319 -1.4889
   40MOL   H26414382   3.421   0.800   5.234 -0.3226  2.5977  0.7506
   40MOL   H26514383   3.376   0.836   5.392 -0.7548 -0.4655  1.0053
   40MOL   H26614384   3.145   0.709   5.360 -0.7766  1.4677 -0.5003
   40MOL   H26714385   3.185   0.697   5.191  0.9712  0.5113 -0.1555
   40MOL   H26814386   3.207   0.934   5.162 -3.0921 -0.8173 -1.6366
   40MOL   H26914387   3.179   0.949   5.341 -1.3780  0.1123  1.0066
   40MOL   H27014388   2.997   0.822   5.137  0.3122 -1.3447  0.2360
   40MOL   H27114389   2.954   0.828   5.312  3.7485  0.8453  3.2379
   40MOL   C27214390   2.905   1.075   5.321  0.2693 -0.8974 -0.1365
   40MOL   O27314391   2.885   1.024   5.432  0.5993  0.4931 -0.1338
   40MOL   C27414392   2.866   1.218   5.294  0.1060 -0.2946 -1.2334
   40MOL   C27514393   2.970   1.321   5.348  0.5730  0.3637  0.1967
   40MOL   C27614394   2.923   1.464   5.336  0.0953  0.1539 -0.4847
   40MOL   C27714395   2.823   1.518   5.440 -0.2940  0.1402  0.1292
   40MOL   C27814396   2.780   1.662   5.407  0.2040 -0.1464 -0.3384
   40MOL   O27914397   2.889   1.750   5.390  0.4245 -0.9552 -0.3555
   40MOL   H28014398   2.774   1.241   5.347 -0.3621 -1.1599 -1.6659
   40MOL   H28114399   2.836   1.246   5.193 -0.6330  2.4414 -0.2985
   40MOL   H28214400   3.062   1.311   5.291 -0.1910  1.0745 -1.2168
   40MOL   H28314401   2.999   1.295   5.449  2.2265 -1.4564 -0.7182
   40MOL   H28414402   2.871   1.455   5.240  0.7513 -1.9697 -0.6414
   40MOL   H28514403   3.008   1.532   5.329  0.9386 -0.6609  1.7139
   40MOL   H28614404   2.876   1.513   5.535  1.7565  1.2885 -0.9284
   40MOL   H28714405   2.730   1.461   5.446  0.4201 -1.0855 -0.4405
   40MOL   H28814406   2.715   1.674   5.320  0.3868  0.5526 -0.3831
   40MOL   H28914407   2.721   1.705   5.488  0.6895  0.9086 -0.5304
   40MOL   C29014408   2.933   1.818   5.492 -0.2625 -0.0378 -0.7437
   40MOL   O29114409   2.891   1.801   5.606 -0.2135  0.1095  0.3574
   40MOL   C29214410   3.039   1.920   5.449 -0.1247  0.3705 -0.7463
   40MOL   C29314411   3.117   1.985   5.559 -0.1148  0.5790 -0.7945
   40MOL   C29414412   3.230   1.890   5.613  0.1074 -0.1009  0.5296
   40MOL   C29514413   3.332   1.977   5.688  0.1867 -0.1666  0.1363
   40MOL   C29614414   3.416   1.907   5.795  0.2947 -0.8023  0.0366
   40MOL   O29714415   3.334   1.837   5.884  0.0287 -0.0117  0.3570
   40MOL   H29814416   2.986   2.004   5.403 -2.1861  1.0318  2.6231
   40MOL   H29914417   3.116   1.888   5.379  1.5100 -2.9110  2.3678
   40MOL   H30014418   3.060   2.027   5.642 -0.3981 -1.4775  0.1017
   40MOL   H30114419   3.165   2.073   5.518 -1.0301  0.9195 -1.1428
   40MOL   H30214420   3.274   1.826   5.536  0.6372 -0.0292  0.7754
   40MOL   H30314421   3.187   1.823   5.687 -0.2188  0.2508  0.6623
   40MOL   H30414422   3.268   2.054   5.730 -1.3694 -0.8101 -1.0156
   40MOL   H30514423   3.400   2.026   5.618  0.3003  1.1983  1.1947
   40MOL   H30614424   3.468   1.832   5.736  0.9944  1.0738 -1.8017
   40MOL   H30714425   3.496   1.971   5.833 -0.3824 -0.1547  0.3880
   40MOL   C30814426   3.286   1.889   5.997 -0.9502  0.0181  0.0088
   40MOL   O30914427   3.330   1.985   6.053 -0.6996 -0.4505 -0.0923
   40MOL   C31014428   3.186   1.796   6.066  0.2111  0.4136 -0.0810
   40MOL   C31114429   3.043   1.790   6.006 -0.3055 -0.3795  0.4046
   40MOL   C31214430   2.963   1.921   6.015  0.6038  0.0960  0.0508
   40MOL   C31314431   2.813   1.895   5.977  0.6420  0.2847 -0.0889
   40MOL   C31414432   2.750   2.026   5.943 -0.3340  0.5524 -0.0806
   40MOL   O31514433   2.779   2.128   6.035  0.1983  0.4668 -0.0883
   40MOL   H31614434   3.166   1.827   6.169 -2.2227 -0.2675 -0.3239
   40MOL   H31714435   3.248   1.707   6.081 -0.1939  0.3624  1.3319
   40MOL   H31814436   2.990   1.704   6.047  0.0048 -0.8981 -0.2563
   40MOL   H31914437   3.040   1.766   5.899 -0.5031  0.7440  0.1531
   40MOL   H32014438   3.012   1.989   5.945  0.4510 -0.2207 -0.3584
   40MOL   H32114439   2.968   1.965   6.115 -0.8650 -1.6736  0.9225
   40MOL   H32214440   2.755   1.851   6.057  1.1347  0.0420  0.1349
   40MOL   H32314441   2.804   1.828   5.892 -0.8424  1.6095 -1.0023
   40MOL   H32414442   2.791   2.059   5.847 -0.9228  0.4074 -0.3894
   40MOL   H32514443   2.642   2.010   5.940 -0.0899 -1.3609  0.8385
   40MOL   C32614444   2.683   2.182   6.119  0.3172  1.0082  0.8971
   40MOL   O32714445   2.566   2.149   6.116 -0.1075 -0.5367  0.2422
   40MOL   C32814446   2.737   2.281   6.216 -0.2474  0.1041 -0.0254
   40MOL   C32914447   2.727   2.222   6.363 -0.3930  0.2394 -0.0893
   40MOL   C33014448   2.824   2.110   6.389 -0.1348 -0.2684  0.2525
   40MOL   C33114449   2.975   2.166   6.380 -0.1985  0.2205 -0.2105
   40MOL   C33214450   3.080   2.058   6.412  0.2977 -0.1634 -0.2093
   40MOL   O33314451   3.206   2.104   6.368 -0.4871  0.2171  0.3188
   40MOL   H33414452   2.673   2.369   6.212 -0.4923  0.0187  1.6402
   40MOL   H33514453   2.840   2.304   6.189 -0.3099  0.1027 -0.2660
   40MOL   H33614454   2.625   2.188   6.380 -0.1661  0.6289  2.0898
   40MOL   H33714455   2.737   2.309   6.427 -0.0848  0.8708 -0.9745
   40MOL   H33814456   2.807   2.025   6.324 -0.3653 -0.0065 -0.0327
   40MOL   H33914457   2.799   2.081   6.491 -0.2912  2.8466  1.1525
   40MOL   H34014458   2.988   2.244   6.454  0.3472  1.0680 -1.1795
   40MOL   H34114459   2.993   2.217   6.285  0.8252 -1.4817 -0.9724
   40MOL   H34214460   3.083   2.058   6.521 -1.1306  2.9425 -0.1328
   40MOL   H34314461   3.050   1.962   6.368 -1.6829  0.4271 -0.1986
   40MOL   C34414462   3.314   2.033   6.399 -0.2547 -0.0590  0.6594
   40MOL   O34514463   3.316   1.930   6.467 -0.3168 -0.5106 -0.1865
   40MOL   C34614464   3.443   2.086   6.334  0.4538  0.3735  0.4087
   40MOL   C34714465   3.525   2.202   6.395 -0.0516 -0.5945 -0.1520
   40MOL   C34814466   3.450   2.324   6.443  0.5730 -0.0092 -0.1715
   40MOL   C34914467   3.544   2.442   6.479  0.2678 -0.3193 -0.2112
   40MOL   C35014468   3.630   2.415   6.597 -0.0636 -0.5318  0.5839
   40MOL   O35114469   3.734   2.517   6.600 -0.2405  0.0876 -0.2079
   40MOL   H35214470   3.413   2.132   6.239  0.9452  0.6279  0.3786
   40MOL   H35314471   3.507   2.001   6.310  0.9649  0.5157  1.2401
   40MOL   H35414472   3.598   2.241   6.324  0.3985  2.1850  1.7748
   40MOL   H35514473   3.594   2.159   6.468 -0.5937 -2.0970 -0.4941
   40MOL   H35614474   3.388   2.301   6.529  0.3530  1.2066 -0.0023
   40MOL   H35714475   3.388   2.352   6.358 -0.3175 -1.7994 -0.1231
   40MOL   H35814476   3.483   2.531   6.497  1.9078  0.7876 -0.0171
   40MOL   H35914477   3.598   2.469   6.388  1.2249  2.3415  1.1118
   40MOL   H36014478   3.574   2.417   6.690 -0.3865 -1.8923  0.4269
   40MOL   H36114479   3.679   2.318   6.587 -1.2424 -1.2110  1.2730
   40MOL   H36214480   3.810   2.463   6.588 -0.2442  0.2609 -1.0735
   41MOL     C114481   5.809   0.583   2.439 -0.6312 -0.7558 -0.1696
   41MOL     O214482   5.700   0.549   2.404 -0.5294  0.1106  0.4848
   41MOL     C314483   5.845   0.580   2.586 -0.1203  0.1883 -0.3881
   41MOL     C414484   5.738   0.591   2.697  0.2689 -0.0417 -0.0158
   41MOL     C514485   5.671   0.725   2.687 -0.3044 -0.2197 -0.3596
   41MOL     C614486   5.575   0.755   2.796 -0.2916  0.5285  0.3100
   41MOL     C714487   5.510   0.891   2.773  0.0232 -0.2345  0.2924
   41MOL     O814488   5.437   0.939   2.894  0.4576  0.6404  0.1389
   41MOL     H914489   5.924   0.652   2.606  0.2738 -0.9206  2.2726
   41MOL    H1014490   5.891   0.481   2.592 -0.9918 -0.1585  0.7481
   41MOL    H1114491   5.776   0.575   2.799 -2.4852 -0.3683  0.9969
   41MOL    H1214492   5.659   0.519   2.679 -0.9366  1.1429  0.4567
   41MOL    H1314493   5.626   0.743   2.590 -0.8576  0.2949 -0.0101
   41MOL    H1414494   5.752   0.797   2.695  0.7374 -1.3839 -0.1580
   41MOL    H1514495   5.628   0.752   2.891  0.6456 -2.2426 -0.2506
   41MOL    H1614496   5.491   0.684   2.801 -1.5316  1.8218 -1.8077
   41MOL    H1714497   5.577   0.965   2.729  0.4364 -1.2276 -0.7579
   41MOL    H1814498   5.433   0.884   2.696 -0.7181  1.3717  0.8531
   41MOL    H1914499   5.891   0.620   2.378  0.0053  0.7513  1.5621
   41MOL    C2014500   5.469   1.058   2.959 -0.2391 -0.7177 -0.4838
   41MOL    O2114501   5.560   1.132   2.919  0.4948 -0.2064  0.2995
   41MOL    C2214502   5.401   1.092   3.091 -0.8917  0.3216 -0.1244
   41MOL    C2314503   5.413   1.233   3.156 -0.2409 -0.3080 -0.2569
   41MOL    C2414504   5.345   1.346   3.068  0.1730  0.8121 -0.7369
   41MOL    C2514505   5.338   1.483   3.133  0.1212 -0.5802  0.1638
   41MOL    C2614506   5.246   1.493   3.253  0.2573  0.3811 -0.5328
   41MOL    O2714507   5.115   1.448   3.220  0.1338  0.1938 -0.4590
   41MOL    H2814508   5.428   1.017   3.165  3.3315  1.2692 -0.5805
   41MOL    H2914509   5.297   1.063   3.077  0.3055 -3.1681 -2.3292
   41MOL    H3014510   5.517   1.262   3.171 -0.6750  2.1129 -1.7214
   41MOL    H3114511   5.390   1.235   3.263 -0.6111  0.4358 -0.3484
   41MOL    H3214512   5.242   1.318   3.048 -0.6254  1.5766  2.0133
   41MOL    H3314513   5.399   1.343   2.974  2.8816  1.7434  0.7255
   41MOL    H3414514   5.308   1.555   3.057  0.0731 -1.5284 -0.7383
   41MOL    H3514515   5.432   1.511   3.179 -0.4623 -0.7900  1.5319
   41MOL    H3614516   5.285   1.431   3.334 -0.8759  0.4025  0.0340
   41MOL    H3714517   5.244   1.590   3.301  2.2746 -1.8910  4.4704
   41MOL    C3814518   5.059   1.350   3.285  0.1117 -0.2389  0.8182
   41MOL    O3914519   5.110   1.286   3.381  0.4032 -0.2656  0.2746
   41MOL    C4014520   4.917   1.328   3.233 -0.3103  0.5089  0.1358
   41MOL    C4114521   4.817   1.257   3.325  0.6772  0.3165 -0.1586
   41MOL    C4214522   4.691   1.215   3.254  0.5444 -0.4726  1.1453
   41MOL    C4314523   4.595   1.127   3.333 -0.1748 -0.3868 -0.4926
   41MOL    C4414524   4.474   1.100   3.239 -0.9965  0.7758 -0.3100
   41MOL    O4514525   4.486   0.976   3.176  0.2420 -0.2348  0.3702
   41MOL    H4614526   4.932   1.267   3.144  0.3471  0.9702 -0.0698
   41MOL    H4714527   4.867   1.414   3.188 -2.7127 -0.5047  0.7632
   41MOL    H4814528   4.781   1.324   3.404  0.6617 -0.8601  0.8474
   41MOL    H4914529   4.865   1.173   3.375 -0.5203  0.9187  2.0920
   41MOL    H5014530   4.721   1.161   3.164  0.5585 -0.3076  1.0513
   41MOL    H5114531   4.642   1.307   3.221  3.1994  0.4189 -0.4465
   41MOL    H5214532   4.573   1.178   3.427 -1.2589 -2.2464  0.3025
   41MOL    H5314533   4.639   1.034   3.369  0.6758 -0.5178 -1.8426
   41MOL    H5414534   4.395   1.077   3.311 -0.9331  0.0041 -0.4805
   41MOL    H5514535   4.445   1.184   3.176 -2.9592  0.0750 -0.3680
   41MOL    C5614536   4.382   0.924   3.107 -0.2302  0.4878 -0.1036
   41MOL    O5714537   4.295   0.993   3.051 -0.3976 -0.0461  0.3962
   41MOL    C5814538   4.362   0.774   3.112  0.3727 -0.1038  0.7029
   41MOL    C5914539   4.441   0.705   3.224 -0.2949 -0.1028 -0.1682
   41MOL    C6014540   4.378   0.732   3.363 -0.5578 -0.6440 -0.1550
   41MOL    C6114541   4.473   0.681   3.473  0.0876  0.9612 -0.2408
   41MOL    C6214542   4.409   0.686   3.612  0.2377 -0.2310  0.5022
   41MOL    O6314543   4.341   0.565   3.648 -0.1432 -0.4569 -0.4003
   41MOL    H6414544   4.385   0.733   3.014 -0.1627 -2.2335  1.4395
   41MOL    H6514545   4.257   0.745   3.113  0.3205 -0.0752 -1.3744
   41MOL    H6614546   4.543   0.742   3.231 -1.3049  2.6402  0.3978
   41MOL    H6714547   4.445   0.598   3.202 -0.8170 -0.3002  0.6729
   41MOL    H6814548   4.277   0.692   3.365  0.0215 -2.2125 -1.0201
   41MOL    H6914549   4.374   0.840   3.373 -0.6877 -0.5243 -1.5072
   41MOL    H7014550   4.563   0.742   3.479  1.2568 -0.9089  2.0712
   41MOL    H7114551   4.505   0.582   3.442 -2.1950 -0.8547  2.8526
   41MOL    H7214552   4.470   0.706   3.700  1.5560 -1.0216 -0.2338
   41MOL    H7314553   4.335   0.767   3.612  0.5523  0.0769 -1.2632
   41MOL    C7414554   4.411   0.457   3.688 -0.2450  0.2290  0.1346
   41MOL    O7514555   4.526   0.456   3.729  0.3427  0.1554  0.3190
   41MOL    C7614556   4.325   0.332   3.670 -0.6905 -0.1282  0.1043
   41MOL    C7714557   4.241   0.332   3.535  0.2468  0.0537  0.0300
   41MOL    C7814558   4.140   0.220   3.505  0.3751 -0.4141  0.1495
   41MOL    C7914559   4.048   0.248   3.389 -0.2092 -0.1503 -0.0123
   41MOL    C8014560   3.915   0.310   3.432 -0.8731  0.4138  0.4939
   41MOL    O8114561   3.824   0.221   3.499  0.2983  0.2261  0.7690
   41MOL    H8214562   4.262   0.334   3.759  0.9916  0.9020  1.3221
   41MOL    H8314563   4.385   0.243   3.687 -3.5924 -2.0244  0.7350
   41MOL    H8414564   4.310   0.334   3.451  0.0495  0.6889 -0.1210
   41MOL    H8514565   4.185   0.425   3.530 -0.8302 -0.5114  1.2984
   41MOL    H8614566   4.081   0.208   3.596 -0.5823  1.0944 -0.2423
   41MOL    H8714567   4.177   0.119   3.486  1.3676  0.3850 -2.4574
   41MOL    H8814568   4.033   0.152   3.340  1.7156 -0.3587 -0.2581
   41MOL    H8914569   4.083   0.316   3.312  1.7728  0.3963  1.3337
   41MOL    H9014570   3.942   0.394   3.497 -0.9302 -0.8341  2.1689
   41MOL    H9114571   3.856   0.352   3.351 -2.1034  0.6090  1.4720
   41MOL    C9214572   3.746   0.264   3.595 -0.0431  0.0535 -0.7725
   41MOL    O9314573   3.739   0.380   3.644 -0.0355 -0.3668 -0.3735
   41MOL    C9414574   3.659   0.153   3.647  0.7560  0.4753  0.0168
   41MOL    C9514575   3.730   0.029   3.713  0.0629  0.0807  0.1230
   41MOL    C9614576   3.644   7.772   3.775  0.8942  0.0040  0.1917
   41MOL    C9714577   3.723   7.674   3.861 -0.7526 -0.9016  0.3826
   41MOL    C9814578   3.625   7.566   3.908 -0.5481  0.4652 -0.2533
   41MOL    O9914579   3.700   7.456   3.952  0.3874  0.6513  1.0173
   41MOL   H10014580   3.602   0.095   3.574 -0.7696  1.2957  0.5410
   41MOL   H10114581   3.578   0.206   3.695  2.3432  2.5342  0.4824
   41MOL   H10214582   3.803   0.060   3.788  1.2866  0.2898 -1.1366
   41MOL   H10314583   3.795   7.833   3.636 -0.9890  0.1840 -0.8459
   41MOL   H10414584   3.598   7.719   3.692  0.2328 -1.2704  1.3495
   41MOL   H10514585   3.568   7.820   3.837  2.1350  1.7008  0.4513
   41MOL   H10614586   3.776   7.715   3.947  0.0460 -0.9162 -0.0908
   41MOL   H10714587   3.799   7.622   3.801 -1.3623  0.0776 -1.2709
   41MOL   H10814588   3.555   7.604   3.982  0.9490  1.1186  0.8547
   41MOL   H10914589   3.570   7.526   3.823 -2.6587 -0.9626  1.7075
   41MOL   C11014590   3.660   7.384   4.059 -0.3169  0.1800 -0.2932
   41MOL   O11114591   3.570   7.416   4.132  0.3734 -0.6218 -0.1074
   41MOL   C11214592   3.758   7.272   4.085 -0.0741 -0.0422  0.2168
   41MOL   C11314593   3.712   7.142   4.023  0.3137  0.0983 -0.0479
   41MOL   C11414594   3.653   7.047   4.130 -0.1665 -0.0937 -0.3393
   41MOL   C11514595   3.599   6.922   4.064  0.9208 -0.0601 -0.3754
   41MOL   C11614596   3.571   6.815   4.165  0.6671 -0.1516 -0.1964
   41MOL   O11714597   3.514   6.703   4.099 -0.1527 -0.5578  0.2897
   41MOL   H11814598   3.787   7.258   4.189  0.6085  0.4057  0.0935
   41MOL   H11914599   3.853   7.294   4.036 -0.3165 -1.5536 -0.9647
   41MOL   H12014600   3.800   7.103   3.971  0.0358 -2.1094  1.0524
   41MOL   H12114601   3.639   7.161   3.945  0.4198 -0.0642 -0.1874
   41MOL   H12214602   3.583   7.101   4.194  0.7021  1.8964 -1.0365
   41MOL   H12314603   3.737   7.024   4.195  0.7619  1.1358 -1.0843
   41MOL   H12414604   3.669   6.897   3.985  1.4892  1.5402 -0.3994
   41MOL   H12514605   3.511   6.949   4.006  0.7200 -0.5911 -0.3216
   41MOL   H12614606   3.657   6.792   4.228 -0.0054 -0.0908  0.7491
   41MOL   H12714607   3.496   6.872   4.220  0.4143 -1.6427  1.0385
   41MOL   C12814608   3.592   6.594   4.070  0.4175  0.2291  0.7520
   41MOL   O12914609   3.712   6.584   4.096 -0.2237  0.1462  0.2886
   41MOL   C13014610   3.517   6.480   3.995 -0.3997 -0.0181 -0.3086
   41MOL   C13114611   3.591   6.342   4.016 -0.0515  0.4470 -0.3293
   41MOL   C13214612   3.518   6.226   3.942  0.3067  0.1416 -0.4755
   41MOL   C13314613   3.593   6.095   3.932  0.4780  0.2922  0.4547
   41MOL   C13414614   3.520   6.000   3.838 -0.0622  0.7886  0.5458
   41MOL   O13514615   3.588   5.871   3.822  0.1281  0.1088 -0.8736
   41MOL   H13614616   3.510   6.498   3.887 -2.3716 -0.5261 -0.2948
   41MOL   H13714617   3.415   6.475   4.033 -0.3128  2.2186  0.2522
   41MOL   H13814618   3.620   6.326   4.120  4.6544  2.1498 -1.2369
   41MOL   H13914619   3.685   6.365   3.965  1.0252 -0.5981  1.1381
   41MOL   H14014620   3.482   6.261   3.845 -1.4290 -1.1195 -0.3099
   41MOL   H14114621   3.420   6.213   3.987  0.5825  0.7011  0.3065
   41MOL   H14214622   3.608   6.042   4.026 -0.7346 -0.5802  0.1728
   41MOL   H14314623   3.694   6.113   3.894  0.2151 -1.3819 -1.1114
   41MOL   H14414624   3.419   5.987   3.877 -1.0126  0.7341 -1.8864
   41MOL   H14514625   3.529   6.040   3.738  0.6666 -0.7309 -0.0162
   41MOL   C14614626   3.600   5.783   3.918 -0.4505  0.5479  0.3027
   41MOL   O14714627   3.555   5.790   4.030 -0.1135 -0.2740  0.0734
   41MOL   C14814628   3.676   5.657   3.874 -0.1414  0.7381  0.3289
   41MOL   C14914629   3.819   5.663   3.922 -0.9696 -0.2564 -0.1704
   41MOL   C15014630   3.903   5.540   3.898 -0.4269  0.0138  0.1752
   41MOL   C15114631   4.035   5.516   3.980 -0.0019 -0.1318 -0.0859
   41MOL   C15214632   4.089   5.377   3.949  0.5793 -0.5475  0.0283
   41MOL   O15314633   4.216   5.346   4.014  0.0444 -0.3564  0.7318
   41MOL   H15414634   3.672   5.657   3.765  2.2126  1.3515  0.2089
   41MOL   H15514635   3.627   5.566   3.908  1.5668 -1.3939 -2.7084
   41MOL   H15614636   3.833   5.673   4.030  1.3009 -2.9105 -0.1548
   41MOL   H15714637   3.872   5.750   3.884  0.1581 -1.5304 -1.5879
   41MOL   H15814638   3.928   5.532   3.792  2.5019  0.2905  0.8078
   41MOL   H15914639   3.833   5.458   3.913  1.7016 -2.1324 -1.2988
   41MOL   H16014640   4.010   5.534   4.084 -0.5012  4.6505 -0.9186
   41MOL   H16114641   4.120   5.581   3.957  0.5254 -0.2172  1.6253
   41MOL   H16214642   4.021   5.297   3.977  2.4976 -1.4821  2.1379
   41MOL   H16314643   4.103   5.368   3.841 -1.9518 -0.2138 -0.3575
   41MOL   C16414644   4.301   5.249   3.960  0.6524 -0.3392  0.3623
   41MOL   O16514645   4.291   5.194   3.852 -0.6168 -0.3816 -0.0579
   41MOL   C16614646   4.426   5.214   4.051 -0.2455  0.1967 -0.4759
   41MOL   C16714647   4.447   5.063   4.070  0.2024  0.0538  0.0511
   41MOL   C16814648   4.362   5.009   4.177 -0.0814  0.1691 -0.0892
   41MOL   C16914649   4.355   4.861   4.184  0.0052  0.7939  0.0008
   41MOL   C17014650   4.255   4.807   4.292  0.1144 -0.1145  0.1615
   41MOL   O17114651   4.289   4.864   4.419  0.1230 -0.3795  0.1735
   41MOL   H17214652   4.425   5.273   4.142 -0.7994  1.1915 -1.1205
   41MOL   H17314653   4.513   5.258   4.004  0.5191 -0.2198  0.5315
   41MOL   H17414654   4.551   5.049   4.098 -0.2979 -1.3961  1.2670
   41MOL   H17514655   4.422   5.011   3.978  1.7409  0.9193 -0.8811
   41MOL   H17614656   4.256   5.031   4.167 -0.2064 -1.7635 -3.5941
   41MOL   H17714657   4.394   5.064   4.265 -0.2811  0.1664 -0.0156
   41MOL   H17814658   4.455   4.822   4.205 -0.2195 -0.5809 -1.3781
   41MOL   H17914659   4.329   4.813   4.090  1.6762  0.0840 -0.1205
   41MOL   H18014660   4.150   4.824   4.268  0.0056 -1.5478 -0.3800
   41MOL   H18114661   4.269   4.699   4.295 -2.1387 -0.4622 -1.3600
   41MOL   C18214662   4.396   4.830   4.487  0.7465  0.5443  0.2209
   41MOL   O18314663   4.469   4.736   4.461 -0.6190  0.2013  0.1025
   41MOL   C18414664   4.407   4.915   4.613 -0.3424  0.5969  0.1459
   41MOL   C18514665   4.408   5.069   4.598 -0.2055 -0.4714  0.5745
   41MOL   C18614666   4.468   5.137   4.725 -0.3384  0.1218  0.4168
   41MOL   C18714667   4.482   5.290   4.707  0.6513  0.1369  0.2753
   41MOL   C18814668   4.548   5.360   4.827  0.1452 -0.1741 -0.1525
   41MOL   O18914669   4.684   5.334   4.843 -0.5852 -0.6688  0.0697
   41MOL   H19014670   4.502   4.892   4.660 -0.0860 -0.8957 -1.0633
   41MOL   H19114671   4.339   4.886   4.694 -0.3710  0.1101 -0.0478
   41MOL   H19214672   4.309   5.109   4.579  0.0991  0.3474  0.6690
   41MOL   H19314673   4.466   5.092   4.508  0.6850 -0.9168  1.0349
   41MOL   H19414674   4.561   5.097   4.766 -0.2974  0.6165  0.8171
   41MOL   H19514675   4.390   5.112   4.798 -1.6945  0.3336 -0.9521
   41MOL   H19614676   4.380   5.323   4.692  1.0429  1.1100 -0.2811
   41MOL   H19714677   4.527   5.303   4.608 -1.2986 -2.2481 -1.0156
   41MOL   H19814678   4.537   5.467   4.812 -1.3821 -0.4983 -1.4275
   41MOL   H19914679   4.499   5.350   4.924  2.0781 -2.7185  0.6222
   41MOL   C20014680   4.732   5.255   4.938  0.8778 -0.6808 -0.3168
   41MOL   O20114681   4.658   5.184   5.010  0.1655  0.7233  0.5036
   41MOL   C20214682   4.878   5.243   4.939 -0.7099  0.2820 -0.4508
   41MOL   C20314683   4.947   5.358   5.022 -0.2657  0.0573 -0.4004
   41MOL   C20414684   4.988   5.330   5.167 -0.8068 -0.6006  0.4346
   41MOL   C20514685   5.025   5.450   5.255  0.6558 -0.4876  0.1923
   41MOL   C20614686   5.082   5.411   5.389  0.4836 -0.2604 -0.0828
   41MOL   O20714687   5.106   5.537   5.459 -0.0770 -0.3911  0.3384
   41MOL   H20814688   4.909   5.255   4.835  0.9000 -2.6844 -0.3559
   41MOL   H20914689   4.903   5.148   4.986 -1.3279  0.8988  1.1483
   41MOL   H21014690   4.898   5.455   5.014 -0.8107 -0.3764 -2.5201
   41MOL   H21114691   5.042   5.378   4.973 -2.0380  3.2270 -2.7247
   41MOL   H21214692   5.070   5.259   5.168  1.4771  1.9764  2.1433
   41MOL   H21314693   4.909   5.278   5.223  0.7332 -2.0416  1.3439
   41MOL   H21414694   4.939   5.516   5.259  1.7968  0.9509  3.0572
   41MOL   H21514695   5.095   5.517   5.205 -1.0334  0.2146 -1.2902
   41MOL   H21614696   5.015   5.339   5.438  1.8285 -1.2074  0.3963
   41MOL   H21714697   5.171   5.349   5.389  1.0455  0.5211 -2.2353
   41MOL   C21814698   5.037   5.555   5.574 -0.0612 -0.3849  0.3392
   41MOL   O21914699   4.963   5.474   5.632  0.1738  0.6542  0.2112
   41MOL   C22014700   5.049   5.700   5.616  0.3174 -0.5056 -0.7639
   41MOL   C22114701   4.961   5.798   5.531 -0.5802 -0.0862 -0.2020
   41MOL   C22214702   4.807   5.791   5.550  0.6673  0.6104  0.0716
   41MOL   C22314703   4.744   5.866   5.433  0.3715 -0.1263  0.6786
   41MOL   C22414704   4.589   5.882   5.434 -0.5025  0.3081 -0.6022
   41MOL   O22514705   4.529   5.754   5.437  0.3544 -0.0817 -0.0036
   41MOL   H22614706   5.155   5.725   5.622  0.3405 -0.4653 -1.2932
   41MOL   H22714707   5.014   5.710   5.718 -1.3325 -1.4618 -1.2300
   41MOL   H22814708   4.987   5.777   5.427  0.3958 -2.7934  0.5576
   41MOL   H22914709   5.012   5.892   5.551  0.3583 -0.0722 -2.5135
   41MOL   H23014710   4.776   5.811   5.653 -1.8289 -1.3154 -0.2696
   41MOL   H23114711   4.786   5.685   5.533 -0.4637  0.6075  1.3681
   41MOL   H23214712   4.767   5.818   5.338 -0.5028 -0.2005  0.4982
   41MOL   H23314713   4.784   5.967   5.433 -2.0065  0.8795  3.1120
   41MOL   H23414714   4.559   5.932   5.527 -2.2900 -0.2767 -0.8443
   41MOL   H23514715   4.564   5.936   5.343  0.7705  1.4451 -0.2915
   41MOL   C23614716   4.474   5.702   5.555 -0.6071  0.3179 -0.8547
   41MOL   O23714717   4.464   5.762   5.663  0.2689 -0.0600  0.1936
   41MOL   C23814718   4.403   5.563   5.532  0.0696 -0.3720 -0.4381
   41MOL   C23914719   4.505   5.449   5.514  0.3042  0.3315 -0.1645
   41MOL   C24014720   4.559   5.426   5.371 -0.9195 -0.4912 -0.9139
   41MOL   C24114721   4.651   5.302   5.354 -0.4586  0.1658 -0.4353
   41MOL   C24214722   4.573   5.170   5.329  0.3648 -0.1177 -0.2665
   41MOL   O24314723   4.660   5.066   5.301  0.0618  0.0820  0.1152
   41MOL   H24414724   4.342   5.571   5.442  2.7319 -1.0902 -2.3732
   41MOL   H24514725   4.339   5.530   5.614 -0.7170  1.0644 -0.4702
   41MOL   H24614726   4.447   5.357   5.529 -1.3386  1.0480 -1.8381
   41MOL   H24714727   4.587   5.460   5.585 -0.3658 -0.1313  0.6941
   41MOL   H24814728   4.602   5.520   5.337 -1.7102  0.1296 -0.2297
   41MOL   H24914729   4.481   5.407   5.298 -4.2097 -2.8577  2.9542
   41MOL   H25014730   4.721   5.299   5.437 -0.8058  2.0621 -0.0544
   41MOL   H25114731   4.711   5.322   5.265  1.8066  0.1122  1.0673
   41MOL   H25214732   4.514   5.153   5.419  0.9822 -1.4180 -0.1041
   41MOL   H25314733   4.500   5.188   5.250 -0.1077 -2.3722 -0.3732
   41MOL   C25414734   4.606   4.956   5.261  0.1439  0.1293 -0.2680
   41MOL   O25514735   4.487   4.926   5.256 -0.0429 -0.4674 -0.3348
   41MOL   C25614736   4.713   4.861   5.225 -0.5211 -0.3946  0.3725
   41MOL   C25714737   4.728   4.850   5.068 -0.6428  0.1423  0.4145
   41MOL   C25814738   4.735   4.700   5.035  0.3598  0.4464 -0.5670
   41MOL   C25914739   4.854   4.628   5.093 -0.2620 -0.1313 -0.3763
   41MOL   C26014740   4.866   4.488   5.039 -1.1033 -0.3918  0.1951
   41MOL   O26114741   4.970   4.417   5.099 -0.6915 -0.1475  0.0332
   41MOL   H26214742   4.683   4.764   5.266 -1.2144 -0.8404 -1.1134
   41MOL   H26314743   4.809   4.893   5.263 -0.1800 -1.2031  0.1991
   41MOL   H26414744   4.819   4.898   5.033 -1.9358  2.1233 -0.2987
   41MOL   H26514745   4.646   4.901   5.017  0.8942  0.8675 -1.3788
   41MOL   H26614746   4.734   4.694   4.927  0.1068 -1.9387 -0.4546
   41MOL   H26714747   4.643   4.657   5.075  1.2541 -0.2904  0.7321
   41MOL   H26814748   4.845   4.626   5.201  1.8265  0.2711 -0.1714
   41MOL   H26914749   4.943   4.686   5.069  1.3015 -1.3305  2.2342
   41MOL   H27014750   4.771   4.435   5.039 -1.0476 -0.5415  3.0363
   41MOL   H27114751   4.899   4.482   4.935  0.3954 -2.0778  0.7367
   41MOL   C27214752   5.100   4.440   5.069  0.0002 -0.0106  0.6182
   41MOL   O27314753   5.145   4.506   4.978  0.4207 -0.9789  0.2772
   41MOL   C27414754   5.190   4.351   5.156  0.1294 -0.5236 -0.5323
   41MOL   C27514755   5.219   4.403   5.299 -0.3439 -0.3233  0.4469
   41MOL   C27614756   5.094   4.411   5.394  0.2677  0.0669  1.1136
   41MOL   C27714757   5.132   4.450   5.533  0.7624 -0.6001 -0.0367
   41MOL   C27814758   5.018   4.487   5.626 -0.5205  0.1614 -0.3482
   41MOL   O27914759   5.062   4.551   5.745  0.2317  0.4642 -0.5446
   41MOL   H28014760   5.287   4.352   5.106  1.5393  3.0887  2.0706
   41MOL   H28114761   5.149   4.250   5.153 -1.1553 -0.2221  3.3112
   41MOL   H28214762   5.274   4.497   5.293 -1.6548  0.3588 -1.2572
   41MOL   H28314763   5.285   4.332   5.349  1.0167  1.1287  0.7647
   41MOL   H28414764   5.052   4.310   5.394 -1.8189  0.8915 -0.7677
   41MOL   H28514765   5.014   4.477   5.362  0.0804  0.4560  2.3658
   41MOL   H28614766   5.187   4.544   5.523 -1.2039  0.6529  0.4903
   41MOL   H28714767   5.199   4.385   5.589 -1.1304 -1.9199  0.7755
   41MOL   H28814768   4.956   4.554   5.567  0.7445  1.1013 -0.6234
   41MOL   H28914769   4.967   4.391   5.629 -0.5311  0.0409 -3.1417
   41MOL   C29014770   5.074   4.483   5.855  0.3403 -0.3073 -0.8354
   41MOL   O29114771   5.047   4.364   5.879 -0.3394 -0.4496 -0.2546
   41MOL   C29214772   5.158   4.566   5.959  0.7253 -0.1529 -0.3057
   41MOL   C29314773   5.144   4.523   6.106  0.2046  0.4624 -0.2998
   41MOL   C29414774   4.997   4.534   6.165 -0.7558 -0.1587  0.1730
   41MOL   C29514775   4.987   4.466   6.302 -0.1020  0.8546 -0.1294
   41MOL   C29614776   4.870   4.514   6.380  0.6425 -0.3454 -0.1699
   41MOL   O29714777   4.832   4.419   6.483  0.1845  0.3571 -0.0304
   41MOL   H29814778   5.124   4.670   5.955 -0.5953 -0.5934 -0.6754
   41MOL   H29914779   5.259   4.554   5.922  0.9833 -2.7167  1.1538
   41MOL   H30014780   5.222   4.581   6.155 -0.2230  2.0889 -1.4722
   41MOL   H30114781   5.175   4.419   6.102  2.0205  0.9985 -0.3482
   41MOL   H30214782   4.913   4.513   6.099  0.4249 -0.5215 -1.2415
   41MOL   H30314783   4.992   4.640   6.188 -1.7683 -0.5412  1.7997
   41MOL   H30414784   5.079   4.486   6.356 -0.8912  0.8931  1.2036
   41MOL   H30514785   4.975   4.358   6.290  2.6351  0.5915 -0.8058
   41MOL   H30614786   4.892   4.611   6.425  1.6099  1.0340 -3.4054
   41MOL   H30714787   4.782   4.519   6.315 -0.7479 -1.7704  1.5743
   41MOL   C30814788   4.873   4.449   6.615  0.2323  0.2357  0.1315
   41MOL   O30914789   4.945   4.543   6.649 -0.3362 -0.0134  0.3316
   41MOL   C31014790   4.819   4.346   6.718 -0.1016 -0.0911  0.1424
   41MOL   C31114791   4.851   4.195   6.686  0.5842  1.1279  0.6845
   41MOL   C31214792   4.999   4.150   6.656  0.0834 -0.9453 -0.2313
   41MOL   C31314793   5.025   4.009   6.596  0.5552  1.2375  1.0069
   41MOL   C31414794   4.952   3.892   6.671 -0.3251 -0.4669 -0.1990
   41MOL   O31514795   5.013   3.867   6.795 -0.4388 -0.1457  0.2667
   41MOL   H31614796   4.711   4.343   6.727 -0.0167 -2.3193  0.8052
   41MOL   H31714797   4.867   4.377   6.811 -0.6891 -1.1934  0.8186
   41MOL   H31814798   4.795   4.175   6.595  2.1452  1.0046 -0.2793
   41MOL   H31914799   4.804   4.141   6.768 -0.4960  0.6243 -0.2568
   41MOL   H32014800   5.066   4.149   6.741 -1.6455  0.3474  1.1892
   41MOL   H32114801   5.042   4.234   6.602  2.1910 -2.6425 -1.2657
   41MOL   H32214802   5.129   3.983   6.613  0.5105  0.8642  0.7240
   41MOL   H32314803   5.009   4.004   6.489 -0.4402  0.3500  1.1864
   41MOL   H32414804   4.847   3.921   6.683 -0.3086 -0.1613 -0.7686
   41MOL   H32514805   4.965   3.798   6.617 -0.2874  0.2697 -1.4926
   41MOL   C32614806   5.021   3.751   6.858 -0.6264 -0.8030 -0.7251
   41MOL   O32714807   4.965   3.646   6.833 -0.1060 -0.2418  0.1495
   41MOL   C32814808   5.117   3.750   6.976  0.6800 -0.6080  0.6488
   41MOL   C32914809   5.247   3.684   6.960 -0.2187  0.0839  0.3036
   41MOL   C33014810   5.329   3.761   6.854 -0.3415  0.1608  0.2586
   41MOL   C33114811   5.480   3.729   6.878  0.1626 -0.0180  0.2352
   41MOL   C33214812   5.565   3.772   6.757  0.4132  0.6439  0.2050
   41MOL   O33314813   5.501   3.737   6.633  0.1484  0.2476 -0.6997
   41MOL   H33414814   5.071   3.726   7.072  0.9062  0.9604  1.1558
   41MOL   H33514815   5.129   3.858   6.977 -1.5297 -0.3189  0.1075
   41MOL   H33614816   5.232   3.578   6.938  1.9777  0.1216 -1.5316
   41MOL   H33714817   5.285   3.687   7.062  0.8369  1.4679 -0.1141
   41MOL   H33814818   5.319   3.869   6.866  1.1510  0.5507 -1.6594
   41MOL   H33914819   5.278   3.746   6.759 -2.4116  1.0672  1.2048
   41MOL   H34014820   5.480   3.622   6.902 -1.7579 -0.3584 -1.1917
   41MOL   H34114821   5.509   3.778   6.971  0.1670 -1.6654  1.1354
   41MOL   H34214822   5.573   3.880   6.755  0.9972  0.6375  1.9369
   41MOL   H34314823   5.664   3.725   6.756 -1.1016 -2.6764  0.9059
   41MOL   C34414824   5.564   3.756   6.514 -0.5222 -0.7398 -0.7035
   41MOL   O34514825   5.669   3.818   6.494  0.1753 -0.4547  0.4518
   41MOL   C34614826   5.486   3.688   6.394 -0.1617 -0.0069 -0.2057
   41MOL   C34714827   5.533   3.547   6.351  0.8756  0.8779  0.2113
   41MOL   C34814828   5.662   3.540   6.274  1.0039 -0.3039 -0.2848
   41MOL   C34914829   5.691   3.401   6.207 -0.5709  0.1551  0.0147
   41MOL   C35014830   5.840   3.368   6.188  0.3046 -0.2283  0.0315
   41MOL   O35114831   5.906   3.451   6.093 -0.0281  0.4005  0.2870
   41MOL   H35214832   5.479   3.755   6.308 -2.5390  2.5330  1.8882
   41MOL   H35314833   5.383   3.688   6.432  0.5571 -0.9989  1.8342
   41MOL   H35414834   5.447   3.497   6.305 -0.1812  1.8163  1.1281
   41MOL   H35514835   5.556   3.486   6.438  0.2670 -0.3250 -0.4471
   41MOL   H35614836   5.743   3.573   6.339  0.8271  2.8756 -1.5987
   41MOL   H35714837   5.659   3.618   6.198  1.1886 -1.9964 -2.0496
   41MOL   H35814838   5.636   3.398   6.113  1.7730 -1.1031 -1.3745
   41MOL   H35914839   5.658   3.328   6.280  3.3214 -1.4654  0.3150
   41MOL   H36014840   5.896   3.388   6.279  3.8537  2.3806 -2.5738
   41MOL   H36114841   5.867   3.265   6.166  1.1593  0.0406 -0.1842
   41MOL   H36214842   5.898   3.420   6.004 -0.5524 -2.4736  1.2770
   42MOL     C114843   2.636   5.619   4.275  1.0712  0.2316 -1.2863
   42MOL     O214844   2.652   5.568   4.167  0.0481 -0.2826 -0.1357
   42MOL     C314845   2.528   5.735   4.297 -0.3853  0.6414 -0.0754
   42MOL     C414846   2.450   5.765   4.169 -0.1644  0.3106  0.6668
   42MOL     C514847   2.328   5.850   4.191 -0.0461  0.1394  0.1315
   42MOL     C614848   2.237   5.854   4.067 -0.1687  1.0949 -0.3919
   42MOL     C714849   2.128   5.958   4.084 -0.5317  0.2084  0.3716
   42MOL     O814850   2.176   6.086   4.062  0.2244  0.6410 -0.0356
   42MOL     H914851   2.587   5.826   4.304 -0.3772  0.7118 -0.9750
   42MOL    H1014852   2.465   5.700   4.379 -1.3527 -1.0713 -1.5081
   42MOL    H1114853   2.412   5.674   4.122  1.1069 -0.1242  0.4610
   42MOL    H1214854   2.509   5.811   4.089 -0.0125 -0.6653  0.2101
   42MOL    H1314855   2.368   5.946   4.225  0.6161 -0.5592  1.3785
   42MOL    H1414856   2.266   5.810   4.271 -2.1424  0.2723 -1.3899
   42MOL    H1514857   2.187   5.758   4.056  0.6008  0.5882  0.4338
   42MOL    H1614858   2.298   5.878   3.980  0.9815  0.5913  0.2518
   42MOL    H1714859   2.046   5.934   4.016 -0.4711  3.6685 -1.0626
   42MOL    H1814860   2.091   5.948   4.186  2.8252 -1.3995  1.4855
   42MOL    H1914861   2.682   5.581   4.366 -0.7639  3.7345  1.2582
   42MOL    C2014862   2.116   6.158   3.965  0.7247 -0.1460  0.2154
   42MOL    O2114863   2.016   6.124   3.905  0.0638 -0.3844 -0.5249
   42MOL    C2214864   2.196   6.292   3.941 -0.6495 -0.3002  0.0667
   42MOL    C2314865   2.125   6.379   3.827 -0.4475  0.3904  0.0441
   42MOL    C2414866   2.006   6.459   3.870 -0.2043  0.6594 -0.2603
   42MOL    C2514867   1.956   6.565   3.760 -0.4685 -0.1100  0.2520
   42MOL    C2614868   1.865   6.669   3.819  0.7318 -0.3726 -0.1602
   42MOL    O2714869   1.746   6.615   3.862 -0.1879 -0.0898 -0.7027
   42MOL    H2814870   2.302   6.270   3.929 -0.9627 -1.1685 -1.1779
   42MOL    H2914871   2.198   6.352   4.032 -0.0220  0.8880 -0.7284
   42MOL    H3014872   2.097   6.322   3.739 -1.1204  0.8568 -0.0546
   42MOL    H3114873   2.207   6.439   3.789 -0.8167  1.1506  0.4229
   42MOL    H3214874   2.027   6.506   3.966 -0.2168 -0.0799  0.1085
   42MOL    H3314875   1.925   6.389   3.889  0.5679  0.3245  1.8924
   42MOL    H3414876   1.901   6.511   3.683 -2.2354  1.5881  0.2971
   42MOL    H3514877   2.042   6.621   3.723 -0.3781  0.9480  1.9826
   42MOL    H3614878   1.905   6.727   3.902 -0.9035 -0.0059  0.3903
   42MOL    H3714879   1.839   6.746   3.745 -1.8614  1.7553  2.8471
   42MOL    C3814880   1.670   6.676   3.946  0.4425 -0.3451 -0.6416
   42MOL    O3914881   1.684   6.793   3.981 -0.1445 -0.3752 -0.7154
   42MOL    C4014882   1.550   6.592   3.993  0.4223 -0.6277 -0.3055
   42MOL    C4114883   1.446   6.579   3.873 -0.0613 -0.3089  0.4522
   42MOL    C4214884   1.466   6.447   3.798  0.3200 -0.1658 -0.7831
   42MOL    C4314885   1.353   6.425   3.694  0.3021 -0.3002  0.4551
   42MOL    C4414886   1.372   6.500   3.560 -0.6737  0.5321  0.4310
   42MOL    O4514887   1.282   6.469   3.462 -0.0144 -0.4327 -0.2583
   42MOL    H4614888   1.498   6.643   4.074 -0.7554 -1.9138 -0.2286
   42MOL    H4714889   1.583   6.500   4.041  0.9321 -0.1734  0.2222
   42MOL    H4814890   1.454   6.665   3.806  1.1807 -1.1628 -0.5186
   42MOL    H4914891   1.348   6.585   3.922  0.4788 -0.3515  1.5595
   42MOL    H5014892   1.466   6.369   3.874  2.2397  0.3607 -0.2308
   42MOL    H5114893   1.557   6.445   3.737  0.0353 -0.2644 -1.2101
   42MOL    H5214894   1.252   6.445   3.731 -0.2680  0.6414 -1.5028
   42MOL    H5314895   1.354   6.316   3.682 -0.4054 -0.2812  0.1849
   42MOL    H5414896   1.387   6.606   3.580  1.8376  0.1835  0.4902
   42MOL    H5514897   1.461   6.458   3.514 -0.2396  1.2559  0.5975
   42MOL    C5614898   1.181   6.557   3.436  0.4564  0.0715 -0.4641
   42MOL    O5714899   1.172   6.660   3.490 -0.3990 -0.2950  0.2006
   42MOL    C5814900   1.079   6.519   3.330  0.1604 -0.3161 -0.0840
   42MOL    C5914901   1.016   6.379   3.371  0.2250  0.2628 -0.3740
   42MOL    C6014902   0.956   6.315   3.240 -0.6743  0.1909  0.2539
   42MOL    C6114903   0.922   6.170   3.254  0.1569 -0.4008 -0.5353
   42MOL    C6214904   0.855   6.118   3.124  0.5601  0.8868 -0.1730
   42MOL    O6314905   0.841   5.972   3.141 -0.4147 -0.1834 -0.5127
   42MOL    H6414906   1.125   6.515   3.231 -0.6068  0.0695 -0.4680
   42MOL    H6514907   1.001   6.595   3.316 -1.6760 -2.2179 -0.5158
   42MOL    H6614908   0.940   6.408   3.444  0.6338  1.6181 -0.4779
   42MOL    H6714909   1.084   6.306   3.417 -0.0916 -1.6945 -2.8885
   42MOL    H6814910   1.038   6.324   3.168 -0.2923 -0.5252  0.5954
   42MOL    H6914911   0.874   6.365   3.189  0.3384  1.2200 -0.3772
   42MOL    H7014912   0.853   6.160   3.338  2.9916 -2.4906  1.6351
   42MOL    H7114913   1.010   6.106   3.261  0.5514  0.2833  0.9330
   42MOL    H7214914   0.758   6.152   3.087 -0.3056 -0.9063  0.3530
   42MOL    H7314915   0.921   6.139   3.040  1.2182 -0.5306 -0.0372
   42MOL    C7414916   0.917   5.886   3.075  0.3437 -0.4936 -0.5498
   42MOL    O7514917   1.028   5.915   3.026 -0.1099 -0.0916  0.0105
   42MOL    C7614918   0.859   5.749   3.075 -0.2295  0.6040 -0.6859
   42MOL    C7714919   0.922   5.651   2.978  0.0734  0.4571 -0.4851
   42MOL    C7814920   0.895   5.681   2.828 -0.2181 -0.3476  0.0608
   42MOL    C7914921   0.995   5.609   2.730 -0.4392 -1.1047  0.6428
   42MOL    C8014922   0.947   5.646   2.584 -0.5092  0.1074 -0.3807
   42MOL    O8114923   0.927   5.791   2.574 -0.5402  0.3632  0.0354
   42MOL    H8214924   0.753   5.759   3.052 -0.2593 -0.5903 -1.0947
   42MOL    H8314925   0.864   5.712   3.178 -0.6300 -0.6375 -1.1001
   42MOL    H8414926   0.892   5.547   2.991  0.4621  0.6614  2.3035
   42MOL    H8514927   1.030   5.657   2.995  0.0868  0.7174 -0.6529
   42MOL    H8614928   0.887   5.788   2.808 -4.1274 -0.7049 -0.5263
   42MOL    H8714929   0.795   5.651   2.799 -0.0277  1.4032 -2.5726
   42MOL    H8814930   0.986   5.500   2.730 -0.8989 -1.0665  1.3360
   42MOL    H8914931   1.098   5.642   2.743 -0.8775  1.3165 -1.5402
   42MOL    H9014932   1.018   5.608   2.512 -1.1255  2.0571 -2.0457
   42MOL    H9114933   0.850   5.602   2.560 -0.3094 -0.3089 -0.4199
   42MOL    C9214934   1.025   5.863   2.525  0.2621 -0.4577 -0.5243
   42MOL    O9314935   1.128   5.819   2.475  0.1900 -0.2129  0.3557
   42MOL    C9414936   0.999   6.010   2.554  0.5753  0.3772 -0.1264
   42MOL    C9514937   1.078   6.112   2.468  0.1138  0.4532  0.0601
   42MOL    C9614938   0.998   6.142   2.344  0.6385  0.5969 -0.1361
   42MOL    C9714939   1.031   6.271   2.274  0.0157 -0.2381  0.3249
   42MOL    C9814940   0.943   6.289   2.145  0.0154 -0.3580  0.6136
   42MOL    O9914941   1.005   6.401   2.081 -0.0698 -0.1509  0.0514
   42MOL   H10014942   1.046   6.014   2.652  0.8491  0.9675 -0.2769
   42MOL   H10114943   0.896   6.044   2.564  0.4978 -0.2018  1.0402
   42MOL   H10214944   1.179   6.073   2.456 -0.7519 -2.2434  1.1407
   42MOL   H10314945   1.086   6.210   2.517  1.0277  0.9200 -1.0042
   42MOL   H10414946   0.890   6.149   2.355  0.4299  1.0941 -2.2427
   42MOL   H10514947   1.013   6.056   2.279 -0.5725  0.2808 -0.0035
   42MOL   H10614948   1.139   6.270   2.259  0.3143 -0.2330  2.3253
   42MOL   H10714949   1.009   6.360   2.333 -0.6659 -0.5444  0.5469
   42MOL   H10814950   0.942   6.206   2.074  3.5711  1.0311 -1.2059
   42MOL   H10914951   0.840   6.315   2.170 -0.3282  1.6651 -2.5801
   42MOL   C11014952   1.030   6.394   1.948  0.1825  0.3216 -0.0165
   42MOL   O11114953   0.980   6.317   1.862  0.0579  0.1604  0.1787
   42MOL   C11214954   1.146   6.490   1.912 -0.1418 -0.2949 -0.5983
   42MOL   C11314955   1.161   6.526   1.769 -0.7332  0.6739 -0.1874
   42MOL   C11414956   1.056   6.627   1.729 -0.4668 -0.0195  0.3858
   42MOL   C11514957   1.100   6.674   1.591 -0.1924  0.0481  0.7235
   42MOL   C11614958   1.020   6.785   1.527  0.0643  0.1415 -0.6464
   42MOL   O11714959   1.058   6.795   1.389  0.2533 -0.1267  0.9255
   42MOL   H11814960   1.244   6.461   1.949 -1.3205 -1.8965  1.3922
   42MOL   H11914961   1.137   6.584   1.968 -0.7027  0.7144 -2.3429
   42MOL   H12014962   1.174   6.439   1.704 -0.3825 -0.5281  1.4554
   42MOL   H12114963   1.266   6.555   1.761 -0.7877  0.8976 -0.0629
   42MOL   H12214964   1.034   6.707   1.801 -0.1416  3.0309 -2.7790
   42MOL   H12314965   0.963   6.572   1.722 -0.7161  0.1689  1.9138
   42MOL   H12414966   1.093   6.581   1.535  1.7690  0.4606 -0.2340
   42MOL   H12514967   1.204   6.703   1.601 -0.5142  0.9121  1.6924
   42MOL   H12614968   0.913   6.769   1.541 -0.0289 -0.3500 -1.8955
   42MOL   H12714969   1.032   6.880   1.580  2.5565 -0.5980  0.1824
   42MOL   C12814970   0.954   6.797   1.300  0.0854 -1.4237 -0.1464
   42MOL   O12914971   0.832   6.795   1.329  0.3906  1.1729 -0.1737
   42MOL   C13014972   0.992   6.811   1.150  0.6993 -0.3630 -0.6090
   42MOL   C13114973   1.079   6.693   1.108 -0.2944  0.2956  0.2744
   42MOL   C13214974   1.232   6.722   1.108  1.1263  0.2802  0.3819
   42MOL   C13314975   1.327   6.616   1.052 -0.1963 -0.3120  0.0919
   42MOL   C13414976   1.471   6.637   1.098  0.4049  0.4905 -0.3575
   42MOL   O13514977   1.524   6.758   1.048  0.5237  0.0242 -0.2551
   42MOL   H13614978   1.036   6.910   1.137 -1.2973  0.6419  0.0598
   42MOL   H13714979   0.897   6.814   1.097  0.7873  1.3081 -0.6852
   42MOL   H13814980   1.055   6.668   1.005 -0.3320 -0.3533  0.4372
   42MOL   H13914981   1.052   6.601   1.161 -1.6384  1.0575  0.9467
   42MOL   H14014982   1.260   6.749   1.210  3.0523 -0.9278  0.1931
   42MOL   H14114983   1.244   6.811   1.046  0.2947 -0.0555 -0.2677
   42MOL   H14214984   1.304   6.603   0.946  0.3767  2.0341 -0.3655
   42MOL   H14314985   1.292   6.522   1.094 -0.1951 -1.0595 -1.5498
   42MOL   H14414986   1.484   6.621   1.205 -1.1820  0.8002 -0.0994
   42MOL   H14514987   1.531   6.551   1.066  0.5127  0.7371 -0.8282
   42MOL   C14614988   1.654   6.774   1.021  0.2164  0.4047 -0.5931
   42MOL   O14714989   1.742   6.694   1.046  0.3393  0.6161 -0.7941
   42MOL   C14814990   1.685   6.908   0.966 -0.3364  0.4311  1.1201
   42MOL   C14914991   1.653   6.917   0.815 -0.1028 -0.1189 -0.0486
   42MOL   C15014992   1.705   6.804   0.734  0.4779  0.4696  0.5445
   42MOL   C15114993   1.676   6.810   0.583  0.3158 -0.4987 -0.3609
   42MOL   C15214994   1.723   6.683   0.513  0.5924 -0.2700 -0.5147
   42MOL   O15314995   1.673   6.668   0.378 -0.0103 -0.4870 -0.4967
   42MOL   H15414996   1.787   6.945   0.980 -0.1728  1.3765 -2.1260
   42MOL   H15514997   1.627   6.991   1.007 -0.2343  0.5887  0.9538
   42MOL   H15614998   1.681   7.009   0.763 -1.1466 -0.4048 -1.1414
   42MOL   H15714999   1.545   6.913   0.798 -0.3444 -0.1688  1.3863
   42MOL   H15815000   1.668   6.709   0.772 -1.9325  1.0250 -0.2584
   42MOL   H15915001   1.810   6.793   0.759  0.2326 -0.7228  1.0593
   42MOL   H16015002   1.726   6.895   0.535 -0.4539 -0.1654 -0.5811
   42MOL   H16115003   1.571   6.834   0.568  0.2985 -0.7929 -0.7222
   42MOL   H16215004   1.830   6.661   0.521  0.1259 -2.9770 -1.2979
   42MOL   H16315005   1.689   6.593   0.566  2.4300 -1.0526 -0.6107
   42MOL   C16415006   1.717   6.740   0.277 -0.2496  0.2159  0.5407
   42MOL   O16515007   1.813   6.825   0.275  0.6263 -0.3608  0.2747
   42MOL   C16615008   1.641   6.720   0.157 -0.0080  0.5162 -0.4103
   42MOL   C16715009   1.525   6.828   0.132  0.1131 -0.6140  0.4069
   42MOL   C16815010   1.415   6.820   0.241  0.0186 -0.0599  0.4537
   42MOL   C16915011   1.371   6.955   0.303  0.1363 -0.3266 -0.1464
   42MOL   C17015012   1.242   6.956   0.382  0.2086 -0.7352  0.5771
   42MOL   O17115013   1.233   7.071   0.466 -0.4347  0.1404  0.3441
   42MOL   H17215014   1.581   6.631   0.176  1.4676 -0.0905  1.5425
   42MOL   H17315015   1.704   6.715   0.068 -0.8613 -1.0000 -0.9520
   42MOL   H17415016   1.505   6.822   0.025 -0.2937 -1.5457  0.5331
   42MOL   H17515017   1.568   6.928   0.142 -0.5932 -0.3318  0.6294
   42MOL   H17615018   1.434   6.740   0.314  2.6928  2.0700  2.1961
   42MOL   H17715019   1.332   6.783   0.181 -0.0475  0.1430  0.4204
   42MOL   H17815020   1.368   7.023   0.218  2.3955  0.1609  0.1382
   42MOL   H17915021   1.455   6.991   0.363 -1.6810  1.6648  1.2894
   42MOL   H18015022   1.164   6.966   0.306  2.0480  1.3690 -1.0991
   42MOL   H18115023   1.223   6.865   0.438 -1.3946 -0.1790  0.9792
   42MOL   C18215024   1.282   7.079   0.586 -1.0871  0.5134  0.0424
   42MOL   O18315025   1.351   6.994   0.638 -0.0672  0.3347 -0.2454
   42MOL   C18415026   1.257   7.212   0.653 -0.6613  0.1494 -0.4932
   42MOL   C18515027   1.308   7.228   0.803  0.6219 -0.2755  0.3866
   42MOL   C18615028   1.455   7.269   0.794  0.1265 -0.3825  0.1723
   42MOL   C18715029   1.510   7.319   0.930  0.9137 -0.1132  0.4296
   42MOL   C18815030   1.664   7.324   0.923 -0.1001  0.4622 -0.3358
   42MOL   O18915031   1.731   7.369   1.036 -0.0892 -0.8072 -0.3583
   42MOL   H19015032   1.148   7.217   0.648 -0.7627 -2.7806 -2.6595
   42MOL   H19115033   1.295   7.282   0.580  0.3778 -1.8139 -1.8789
   42MOL   H19215034   1.305   7.131   0.853 -1.3146 -1.1975 -1.4332
   42MOL   H19315035   1.239   7.291   0.858 -0.1047 -0.6967 -0.0351
   42MOL   H19415036   1.462   7.345   0.715  0.7394 -1.0109 -0.3898
   42MOL   H19515037   1.521   7.190   0.758  0.3858  0.2302 -0.7292
   42MOL   H19615038   1.472   7.248   1.003 -0.4513 -0.2572 -0.4145
   42MOL   H19715039   1.464   7.413   0.959 -1.9848 -1.3615 -0.0215
   42MOL   H19815040   1.692   7.220   0.909 -0.7747  0.1522  0.5407
   42MOL   H19915041   1.707   7.375   0.837  0.5004 -1.3376 -1.1308
   42MOL   C20015042   1.761   7.287   1.140  0.1816  0.3271  0.0913
   42MOL   O20115043   1.734   7.164   1.150  0.1254 -0.3777 -0.6168
   42MOL   C20215044   1.848   7.351   1.254  0.4810 -0.1330 -0.0455
   42MOL   C20315045   1.758   7.394   1.371  0.3549 -0.7539 -0.4344
   42MOL   C20415046   1.689   7.284   1.460 -0.3781 -0.2165  0.3157
   42MOL   C20515047   1.790   7.211   1.554  0.1061 -0.2310  0.5154
   42MOL   C20615048   1.728   7.125   1.658 -0.5111 -0.4863 -0.1053
   42MOL   O20715049   1.831   7.109   1.766  0.1566  0.3161  0.1758
   42MOL   H20815050   1.899   7.437   1.210  1.8297 -0.1233  1.5271
   42MOL   H20915051   1.926   7.282   1.286  0.3620  0.9723  2.7989
   42MOL   H21015052   1.681   7.468   1.350 -0.3977 -1.4745 -0.2405
   42MOL   H21115053   1.829   7.445   1.436  0.8890  0.2245 -1.7626
   42MOL   H21215054   1.631   7.214   1.399  0.6872  0.6138 -1.7113
   42MOL   H21315055   1.622   7.348   1.518 -0.5580  0.9998 -1.1789
   42MOL   H21415056   1.850   7.285   1.606 -0.2140 -1.1642  2.2242
   42MOL   H21515057   1.856   7.157   1.485  0.2940 -0.7220  1.0769
   42MOL   H21615058   1.631   7.159   1.694  0.6798  0.6313  2.1675
   42MOL   H21715059   1.721   7.020   1.629  0.9337 -0.6699  0.1783
   42MOL   C21815060   1.805   7.045   1.879  0.0788 -0.2635  0.2132
   42MOL   O21915061   1.701   6.996   1.916 -0.3267  0.3387  0.2734
   42MOL   C22015062   1.926   7.027   1.971 -0.8860  0.3980 -0.1530
   42MOL   C22115063   2.039   6.965   1.885 -0.2326 -0.6550  0.5495
   42MOL   C22215064   2.034   6.819   1.837 -0.4885  0.4767  0.2075
   42MOL   C22315065   2.128   6.777   1.719 -0.6201  0.3791  0.4598
   42MOL   C22415066   2.122   6.632   1.679 -0.4030 -0.6657  0.0367
   42MOL   O22515067   2.200   6.612   1.564 -0.0019 -0.0363  0.3102
   42MOL   H22615068   1.911   6.953   2.049 -0.9777 -0.4484 -0.9637
   42MOL   H22715069   1.956   7.125   2.009  1.3738  0.0156 -0.8631
   42MOL   H22815070   2.130   6.977   1.945 -1.2268 -0.5440  2.0840
   42MOL   H22915071   2.061   7.031   1.802 -0.3637 -1.0393  0.2062
   42MOL   H23015072   1.931   6.809   1.802 -0.3364  0.5260 -0.2640
   42MOL   H23115073   2.034   6.753   1.923  1.1253 -0.2631 -0.3263
   42MOL   H23215074   2.229   6.813   1.739  0.1948 -1.8960  0.5906
   42MOL   H23315075   2.090   6.835   1.635  2.4266  0.9379 -0.5761
   42MOL   H23415076   2.160   6.578   1.766 -0.8104 -0.8742  0.0853
   42MOL   H23515077   2.020   6.597   1.666 -0.7750  0.5124 -0.2033
   42MOL   C23615078   2.192   6.494   1.499 -0.0184  0.0409 -0.1377
   42MOL   O23715079   2.153   6.389   1.546 -0.3502  0.3321  0.0373
   42MOL   C23815080   2.247   6.495   1.363 -0.1389  0.0280  0.8092
   42MOL   C23915081   2.396   6.521   1.361  0.2194 -1.0408 -0.5670
   42MOL   C24015082   2.449   6.512   1.213 -0.4234  0.3059  0.1677
   42MOL   C24115083   2.585   6.586   1.186  0.1425 -0.3406 -0.1799
   42MOL   C24215084   2.627   6.592   1.040 -1.2367  0.7907 -0.3170
   42MOL   O24315085   2.746   6.656   1.047  0.1002 -0.1812 -0.4085
   42MOL   H24415086   2.187   6.577   1.323 -1.2925 -0.9474  0.5413
   42MOL   H24515087   2.235   6.403   1.306  2.7453 -0.1762  0.4264
   42MOL   H24615088   2.457   6.460   1.428  1.8815 -0.8266 -1.8437
   42MOL   H24715089   2.417   6.627   1.379 -0.6971 -1.3139  2.5111
   42MOL   H24815090   2.383   6.574   1.152 -1.0745 -0.3434  0.2015
   42MOL   H24915091   2.450   6.413   1.166  2.0917 -0.9373  2.6464
   42MOL   H25015092   2.665   6.532   1.237  1.2939  1.6919  0.2247
   42MOL   H25115093   2.581   6.690   1.217  1.2108 -0.1481 -0.6553
   42MOL   H25215094   2.643   6.493   0.997 -2.3674  0.3845  0.1584
   42MOL   H25315095   2.560   6.651   0.977  0.1165 -0.6583 -3.2246
   42MOL   C25415096   2.761   6.790   1.038  0.6384 -0.0997 -0.3194
   42MOL   O25515097   2.669   6.876   1.041 -0.7769  0.2436 -0.7960
   42MOL   C25615098   2.908   6.828   1.019  0.4414  0.3685  0.0829
   42MOL   C25715099   2.926   6.918   0.900 -0.3789 -0.1563  0.2132
   42MOL   C25815100   3.052   6.872   0.822  0.2799 -0.0623 -0.6060
   42MOL   C25915101   3.046   6.911   0.677  0.7180  0.4060  0.3879
   42MOL   C26015102   3.172   6.850   0.604 -0.0161 -0.3746 -0.6059
   42MOL   O26115103   3.165   6.705   0.588 -0.3798 -0.5000  0.3155
   42MOL   H26215104   2.956   6.732   1.004  2.3172  0.9587  2.0482
   42MOL   H26315105   2.937   6.881   1.110 -0.5409 -1.9117  1.7687
   42MOL   H26415106   2.937   7.021   0.933  2.6794 -0.3498 -0.0341
   42MOL   H26515107   2.838   6.916   0.836 -1.0061  1.9169  0.9921
   42MOL   H26615108   3.072   6.767   0.844 -1.8356 -0.3793 -0.1283
   42MOL   H26715109   3.139   6.920   0.866  0.1708 -1.0336  0.6992
   42MOL   H26815110   3.038   7.019   0.666 -0.2176  0.4865  1.8363
   42MOL   H26915111   2.952   6.877   0.633  0.4223  0.3257  1.0916
   42MOL   H27015112   3.180   6.906   0.511 -2.6456  0.2265 -0.4927
   42MOL   H27115113   3.262   6.879   0.659  0.2726  0.6935 -1.6240
   42MOL   C27215114   3.189   6.651   0.462 -0.4129 -0.3853 -0.4990
   42MOL   O27315115   3.227   6.717   0.358 -0.0992 -0.0137 -0.4688
   42MOL   C27415116   3.172   6.502   0.454  0.0188  0.4818  0.1615
   42MOL   C27515117   3.286   6.436   0.527 -0.4698 -0.1952 -0.0645
   42MOL   C27615118   3.301   6.289   0.512 -0.1892 -0.1982 -0.4155
   42MOL   C27715119   3.447   6.248   0.552 -0.3916  0.0232 -0.4778
   42MOL   C27815120   3.444   6.115   0.623  0.0093 -0.2520 -0.8410
   42MOL   O27915121   3.385   6.141   0.750  0.3433  0.4060 -0.1093
   42MOL   H28015122   3.172   6.483   0.347  1.2165 -0.3648  0.2997
   42MOL   H28115123   3.074   6.467   0.487 -0.0363  0.0909 -0.4026
   42MOL   H28215124   3.244   6.446   0.627  0.5364 -0.2013  0.3557
   42MOL   H28315125   3.378   6.495   0.522 -0.9817  0.5167 -1.7699
   42MOL   H28415126   3.285   6.243   0.415  0.0008 -1.6260  0.2243
   42MOL   H28515127   3.227   6.249   0.581 -0.0174  0.6321  0.2636
   42MOL   H28615128   3.493   6.320   0.620  0.6466 -1.3896  0.3476
   42MOL   H28715129   3.502   6.244   0.458 -1.0701  2.3900 -1.0030
   42MOL   H28815130   3.398   6.039   0.561  1.2480 -1.0191 -0.8467
   42MOL   H28915131   3.545   6.079   0.642 -0.0295  0.2318  0.3245
   42MOL   C29015132   3.449   6.119   0.865  0.7263  0.6099  0.6166
   42MOL   O29115133   3.567   6.088   0.873 -0.3876  0.0440  0.0059
   42MOL   C29215134   3.367   6.143   0.991  0.3061  0.1413  0.2783
   42MOL   C29315135   3.216   6.177   0.978 -0.2636 -1.0928 -0.4725
   42MOL   C29415136   3.180   6.305   0.909  0.1998 -0.0046 -0.2028
   42MOL   C29515137   3.030   6.334   0.909  0.9060  0.6227 -0.2200
   42MOL   C29615138   2.998   6.473   0.853 -0.0117 -0.0944  1.0118
   42MOL   O29715139   2.854   6.508   0.831 -1.0668 -0.5255 -0.2102
   42MOL   H29815140   3.418   6.228   1.037  0.4600 -0.2426  0.8237
   42MOL   H29915141   3.389   6.054   1.050 -1.2416 -0.0191  0.6380
   42MOL   H30015142   3.167   6.189   1.075 -0.0576 -0.6193 -0.4283
   42MOL   H30115143   3.171   6.083   0.944 -0.9756 -1.4363  1.3416
   42MOL   H30215144   3.216   6.305   0.806 -0.0137 -1.5073 -0.2817
   42MOL   H30315145   3.236   6.385   0.958  1.4418 -2.4100  2.4303
   42MOL   H30415146   2.982   6.324   1.006 -0.3142 -0.9649 -0.9689
   42MOL   H30515147   2.968   6.267   0.849 -1.9070  1.5715  1.5643
   42MOL   H30615148   3.043   6.553   0.912  0.5987  0.5407 -0.2843
   42MOL   H30715149   3.050   6.487   0.758  2.8288  1.3106  2.7309
   42MOL   C30815150   2.791   6.471   0.721  0.1689 -0.4179 -0.2672
   42MOL   O30915151   2.847   6.407   0.627 -0.5578  0.0884  0.3541
   42MOL   C31015152   2.653   6.523   0.712  0.2636 -0.7145  0.1181
   42MOL   C31115153   2.636   6.679   0.689  0.0035  0.0547 -0.5005
   42MOL   C31215154   2.706   6.733   0.563 -0.3268 -0.3994  0.0374
   42MOL   C31315155   2.665   6.655   0.445  0.0608 -0.0516  0.1542
   42MOL   C31415156   2.696   6.737   0.322  0.0596 -0.4005  0.3374
   42MOL   O31515157   2.642   6.672   0.207  0.2287 -0.5893  0.3789
   42MOL   H31615158   2.595   6.479   0.793  0.1188  0.8136  0.8609
   42MOL   H31715159   2.617   6.474   0.622 -0.4140  1.4115 -0.8057
   42MOL   H31815160   2.674   6.734   0.775 -2.0802  0.5398  0.1437
   42MOL   H31915161   2.532   6.709   0.700  0.9231  2.9518  0.7232
   42MOL   H32015162   2.815   6.729   0.568 -0.2426  0.6030 -0.7002
   42MOL   H32115163   2.689   6.839   0.545 -1.3959 -0.5763 -0.0184
   42MOL   H32215164   2.557   6.645   0.446  0.0404  0.2405  0.8807
   42MOL   H32315165   2.717   6.559   0.449  0.3911  0.2247  3.1771
   42MOL   H32415166   2.648   6.834   0.331  0.1738 -0.2320 -0.8037
   42MOL   H32515167   2.804   6.752   0.316  0.0528 -0.8911 -1.1679
   42MOL   C32615168   2.705   6.567   0.161  0.7347 -0.2308  0.2030
   42MOL   O32715169   2.823   6.540   0.186  0.1807  0.0548  0.4236
   42MOL   C32815170   2.614   6.473   0.083  0.4582  0.2144 -0.3260
   42MOL   C32915171   2.693   6.418   7.803 -0.2414  0.0192 -0.3649
   42MOL   C33015172   2.596   6.367   7.703  0.6276 -0.4108 -0.6717
   42MOL   C33115173   2.533   6.229   7.747 -0.5136  0.3513 -0.2387
   42MOL   C33215174   2.428   6.188   7.650  0.2978  0.5317 -0.3149
   42MOL   O33315175   2.489   6.154   7.524 -0.1569 -0.1922 -0.0336
   42MOL   H33415176   2.527   6.528   0.049  0.0088  0.9335  1.8893
   42MOL   H33515177   2.571   6.394   0.145  1.0441 -0.7213 -1.0899
   42MOL   H33615178   2.780   6.355   7.822 -0.7590 -1.0881 -1.5910
   42MOL   H33715179   2.743   6.498   7.748  2.5875 -1.6039 -0.2383
   42MOL   H33815180   2.649   6.359   7.607  2.2891  2.9902 -0.1106
   42MOL   H33915181   2.515   6.439   7.694  0.1228 -1.0339 -1.2098
   42MOL   H34015182   2.478   6.239   7.841  0.2140  1.2189  0.1022
   42MOL   H34115183   2.600   6.146   7.772  0.3143  1.4449  1.2701
   42MOL   H34215184   2.390   6.091   7.682  1.2503 -0.0074 -0.8002
   42MOL   H34315185   2.349   6.261   7.639 -1.9723 -1.6595  1.0123
   42MOL   C34415186   2.417   6.128   7.421  0.0814  0.1756  0.1971
   42MOL   O34515187   2.293   6.112   7.431  0.3617  0.4152 -0.0841
   42MOL   C34615188   2.492   6.096   7.289  0.4679 -0.1892 -0.5567
   42MOL   C34715189   2.415   6.128   7.162 -0.2169  0.4439  0.2072
   42MOL   C34815190   2.437   6.275   7.132  0.0750  1.0088 -0.3160
   42MOL   C34915191   2.402   6.319   6.986  0.5860  0.6234 -0.1845
   42MOL   C35015192   2.419   6.466   6.960 -0.0375  0.2227 -0.0245
   42MOL   O35115193   2.317   6.534   7.034  0.2520 -0.1133  0.3049
   42MOL   H35215194   2.525   5.992   7.284  0.7519 -0.0656 -1.2162
   42MOL   H35315195   2.588   6.148   7.299 -0.0545  0.6537  0.1858
   42MOL   H35415196   2.306   6.118   7.171  0.2028 -1.9885  3.3302
   42MOL   H35515197   2.447   6.072   7.075 -1.3586  0.5617 -0.2954
   42MOL   H35615198   2.541   6.305   7.150  0.5213 -0.5041 -0.2705
   42MOL   H35715199   2.382   6.342   7.197 -3.1792 -1.2897 -0.5513
   42MOL   H35815200   2.310   6.268   6.957  0.5443 -0.6216  1.9779
   42MOL   H35915201   2.467   6.282   6.907 -2.1203 -1.2781 -1.6236
   42MOL   H36015202   2.517   6.501   6.991  1.0923 -0.7697 -2.2765
   42MOL   H36115203   2.394   6.489   6.856  0.2596 -2.2436 -0.6851
   42MOL   H36215204   2.356   6.578   7.108 -2.0884  0.0284  1.4954
   43MOL     C115205   6.338   2.478   4.998  0.5583  0.2833  0.1432
   43MOL     O215206   6.305   2.367   4.949 -0.2973  0.4985  0.0169
   43MOL     C315207   6.337   2.508   5.147  0.0028  0.7313 -0.2125
   43MOL     C415208   6.244   2.407   5.225  0.5649 -0.2001 -0.6021
   43MOL     C515209   6.094   2.425   5.194  0.8257 -0.2042  0.6244
   43MOL     C615210   6.007   2.341   5.290  0.4363 -0.2267  0.6811
   43MOL     C715211   5.862   2.314   5.235 -0.5949 -0.1513  0.1572
   43MOL     O815212   5.782   2.245   5.331  0.2750  0.1548 -0.1854
   43MOL     H915213   6.303   2.609   5.171  1.3644  0.9667  0.7445
   43MOL    H1015214   6.436   2.497   5.190  0.2272 -1.0883 -1.1163
   43MOL    H1115215   6.248   2.431   5.332  2.4963 -1.4406 -0.3618
   43MOL    H1215216   6.270   2.302   5.211 -2.8084 -1.2226  0.3580
   43MOL    H1315217   6.074   2.402   5.089  0.9815  0.1540  0.5154
   43MOL    H1415218   6.077   2.531   5.214  2.0167  0.1891 -0.3982
   43MOL    H1515219   6.002   2.387   5.388 -2.0529  1.3397 -0.1167
   43MOL    H1615220   6.061   2.247   5.303 -0.1056 -0.4764  1.1584
   43MOL    H1715221   5.803   2.403   5.211 -1.6749 -0.7259  0.6333
   43MOL    H1815222   5.868   2.245   5.151 -0.7141 -0.1396  0.1398
   43MOL    H1915223   6.347   2.574   4.946  2.6466 -0.8827 -1.7653
   43MOL    C2015224   5.733   2.304   5.444 -0.2250 -0.3072  0.6998
   43MOL    O2115225   5.783   2.401   5.495 -0.0992 -0.2495 -0.1438
   43MOL    C2215226   5.620   2.224   5.507  0.1176 -0.4625 -0.0605
   43MOL    C2315227   5.481   2.277   5.471 -0.9461  0.3261 -0.6545
   43MOL    C2415228   5.444   2.403   5.553  0.7491 -0.3531  0.4246
   43MOL    C2515229   5.322   2.469   5.478 -0.3877 -0.0163 -0.4506
   43MOL    C2615230   5.246   2.577   5.560  0.2600 -0.8184 -0.0784
   43MOL    O2715231   5.327   2.688   5.573 -0.4190  0.0460  0.1411
   43MOL    H2815232   5.644   2.218   5.613 -2.2408 -0.9954  0.4745
   43MOL    H2915233   5.644   2.124   5.471  0.9187 -0.9252  1.7246
   43MOL    H3015234   5.403   2.204   5.493 -1.2323  1.1462  1.1778
   43MOL    H3115235   5.477   2.300   5.364 -0.3584  0.5203 -0.6344
   43MOL    H3215236   5.521   2.478   5.570  2.2051 -1.1155 -2.5329
   43MOL    H3315237   5.418   2.369   5.653 -1.3327 -0.0959  0.0066
   43MOL    H3415238   5.260   2.383   5.453  1.6866 -2.0805  1.2777
   43MOL    H3515239   5.337   2.508   5.377  0.4864 -0.6140 -0.5670
   43MOL    H3615240   5.157   2.608   5.506  0.5361 -1.2663 -0.7885
   43MOL    H3715241   5.225   2.530   5.656 -0.4614 -1.4970 -0.5581
   43MOL    C3815242   5.350   2.763   5.470 -1.0880 -0.3504  0.2116
   43MOL    O3915243   5.309   2.743   5.359  0.4720  0.3626 -0.5640
   43MOL    C4015244   5.443   2.879   5.503  0.5758  0.4978  0.1997
   43MOL    C4115245   5.575   2.852   5.563 -0.1377  0.2066  0.0288
   43MOL    C4215246   5.681   2.789   5.460  0.2083 -0.0432  0.0656
   43MOL    C4315247   5.815   2.758   5.526  0.3204  0.0159  0.7741
   43MOL    C4415248   5.923   2.728   5.423 -0.0664 -1.1120  0.4737
   43MOL    O4515249   6.046   2.702   5.494 -0.0113 -0.3391 -0.4653
   43MOL    H4615250   5.385   2.940   5.573 -0.5475 -1.1019  0.6930
   43MOL    H4715251   5.459   2.942   5.416 -1.9843  1.0086  0.0483
   43MOL    H4815252   5.554   2.778   5.641  0.1659 -0.0642 -0.1474
   43MOL    H4915253   5.617   2.940   5.612  0.0938 -1.6184  3.2724
   43MOL    H5015254   5.693   2.858   5.377 -1.6381 -0.5058 -0.6138
   43MOL    H5115255   5.651   2.691   5.422  0.9126  0.4119 -1.6757
   43MOL    H5215256   5.809   2.665   5.582 -4.7043  0.1944  0.6810
   43MOL    H5315257   5.837   2.828   5.607  1.4261 -0.7493  1.1526
   43MOL    H5415258   5.903   2.640   5.361  0.4509 -0.9590  0.0864
   43MOL    H5515259   5.942   2.811   5.356 -1.9770  0.3266  1.6810
   43MOL    C5615260   6.169   2.720   5.450  0.6360 -0.3072 -0.0554
   43MOL    O5715261   6.200   2.765   5.340 -0.4495 -0.0213  0.1036
   43MOL    C5815262   6.266   2.666   5.549  0.0371  0.1393  0.0458
   43MOL    C5915263   6.400   2.739   5.546  1.1826  0.6363 -0.1992
   43MOL    C6015264   6.471   2.711   5.678 -0.4431  0.3972  0.4267
   43MOL    C6115265   6.619   2.751   5.681 -0.7960  0.0553 -0.1237
   43MOL    C6215266   6.681   2.729   5.816 -0.5303  0.4497  0.6075
   43MOL    O6315267   6.632   2.822   5.910  0.1206  0.3426 -0.1459
   43MOL    H6415268   6.283   2.558   5.540  1.1692  0.3514 -0.4371
   43MOL    H6515269   6.224   2.677   5.649  0.1323 -0.7690  0.1923
   43MOL    H6615270   6.374   2.845   5.543  0.8838  0.5725  0.1171
   43MOL    H6715271   6.460   2.710   5.459  0.9228  3.2599 -1.3108
   43MOL    H6815272   6.446   2.609   5.708 -0.4510 -0.3864 -2.1163
   43MOL    H6915273   6.426   2.767   5.760  0.2734  2.7057 -0.7218
   43MOL    H7015274   6.633   2.857   5.659  1.2873  0.8299  4.4128
   43MOL    H7115275   6.677   2.698   5.606  2.1600  0.4644  1.8225
   43MOL    H7215276   6.667   2.627   5.851  0.3328  0.0721 -0.1287
   43MOL    H7315277   6.789   2.743   5.804 -0.5027 -0.6269 -0.4704
   43MOL    C7415278   6.689   2.837   6.023  0.2403  0.0646 -0.4855
   43MOL    O7515279   6.789   2.770   6.054  0.0779  0.2091  0.0068
   43MOL    C7615280   6.631   2.954   6.109 -0.1780  0.7571  0.1049
   43MOL    C7715281   6.735   2.994   6.213 -0.2208 -0.0275  0.1561
   43MOL    C7815282   6.687   3.123   6.284 -0.0031  0.5484  0.2174
   43MOL    C7915283   6.769   3.150   6.416  1.0593  0.3744  0.3337
   43MOL    C8015284   6.736   3.059   6.538 -0.7186  0.3837  0.2503
   43MOL    O8115285   6.783   3.119   6.656  0.8695 -0.2616  0.0293
   43MOL    H8215286   6.537   2.924   6.156  0.7089  0.3447  1.6492
   43MOL    H8315287   6.601   3.034   6.041  0.2633 -0.8338 -2.0073
   43MOL    H8415288   6.832   3.011   6.166  0.4314  1.7541  2.0493
   43MOL    H8515289   6.751   2.912   6.284  0.4688  0.1175  0.1761
   43MOL    H8615290   6.586   3.093   6.309 -0.2358 -0.1447 -1.4767
   43MOL    H8715291   6.679   3.210   6.218  1.9681 -0.7509 -1.8341
   43MOL    H8815292   6.746   3.254   6.441  0.6840 -0.0079  1.6485
   43MOL    H8915293   6.877   3.150   6.402  0.9855  1.9648 -0.3368
   43MOL    H9015294   6.630   3.035   6.545 -0.7999  0.6732  0.0301
   43MOL    H9115295   6.791   2.966   6.524  0.8506  0.8314  3.1474
   43MOL    C9215296   6.899   3.087   6.710 -0.0418 -0.6614 -0.0903
   43MOL    O9315297   6.967   2.990   6.683  0.1836  0.1050  0.1798
   43MOL    C9415298   6.925   3.166   6.834 -0.6913 -0.2582  0.0972
   43MOL    C9515299   7.064   3.162   6.890  0.3517 -0.6335 -0.6949
   43MOL    C9615300   7.175   3.242   6.815 -0.4990  1.1146 -0.0201
   43MOL    C9715301   7.313   3.224   6.873  0.2864  1.1101 -0.6525
   43MOL    C9815302   7.429   3.285   6.795 -0.0674  0.3846  0.2247
   43MOL    O9915303   7.420   3.430   6.775  0.3497 -0.0709 -0.3459
   43MOL   H10015304   6.864   3.121   6.913 -0.5046  0.7625  0.8271
   43MOL   H10115305   6.889   3.267   6.818  0.0534 -0.1405 -0.8539
   43MOL   H10215306   7.092   3.057   6.897  2.4735 -0.1730 -1.7780
   43MOL   H10315307   7.047   3.197   6.992  0.6225  0.4728 -1.0248
   43MOL   H10415308   7.140   3.345   6.819 -2.6106  0.4112 -0.1161
   43MOL   H10515309   7.166   3.223   6.708  1.4643  2.2016 -0.4120
   43MOL   H10615310   7.345   3.124   6.903 -0.0177  1.5454  1.1912
   43MOL   H10715311   7.306   3.263   6.974 -1.5616 -2.1712  0.5797
   43MOL   H10815312   7.519   3.269   6.854  0.5857 -0.4335 -0.9741
   43MOL   H10915313   7.444   3.251   6.693  0.7815 -1.0620  0.8119
   43MOL   C11015314   7.525   3.510   6.792 -0.3123  0.0740  0.1452
   43MOL   O11115315   7.637   3.471   6.813  0.0323  0.3547 -0.1000
   43MOL   C11215316   7.482   3.656   6.779 -0.4489  0.1059  0.0300
   43MOL   C11315317   7.416   3.707   6.906  0.2783 -0.2640 -0.1962
   43MOL   C11415318   7.265   3.678   6.923  0.2779  0.0415  0.5632
   43MOL   C11515319   7.216   3.736   7.057  0.1096  0.0374 -0.1666
   43MOL   C11615320   7.068   3.719   7.077 -0.5108 -0.3829 -0.6373
   43MOL   O11715321   7.045   3.736   7.218  0.3206 -0.0519  0.3732
   43MOL   H11815322   7.428   3.666   6.684  1.6618  1.3625 -1.0808
   43MOL   H11915323   7.573   3.716   6.772 -0.0099 -0.7403 -2.2197
   43MOL   H12015324   7.434   3.813   6.924  1.0846 -0.1998 -1.3494
   43MOL   H12115325   7.466   3.654   6.988  2.0623 -0.2994 -1.2702
   43MOL   H12215326   7.238   3.573   6.915 -0.1950  0.0296  2.1784
   43MOL   H12315327   7.204   3.711   6.839  0.4708 -2.6639 -0.7202
   43MOL   H12415328   7.223   3.844   7.056  1.4421 -0.0433 -0.1065
   43MOL   H12515329   7.278   3.694   7.136  1.2479 -1.1482 -1.6618
   43MOL   H12615330   7.001   3.782   7.019  0.4953 -0.5497 -1.9897
   43MOL   H12715331   7.028   3.620   7.053  0.9039 -0.3842 -3.1442
   43MOL   C12815332   6.925   3.735   7.283  0.6899 -0.7810  0.5408
   43MOL   O12915333   6.818   3.748   7.220  0.0949  0.1217  0.1384
   43MOL   C13015334   6.937   3.714   7.432 -0.3072  0.1792  0.1295
   43MOL   C13115335   6.808   3.713   7.517 -0.2957 -0.3611 -0.5694
   43MOL   C13215336   6.838   3.679   7.665  0.0524 -0.1266  0.5725
   43MOL   C13315337   6.712   3.656   7.752 -0.1350  0.1587  0.6908
   43MOL   C13415338   6.730   3.605   0.053 -0.1424 -0.0773  0.6163
   43MOL   O13515339   6.609   3.626   0.123 -0.3267  0.4782 -0.3193
   43MOL   H13615340   7.007   3.794   7.456  1.0654 -0.0864 -2.7937
   43MOL   H13715341   6.990   3.620   7.444  1.7288  1.2792 -0.0955
   43MOL   H13815342   6.738   3.642   7.472 -0.7185  0.3715 -1.0904
   43MOL   H13915343   6.755   3.808   7.506 -2.4253 -1.2833  1.2510
   43MOL   H14015344   6.904   3.753   7.710 -0.4774  0.3773  0.5265
   43MOL   H14115345   6.891   3.585   7.674  0.5615  0.3312  2.6634
   43MOL   H14215346   6.657   3.579   7.698  2.3389 -0.5275 -0.9601
   43MOL   H14315347   6.654   3.749   7.758 -0.2827  0.3561 -2.6916
   43MOL   H14415348   6.762   3.501   0.052  0.2692  0.0069  2.7776
   43MOL   H14515349   6.808   3.661   0.105  0.5827 -0.2104 -0.3047
   43MOL   C14615350   6.605   3.604   0.251 -0.1585 -0.4424 -0.2575
   43MOL   O14715351   6.701   3.587   0.327  0.4176  0.2356 -0.3089
   43MOL   C14815352   6.467   3.613   0.318 -0.3194 -0.2839 -0.2414
   43MOL   C14915353   6.434   3.764   0.345 -0.0586 -0.6074 -0.0706
   43MOL   C15015354   6.315   3.814   0.261  0.8566  0.3998  0.3899
   43MOL   C15115355   6.248   3.939   0.320 -0.0760  0.7937  0.2174
   43MOL   C15215356   6.101   3.945   0.269  0.5901 -0.3254  0.5962
   43MOL   O15315357   6.080   3.904   0.135 -0.0235  0.0385 -0.2325
   43MOL   H15415358   6.470   3.546   0.404  0.4052 -1.7865 -1.4226
   43MOL   H15515359   6.401   3.571   0.243  0.2788  0.3715 -1.1513
   43MOL   H15615360   6.516   3.835   0.339  0.5114 -1.1692  1.0169
   43MOL   H15715361   6.395   3.762   0.447  3.1384 -0.5398  1.2050
   43MOL   H15815362   6.236   3.740   0.246  1.6474  0.2189 -3.3090
   43MOL   H15915363   6.355   3.833   0.161 -2.3617  0.6412 -0.9008
   43MOL   H16015364   6.300   4.035   0.313 -0.6861  1.2554  1.7504
   43MOL   H16115365   6.250   3.934   0.429 -1.2996 -1.1800  0.1597
   43MOL   H16215366   6.041   3.881   0.334 -0.3309  0.1746  0.2561
   43MOL   H16315367   6.062   4.046   0.281 -1.3418 -0.9176 -0.4024
   43MOL   C16415368   5.950   3.912   0.085  0.3925 -0.2261 -0.1077
   43MOL   O16515369   5.857   3.955   0.148  0.1413 -0.3862 -0.4227
   43MOL   C16615370   5.939   3.885   7.779  0.6134 -0.8685 -0.7565
   43MOL   C16715371   5.788   3.876   7.730 -1.4981 -0.4463 -0.0739
   43MOL   C16815372   5.772   3.797   7.608  0.0411  0.4262  0.3849
   43MOL   C16915373   5.866   3.838   7.501  0.2869 -0.3282  0.8991
   43MOL   C17015374   5.847   3.761   7.373  0.6074 -0.1397 -0.0545
   43MOL   O17115375   5.874   3.857   7.269  0.1436  0.1087  0.1395
   43MOL   H17215376   5.984   3.789   7.754 -0.4136 -1.0592 -1.9285
   43MOL   H17315377   5.990   3.961   7.721  0.4961 -0.7228 -0.6692
   43MOL   H17415378   5.758   3.979   7.711  0.8391  0.1389 -0.7729
   43MOL   H17515379   5.727   3.828   7.806  0.9423 -1.8159  1.0636
   43MOL   H17615380   5.671   3.805   7.566 -0.2618 -2.4176  0.4326
   43MOL   H17715381   5.779   3.691   7.633  2.9298  0.4720 -0.1004
   43MOL   H17815382   5.973   3.835   7.524  0.8909  1.8682 -1.3967
   43MOL   H17915383   5.859   3.943   7.474 -0.0396 -1.1570 -2.4928
   43MOL   H18015384   5.910   3.672   7.372  0.9847  0.0839  1.7170
   43MOL   H18115385   5.748   3.719   7.352  0.7590  0.0799 -1.2209
   43MOL   C18215386   5.984   3.849   7.206  0.5981  0.0929 -0.0643
   43MOL   O18315387   6.082   3.777   7.224 -0.3318  0.1698 -0.1029
   43MOL   C18415388   5.985   3.952   7.084 -0.0209  0.4013  0.1682
   43MOL   C18515389   5.952   3.883   6.954  0.5952 -0.1829 -0.6301
   43MOL   C18615390   5.960   3.971   6.828  0.9234  0.2211 -0.7265
   43MOL   C18715391   5.943   3.900   6.687 -0.0006 -0.0733  0.4778
   43MOL   C18815392   5.985   3.986   6.564 -0.3145  0.0273 -0.1752
   43MOL   O18915393   6.078   4.091   6.598  0.1306  0.1924 -0.0264
   43MOL   H19015394   6.084   3.997   7.072  0.3787 -0.2225  1.0623
   43MOL   H19115395   5.912   4.032   7.092 -0.8167 -0.2643 -0.3748
   43MOL   H19215396   5.851   3.844   6.970  0.5242  0.4093  0.3723
   43MOL   H19315397   6.016   3.795   6.941 -1.0520 -1.4492 -0.3880
   43MOL   H19415398   6.054   4.026   6.819  0.9739  0.3480  0.5886
   43MOL   H19515399   5.880   4.045   6.840  0.1141 -0.6699 -0.6163
   43MOL   H19615400   5.842   3.862   6.671 -0.5474  0.4961  2.3933
   43MOL   H19715401   6.013   3.817   6.700  0.9212  1.0564  3.1837
   43MOL   H19815402   6.036   3.937   6.481  0.6755  0.6348  0.0533
   43MOL   H19915403   5.907   4.042   6.513 -1.8197 -1.5911  0.3209
   43MOL   C20015404   6.210   4.061   6.588  0.0846  0.3420  0.3396
   43MOL   O20115405   6.261   3.953   6.556 -0.6435  0.0456 -0.7626
   43MOL   C20215406   6.296   4.189   6.615  0.0148  1.0256  0.0630
   43MOL   C20315407   6.446   4.175   6.567  0.6618 -0.1214  0.0733
   43MOL   C20415408   6.546   4.287   6.597 -0.5843  0.2204 -0.1522
   43MOL   C20515409   6.685   4.274   6.533 -0.1093 -0.0257 -0.7592
   43MOL   C20615410   6.687   4.272   6.381  0.4045 -0.1886  0.1432
   43MOL   O20715411   6.816   4.282   6.333  0.0972  0.4256  0.0797
   43MOL   H20815412   6.295   4.204   6.723 -0.1625  1.4517  0.0024
   43MOL   H20915413   6.249   4.272   6.562  1.1958  1.1959 -0.7203
   43MOL   H21015414   6.458   4.150   6.461  2.7256  0.7253  0.0945
   43MOL   H21115415   6.477   4.084   6.618 -0.3296  0.0740  1.0458
   43MOL   H21215416   6.540   4.332   6.697 -0.8872 -2.0728  0.8837
   43MOL   H21315417   6.510   4.370   6.536 -0.8693  0.8946  0.9094
   43MOL   H21415418   6.734   4.186   6.576  0.1110  0.0399 -0.8729
   43MOL   H21515419   6.743   4.361   6.563 -1.4797  0.9792 -0.9727
   43MOL   H21615420   6.640   4.187   6.332  1.8312 -0.9274  0.0201
   43MOL   H21715421   6.641   4.364   6.344  2.0817  0.1387 -1.1743
   43MOL   C21815422   6.876   4.173   6.276 -0.3024 -0.5842  0.3190
   43MOL   O21915423   6.827   4.064   6.258 -0.5579 -0.6253 -0.2471
   43MOL   C22015424   7.023   4.191   6.254 -0.9032 -0.5747  0.2209
   43MOL   C22115425   7.040   4.311   6.165  0.5589  0.6741 -1.0442
   43MOL   C22215426   7.183   4.322   6.112  0.6894 -0.0483 -0.5003
   43MOL   C22315427   7.285   4.319   6.229 -0.2131 -0.0952 -0.9721
   43MOL   C22415428   7.434   4.331   6.193 -0.0363  0.0323 -0.6699
   43MOL   O22515429   7.519   4.337   6.306 -0.3776 -0.3260 -0.1444
   43MOL   H22615430   7.065   4.103   6.204 -0.1242 -0.2797  0.3478
   43MOL   H22715431   7.080   4.201   6.346 -2.3978 -1.4643  1.2446
   43MOL   H22815432   7.015   4.399   6.224 -0.2575  0.3885 -0.9630
   43MOL   H22915433   6.969   4.306   6.082 -0.5594 -0.4674 -0.0323
   43MOL   H23015434   7.200   4.410   6.051  0.1214  3.0399  3.6384
   43MOL   H23115435   7.200   4.231   6.054  1.5553 -0.2540  0.0650
   43MOL   H23215436   7.275   4.223   6.280 -0.9246  1.8213  2.6160
   43MOL   H23315437   7.265   4.403   6.295  0.7040  0.9320 -1.9986
   43MOL   H23415438   7.463   4.238   6.143 -2.6098 -0.0524 -2.0663
   43MOL   H23515439   7.458   4.412   6.124  0.2455  0.1733 -0.4075
   43MOL   C23615440   7.645   4.368   6.294  0.8452  0.1583 -0.6552
   43MOL   O23715441   7.698   4.398   6.191 -0.0584  0.4283  0.2351
   43MOL   C23815442   7.714   4.384   6.428  0.0890  0.1701 -0.1423
   43MOL   C23915443   7.648   4.488   6.523  0.3943  0.3755 -0.4680
   43MOL   C24015444   7.694   4.461   6.669  0.6264  0.3322  0.7590
   43MOL   C24115445   7.842   4.499   6.698 -0.1751  0.0892 -0.2819
   43MOL   C24215446   0.036   4.459   6.846 -0.1578  0.4113  0.9468
   43MOL   O24315447   7.798   4.530   6.933  0.5257  0.1078  0.0716
   43MOL   H24415448   7.822   4.396   6.416  0.0542  0.4283 -0.2178
   43MOL   H24515449   7.705   4.289   6.480 -1.5761  2.3197  3.7192
   43MOL   H24615450   7.539   4.490   6.519  0.3547  1.4215  1.0066
   43MOL   H24715451   7.688   4.584   6.489  1.7527 -0.3276 -0.9019
   43MOL   H24815452   7.681   4.359   6.703  3.6592  0.0953  1.3073
   43MOL   H24915453   7.636   4.530   6.731  0.5308 -0.2374  1.3009
   43MOL   H25015454   0.026   4.602   6.678  1.0835  0.3919  2.7956
   43MOL   H25115455   0.064   4.447   6.628  0.0883 -0.2461  0.2123
   43MOL   H25215456   0.020   4.352   6.858  1.3796 -0.1906 -1.8857
   43MOL   H25315457   0.144   4.464   6.854 -0.1300  0.5908  0.4893
   43MOL   C25415458   7.693   4.483   6.999 -0.0537 -0.2654 -0.3445
   43MOL   O25515459   7.625   4.384   6.975 -0.4352  0.1797 -0.1538
   43MOL   C25615460   7.660   4.574   7.117 -0.3495 -0.6298 -0.2310
   43MOL   C25715461   7.660   4.506   7.260 -0.3631  0.3329 -0.0990
   43MOL   C25815462   7.620   4.607   7.376 -0.1311 -0.1927 -0.9364
   43MOL   C25915463   7.486   4.683   7.350 -0.1076  0.1086 -0.1018
   43MOL   C26015464   7.441   4.775   7.470 -0.0767 -0.0917 -0.2689
   43MOL   O26115465   7.530   4.876   7.512 -0.2579  0.2028  0.2471
   43MOL   H26215466   7.562   4.617   7.099  0.9462  2.4952 -0.0558
   43MOL   H26315467   7.732   4.656   7.110  1.2946 -2.1100 -1.3013
   43MOL   H26415468   7.746   4.441   7.276  0.2549  1.1235 -0.1391
   43MOL   H26515469   7.582   4.431   7.255 -0.0513 -0.1616  1.9461
   43MOL   H26615470   7.693   4.686   7.392 -1.2686  0.7699 -0.4220
   43MOL   H26715471   7.618   4.546   7.467 -1.5250  0.2357 -0.6679
   43MOL   H26815472   7.404   4.613   7.337 -0.6592  0.7511 -0.1178
   43MOL   H26915473   7.494   4.744   7.259 -1.9975  0.9327  0.2665
   43MOL   H27015474   7.356   4.825   7.423  0.1092 -0.3505 -0.8805
   43MOL   H27115475   7.421   4.718   7.561  1.7661  0.6657  0.6217
   43MOL   C27215476   7.516   4.931   7.636 -0.0499 -0.5596  0.1210
   43MOL   O27315477   7.426   4.911   7.722  0.1644  0.5098 -0.5156
   43MOL   C27415478   7.626   5.033   7.659 -0.3788 -0.1130  0.1539
   43MOL   C27515479   7.572   5.151   7.751 -0.4223  1.2492 -0.0876
   43MOL   C27615480   7.678   5.253   7.798 -0.4920  1.0506 -0.2662
   43MOL   C27715481   7.633   5.336   0.074  0.2904 -0.3136 -0.2680
   43MOL   C27815482   7.518   5.434   0.051 -0.3609 -0.5643 -0.3938
   43MOL   O27915483   7.396   5.361   0.036  0.2624  0.0310  0.5667
   43MOL   H28015484   7.663   5.059   7.560  0.0064 -0.6641  0.1488
   43MOL   H28115485   7.712   4.985   7.705 -1.5159 -0.9710  1.4218
   43MOL   H28215486   7.519   5.109   7.836  1.0542  0.3647  0.4047
   43MOL   H28315487   7.495   5.204   7.696 -0.9915  2.2931  1.6925
   43MOL   H28415488   7.709   5.324   7.721  0.5975  1.4926  0.5697
   43MOL   H28515489   7.760   5.188   7.829 -3.3002 -2.7066 -0.2989
   43MOL   H28615490   7.715   5.395   0.114 -0.7356  0.1835  1.1665
   43MOL   H28715491   7.608   5.268   0.155 -0.5435 -0.7197 -0.8596
   43MOL   H28815492   7.511   5.507   0.131  3.8322  0.5151 -0.9187
   43MOL   H28915493   7.548   5.485   7.805 -1.2771  0.3732 -0.1743
   43MOL   C29015494   7.283   5.424   0.056 -0.0227  0.2933  0.2072
   43MOL   O29115495   7.265   5.535   0.102  0.2852 -0.2940  0.1509
   43MOL   C29215496   7.160   5.343   0.031  0.6929  0.7539 -0.0762
   43MOL   C29315497   7.177   5.201   7.808  0.0619  0.1283  0.6059
   43MOL   C29415498   7.065   5.107   7.844 -0.2512  0.0464  0.4083
   43MOL   C29515499   6.936   5.146   7.775 -0.3876  0.2489 -0.2267
   43MOL   C29615500   6.826   5.042   7.764 -0.2197  0.5557 -0.1719
   43MOL   O29715501   6.788   4.996   0.050 -0.7166  0.0822 -0.4211
   43MOL   H29815502   7.104   5.398   7.800 -0.2140  1.7775  1.3171
   43MOL   H29915503   7.110   5.326   0.127 -0.2243  0.0255 -0.6728
   43MOL   H30015504   7.275   5.156   7.827  1.4734  2.1067 -1.6566
   43MOL   H30115505   7.187   5.210   7.700 -0.6125  0.9091  0.6077
   43MOL   H30215506   7.050   5.106   0.108  0.8228  1.0621  0.5735
   43MOL   H30315507   7.084   5.008   7.803 -0.7279 -0.1040  0.5504
   43MOL   H30415508   6.960   5.179   7.674 -3.4268 -1.5008 -1.5902
   43MOL   H30515509   6.906   5.239   7.824  2.5093  1.1821 -0.1367
   43MOL   H30615510   6.751   5.090   7.701  0.3451  2.8045  0.8056
   43MOL   H30715511   6.845   4.951   7.707  2.5889 -0.5665  2.4306
   43MOL   C30815512   6.728   4.877   0.062  0.0960  0.1525  0.1932
   43MOL   O30915513   6.720   4.794   7.819 -0.4185  0.3940  0.0829
   43MOL   C31015514   6.662   4.846   0.198 -0.3062  0.1524  0.1903
   43MOL   C31115515   6.751   4.849   0.315 -0.4436 -0.4388 -0.2240
   43MOL   C31215516   6.698   4.955   0.412  0.3873  0.9090  0.5503
   43MOL   C31315517   6.780   4.985   0.537 -0.7987 -0.3192  0.2761
   43MOL   C31415518   6.706   5.085   0.630  0.8326  0.5217  0.1759
   43MOL   O31515519   6.607   5.022   0.711  0.1598  0.3338  0.1868
   43MOL   H31615520   6.613   4.749   0.194  0.6759 -0.4162  1.5099
   43MOL   H31715521   6.587   4.925   0.198 -1.4718 -0.9290 -1.7173
   43MOL   H31815522   6.851   4.879   0.284 -0.1812 -0.4322  0.6137
   43MOL   H31915523   6.746   4.748   0.356 -0.3058 -0.0929  0.6501
   43MOL   H32015524   6.594   4.923   0.426  0.5284  0.0403 -0.3614
   43MOL   H32115525   6.678   5.053   0.369 -0.0259  1.4056  1.8285
   43MOL   H32215526   6.871   5.032   0.499 -0.6461 -1.7734 -1.2072
   43MOL   H32315527   6.805   4.895   0.592 -2.3841 -0.2811  1.1077
   43MOL   H32415528   6.781   5.130   0.695 -0.6764  1.3965  1.3664
   43MOL   H32515529   6.654   5.156   0.565  0.3435  0.2460  0.2648
   43MOL   C32615530   6.556   5.092   0.813 -0.7386 -0.8795  0.5075
   43MOL   O32715531   6.589   5.205   0.841  0.0078  0.3773  0.5156
   43MOL   C32815532   6.455   5.014   0.892  0.7584 -0.0232 -0.8939
   43MOL   C32915533   6.442   4.858   0.853  0.1340 -0.0739  0.0029
   43MOL   C33015534   6.337   4.790   0.950  0.1818  0.2265 -0.4059
   43MOL   C33115535   6.291   4.650   0.911 -0.2699 -0.6207  0.7904
   43MOL   C33215536   6.401   4.548   0.938 -0.2594  0.0046 -0.3464
   43MOL   O33315537   6.396   4.521   1.082 -0.0017  0.1445  0.7580
   43MOL   H33415538   6.364   5.072   0.888  1.1814  0.6981 -0.2218
   43MOL   H33515539   6.487   5.020   0.996  0.5375 -0.6788 -0.7810
   43MOL   H33615540   6.542   4.816   0.867  0.6885  1.3104  0.3307
   43MOL   H33715541   6.410   4.854   0.749 -0.6611 -0.2601  0.2559
   43MOL   H33815542   6.251   4.855   0.934 -0.1420 -0.7653 -2.8808
   43MOL   H33915543   6.378   4.787   1.051 -0.3731  1.8150 -0.1200
   43MOL   H34015544   6.266   4.641   0.806 -0.3459  1.0756  0.6539
   43MOL   H34115545   6.206   4.620   0.973  0.2149  0.3557  1.9647
   43MOL   H34215546   6.391   4.454   0.883 -3.3432  1.1466 -1.8267
   43MOL   H34315547   6.492   4.591   0.897 -0.8427  0.4201 -1.2048
   43MOL   C34415548   6.391   4.401   1.133 -0.4037 -0.2883  0.1232
   43MOL   O34515549   6.401   4.300   1.076  0.1589  0.1207  0.4954
   43MOL   C34615550   6.371   4.404   1.285  0.0966 -0.0719  0.2648
   43MOL   C34715551   6.392   4.271   1.362 -0.2093 -0.6002 -0.0996
   43MOL   C34815552   6.402   4.308   1.516  0.1286 -0.2158  0.3749
   43MOL   C34915553   6.442   4.195   1.602  0.1327 -0.1449  0.5556
   43MOL   C35015554   6.432   4.226   1.750 -0.5780  0.3795  0.0330
   43MOL   O35115555   6.505   4.124   1.824 -0.1787  0.1529  0.0043
   43MOL   H35215556   6.273   4.450   1.303  1.0776  1.6554  1.2550
   43MOL   H35315557   6.423   4.485   1.335 -0.2255 -0.5590  1.4154
   43MOL   H35415558   6.485   4.224   1.333 -0.6091  0.0574 -2.5826
   43MOL   H35515559   6.313   4.200   1.339  1.2693 -2.7745  1.4169
   43MOL   H35615560   6.309   4.359   1.543  0.3437  0.3833 -0.0176
   43MOL   H35715561   6.488   4.374   1.523  0.4467 -0.5451 -0.4339
   43MOL   H35815562   6.548   4.179   1.582  0.5084 -0.1547  2.4772
   43MOL   H35915563   6.398   4.098   1.578  1.5001 -1.1277  1.9430
   43MOL   H36015564   6.483   4.320   1.770  0.8642 -0.6925  1.5352
   43MOL   H36115565   6.333   4.233   1.796  0.3064 -0.4836  2.1064
   43MOL   H36215566   6.446   4.066   1.869 -0.2043  1.2471  1.4091
   44MOL     C115567   0.149   0.156   2.992 -0.6448 -0.1300 -0.1791
   44MOL     O215568   0.229   0.251   3.020 -0.1179  0.7262 -0.3484
   44MOL     C315569   0.040   0.164   2.886  0.3914  0.0418  0.4760
   44MOL     C415570   0.013   0.304   2.815 -0.4896 -0.2983  0.3916
   44MOL     C515571   0.119   0.330   2.705 -0.1164 -0.1402  0.2828
   44MOL     C615572   0.110   0.470   2.667  0.0402 -0.1824 -0.4302
   44MOL     C715573   0.168   0.493   2.525 -0.2764  0.1881  0.4518
   44MOL     O815574   0.306   0.499   2.547  0.0938 -0.8430 -0.0938
   44MOL     H915575   7.794   0.146   2.943  1.0746 -0.3319  1.4559
   44MOL    H1015576   0.046   0.085   2.811  1.3533 -1.5184  2.1495
   44MOL    H1115577   0.016   0.374   2.898  0.3166 -0.0581  0.1647
   44MOL    H1215578   7.755   0.305   2.776 -0.7671 -2.1180  1.0011
   44MOL    H1315579   0.096   0.268   2.618 -0.7048  0.2395  0.1632
   44MOL    H1415580   0.221   0.307   2.736  0.1590  2.1950  1.2085
   44MOL    H1515581   0.157   0.539   2.737 -0.9475  0.2160 -0.1518
   44MOL    H1615582   0.003   0.490   2.655  0.4452  0.9144 -2.3703
   44MOL    H1715583   0.147   0.414   2.454  2.1574 -0.4125  0.3608
   44MOL    H1815584   0.130   0.587   2.485 -0.0982  0.2811  0.4999
   44MOL    H1915585   0.164   0.059   3.039  0.3643 -0.0551 -0.3193
   44MOL    C2015586   0.376   0.612   2.535  0.2134  0.1259  0.6542
   44MOL    O2115587   0.331   0.722   2.508 -0.7501 -0.1804 -0.5505
   44MOL    C2215588   0.528   0.590   2.546  0.2740 -0.6354 -1.1330
   44MOL    C2315589   0.577   0.596   2.689 -0.2748 -1.0478 -0.0155
   44MOL    C2415590   0.572   0.466   2.772  0.9806  0.3312 -0.2589
   44MOL    C2515591   0.598   0.485   2.917 -0.0594  0.2013 -0.2425
   44MOL    C2615592   0.474   0.501   2.994 -0.5672  0.4048  0.2514
   44MOL    O2715593   0.389   0.603   2.941  0.0277  0.0347  0.0188
   44MOL    H2815594   0.586   0.664   2.492  2.0384 -0.8139  0.4762
   44MOL    H2915595   0.540   0.488   2.509 -1.2108 -0.4302 -2.2620
   44MOL    H3015596   0.510   0.671   2.730  2.4255  1.5703 -0.2713
   44MOL    H3115597   0.671   0.651   2.685 -0.4520 -0.8604 -1.9784
   44MOL    H3215598   0.645   0.394   2.736  1.4454  1.2048 -1.0687
   44MOL    H3315599   0.478   0.413   2.754  2.8850 -3.2656 -0.0167
   44MOL    H3415600   0.648   0.581   2.928  0.4638 -0.0560 -0.3500
   44MOL    H3515601   0.663   0.409   2.960 -0.0856  0.4140  0.1826
   44MOL    H3615602   0.420   0.408   2.977 -0.9968  0.2904  2.1739
   44MOL    H3715603   0.492   0.524   3.099  0.4213  0.2857  0.1146
   44MOL    C3815604   0.392   0.725   2.988  0.6549 -0.4273  0.8060
   44MOL    O3915605   0.477   0.769   3.069  0.4660 -0.0377 -0.6083
   44MOL    C4015606   0.267   0.811   2.942  0.4843  0.3204 -0.1695
   44MOL    C4115607   0.131   0.769   3.000 -0.0411 -0.6605 -0.4999
   44MOL    C4215608   0.012   0.841   2.943  0.5487 -0.2362  0.4791
   44MOL    C4315609   7.719   0.774   2.984 -0.2191  0.0112  0.1067
   44MOL    C4415610   7.600   0.847   2.924 -0.1435  0.0702 -0.2218
   44MOL    O4515611   7.480   0.778   2.969 -0.0166 -0.1955 -0.6566
   44MOL    H4615612   0.267   0.795   2.834  0.3073 -3.5314  0.3093
   44MOL    H4715613   0.290   0.915   2.965  0.7981  0.6690 -1.9812
   44MOL    H4815614   0.121   0.761   3.108 -1.7481  2.0751 -0.4117
   44MOL    H4915615   0.130   0.663   2.974  0.0878 -0.4080 -1.5553
   44MOL    H5015616   0.021   0.856   2.836  0.0410  0.6279  0.5446
   44MOL    H5115617   0.021   0.945   2.974 -1.8495 -0.4001  1.8480
   44MOL    H5215618   7.718   0.786   3.092  1.4570  2.3024 -0.1101
   44MOL    H5315619   7.724   0.669   2.953  1.0643  0.6919 -2.0861
   44MOL    H5415620   7.600   0.956   2.933 -1.1807  0.0867 -0.3527
   44MOL    H5515621   7.599   0.846   2.815 -0.9870 -0.6281 -0.2176
   44MOL    C5615622   7.377   0.851   3.030  0.7282  0.5915 -0.3614
   44MOL    O5715623   7.372   0.969   3.070  0.7874  0.0032  0.1018
   44MOL    C5815624   7.249   0.754   3.032 -0.5684 -0.6636 -0.3486
   44MOL    C5915625   7.204   0.724   2.889  0.1999  0.0517 -0.4361
   44MOL    C6015626   7.147   0.847   2.819  0.3124  0.4144 -0.5625
   44MOL    C6115627   7.141   0.823   2.671 -0.1767  0.8250  0.2705
   44MOL    C6215628   7.065   0.913   2.580 -0.1424  0.3858 -0.0985
   44MOL    O6315629   6.921   0.909   2.599  0.1675 -0.0001 -0.3598
   44MOL    H6415630   7.170   0.812   3.082  1.5377  0.7825  1.3920
   44MOL    H6515631   7.287   0.674   3.095 -1.2249 -0.3265  0.5077
   44MOL    H6615632   7.131   0.644   2.902  0.2810 -0.2562 -1.8061
   44MOL    H6715633   7.292   0.683   2.839  2.5950 -0.4711  3.9387
   44MOL    H6815634   7.197   0.943   2.832  0.6085  0.4256 -1.7613
   44MOL    H6915635   7.050   0.877   2.858  1.2182  1.3861  1.0042
   44MOL    H7015636   7.100   0.723   2.653  2.1967 -0.1067 -0.1508
   44MOL    H7115637   7.244   0.833   2.637 -0.8319  1.5666 -1.5498
   44MOL    H7215638   7.106   1.014   2.586  2.1981 -0.3446 -2.6065
   44MOL    H7315639   7.079   0.884   2.475 -0.1514 -1.5549  0.4164
   44MOL    C7415640   6.849   1.012   2.563 -0.6165  0.9286 -0.2105
   44MOL    O7515641   6.899   1.121   2.535  0.6035  0.2166 -0.2292
   44MOL    C7615642   6.700   0.983   2.576 -0.4721 -0.6471 -1.0284
   44MOL    C7715643   6.652   1.007   2.719 -0.6065 -0.4387 -0.6394
   44MOL    C7815644   6.663   1.154   2.760 -0.4890 -0.3151 -0.6643
   44MOL    C7915645   6.605   1.261   2.682  0.2608  1.1120 -0.5545
   44MOL    C8015646   6.448   1.255   2.664 -0.8252  0.5761  0.1094
   44MOL    O8115647   6.431   1.367   2.574 -0.7819  0.7545 -0.0309
   44MOL    H8215648   6.688   0.881   2.539  1.4431 -0.1512 -3.0630
   44MOL    H8315649   6.648   1.034   2.495 -0.2238  1.4851  0.1339
   44MOL    H8415650   6.710   0.948   2.790 -0.8957  1.2554  1.0220
   44MOL    H8515651   6.546   0.985   2.732 -0.5447 -0.9057 -0.8860
   44MOL    H8615652   6.765   1.181   2.787 -0.4973 -0.0018 -0.9314
   44MOL    H8715653   6.616   1.163   2.858 -0.0372  1.4773 -0.5861
   44MOL    H8815654   6.655   1.280   2.587  2.2769 -1.2370 -0.0093
   44MOL    H8915655   6.622   1.354   2.736  0.9288 -0.1577  1.4763
   44MOL    H9015656   6.447   1.162   2.608  1.9705  0.6475 -0.1260
   44MOL    H9115657   6.375   1.246   2.744  0.1221  1.3774  1.0781
   44MOL    C9215658   6.361   1.361   2.461  0.4941  0.1297  0.0506
   44MOL    O9315659   6.293   1.270   2.426  0.2137 -0.3264  0.1872
   44MOL    C9415660   6.379   1.488   2.376  0.0626  0.0098  0.0954
   44MOL    C9515661   6.246   1.554   2.329 -0.2060 -0.3705 -0.0238
   44MOL    C9615662   6.282   1.646   2.207 -0.9443 -0.0733 -0.1472
   44MOL    C9715663   6.328   1.788   2.246 -0.1535  0.6018 -0.3951
   44MOL    C9815664   6.346   1.895   2.128  0.5306 -1.3182  0.0716
   44MOL    O9915665   6.470   1.881   2.062  0.2051  0.3115 -0.8560
   44MOL   H10015666   6.444   1.460   2.292  0.3434 -0.9322  0.6171
   44MOL   H10115667   6.439   1.561   2.430  1.1212 -1.6871  1.2664
   44MOL   H10215668   6.190   1.605   2.408 -1.2767  1.5357 -1.9647
   44MOL   H10315669   6.171   1.478   2.306 -0.6103  0.1275 -0.3675
   44MOL   H10415670   6.192   1.667   2.148  0.5621 -0.3965 -2.6284
   44MOL   H10515671   6.357   1.608   2.138 -0.0609  0.3283  0.5912
   44MOL   H10615672   6.419   1.770   2.303  1.1961  1.6590 -2.1559
   44MOL   H10715673   6.257   1.831   2.317  1.1054  0.9549  0.6726
   44MOL   H10815674   6.263   1.888   2.058 -0.3116 -0.3055  0.9558
   44MOL   H10915675   6.338   1.994   2.172  1.1033 -2.0300  1.8025
   44MOL   C11015676   6.509   1.976   1.976  0.7069 -0.1198  0.3544
   44MOL   O11115677   6.445   2.075   1.937  0.1661 -0.1521  0.1176
   44MOL   C11215678   6.646   1.939   1.916  0.4770 -0.2378  0.0909
   44MOL   C11315679   6.648   1.990   1.772 -0.4518  0.2017  0.1931
   44MOL   C11415680   6.775   1.953   1.700  0.2572  0.8324 -0.6247
   44MOL   C11515681   6.812   1.805   1.690  0.2449 -0.5875 -0.3042
   44MOL   C11615682   6.912   1.770   1.584 -0.5985 -0.3542 -0.0989
   44MOL   O11715683   6.870   1.798   1.448 -0.0572  1.0670  0.1138
   44MOL   H11815684   6.674   1.834   1.927  1.7969  0.2423  1.4481
   44MOL   H11915685   6.718   1.991   1.978 -0.2317  1.1080 -0.1982
   44MOL   H12015686   6.634   2.098   1.776 -1.1721  0.0858  1.1235
   44MOL   H12115687   6.564   1.958   1.712  0.2172  3.7186 -2.8174
   44MOL   H12215688   6.858   2.008   1.742 -1.3521  2.1850  0.8489
   44MOL   H12315689   6.760   1.990   1.598 -1.4508  2.5272  0.1984
   44MOL   H12415690   6.725   1.745   1.664 -0.7367  2.2135 -3.6895
   44MOL   H12515691   6.837   1.754   1.783  0.2299  0.4992  0.3054
   44MOL   H12615692   6.993   1.841   1.599 -0.0508 -0.8345 -0.7907
   44MOL   H12715693   6.948   1.669   1.606  0.1255 -0.1502 -0.3451
   44MOL   C12815694   6.961   1.840   1.352  0.7848 -0.0273 -0.6287
   44MOL   O12915695   7.074   1.874   1.371  0.0636  0.4169 -0.0166
   44MOL   C13015696   6.910   1.833   1.208 -0.3082 -0.3055 -0.4955
   44MOL   C13115697   6.846   1.957   1.154 -0.2305 -0.4984  0.4516
   44MOL   C13215698   6.750   2.024   1.250 -0.4668 -0.4930 -0.7344
   44MOL   C13315699   6.675   2.146   1.194 -0.2371  0.1031  0.7514
   44MOL   C13415700   6.594   2.232   1.288 -0.1598 -0.9367  0.1775
   44MOL   O13515701   6.470   2.170   1.309  0.3935  0.5262  0.3055
   44MOL   H13615702   6.845   1.746   1.194 -1.3901  0.6025 -1.2086
   44MOL   H13715703   6.996   1.810   1.146  0.0892  1.7494 -0.7609
   44MOL   H13815704   6.785   1.930   1.068  0.3618  0.2714 -0.2202
   44MOL   H13915705   6.921   2.025   1.114  0.4386 -1.3154  0.2846
   44MOL   H14015706   6.805   2.056   1.338 -2.4557 -1.6616  0.9772
   44MOL   H14115707   6.673   1.952   1.276 -1.1085  0.0828 -1.0268
   44MOL   H14215708   6.607   2.104   1.120 -1.7441  0.3957  1.9583
   44MOL   H14315709   6.746   2.212   1.145 -0.7792  0.6799  0.7449
   44MOL   H14415710   6.651   2.276   1.371  0.2983 -0.0373 -0.6035
   44MOL   H14515711   6.561   2.308   1.218  1.2411  0.0178  0.5172
   44MOL   C14615712   6.364   2.230   1.358  0.5643 -0.5051  0.0558
   44MOL   O14715713   6.355   2.350   1.380  0.7549  0.9009  0.5050
   44MOL   C14815714   6.244   2.135   1.374 -0.0779  0.2770 -0.4440
   44MOL   C14915715   6.194   2.082   1.242  0.4615  0.4234 -0.2455
   44MOL   C15015716   6.158   2.196   1.144  0.5005 -0.2040 -0.7093
   44MOL   C15115717   6.052   2.152   1.042  0.3984  0.1742 -0.6876
   44MOL   C15215718   6.048   2.252   0.924 -0.0022 -0.0493  0.1601
   44MOL   O15315719   5.976   2.363   0.977  0.2754 -0.2383 -0.4104
   44MOL   H15415720   6.166   2.190   1.427  0.6862  2.4001 -1.4768
   44MOL   H15515721   6.274   2.056   1.442 -0.1804 -0.3350 -1.1065
   44MOL   H15615722   6.109   2.018   1.261  1.0912  0.3331  2.5278
   44MOL   H15715723   6.272   2.018   1.200  1.6993  1.1408  0.8970
   44MOL   H15815724   6.248   2.215   1.086  0.7542  0.0325 -0.2437
   44MOL   H15915725   6.137   2.283   1.206  0.1416 -0.2476 -0.7713
   44MOL   H16015726   5.951   2.143   1.082  0.4544  0.1503 -0.5528
   44MOL   H16115727   6.077   2.052   1.006 -3.1536 -0.0625 -2.7180
   44MOL   H16215728   6.148   2.279   0.890 -0.2153  0.1134 -0.3344
   44MOL   H16315729   5.992   2.204   0.843 -3.5750  1.3723  1.6905
   44MOL   C16415730   5.967   2.475   0.900 -1.0917 -0.3411  0.3458
   44MOL   O16515731   6.031   2.490   0.791 -0.7609  0.5759 -0.4435
   44MOL   C16615732   5.884   2.583   0.966 -0.0472 -0.3597  0.9025
   44MOL   C16715733   5.873   2.703   0.876 -0.1235 -0.4306  0.0870
   44MOL   C16815734   5.789   2.675   0.747 -0.4068  0.8622 -0.4405
   44MOL   C16915735   5.803   2.800   0.664 -0.0508 -0.4570  0.3452
   44MOL   C17015736   5.716   2.801   0.535  0.0193  0.6399  0.0063
   44MOL   O17115737   5.580   2.803   0.580 -0.3016 -0.0230 -0.4355
   44MOL   H17215738   5.933   2.627   1.053 -0.9515 -2.7594  2.6741
   44MOL   H17315739   5.797   2.540   1.015 -0.4366 -2.3060 -1.4264
   44MOL   H17415740   5.973   2.737   0.848  0.3354 -1.3344  0.5691
   44MOL   H17515741   5.828   2.781   0.937  1.1629 -0.0479  0.5624
   44MOL   H17615742   5.686   2.648   0.773  0.4374 -0.4446  1.7105
   44MOL   H17715743   5.819   2.590   0.686  0.8214  2.0036 -1.4468
   44MOL   H17815744   5.910   2.804   0.646  0.0832  1.5577  1.4304
   44MOL   H17915745   5.780   2.888   0.725  0.1913 -1.3445  1.7106
   44MOL   H18015746   5.731   2.888   0.470 -2.3875 -0.3198 -1.9359
   44MOL   H18115747   5.738   2.719   0.468  0.0995  0.2358  0.5236
   44MOL   C18215748   5.483   2.759   0.498  0.7815  0.0785 -0.5290
   44MOL   O18315749   5.495   2.679   0.407 -0.8923 -0.3070 -0.2793
   44MOL   C18415750   5.346   2.793   0.549  0.2803  0.3773  0.6386
   44MOL   C18515751   5.307   2.697   0.656  0.3885  0.1447 -0.3210
   44MOL   C18615752   5.153   2.697   0.696 -0.0502  0.0840 -0.0759
   44MOL   C18715753   5.132   2.606   0.823 -0.7082 -0.0649  0.5507
   44MOL   C18815754   4.984   2.584   0.852 -0.4407 -0.0170 -0.2366
   44MOL   O18915755   4.975   2.545   0.985 -0.2879 -0.6299 -0.5230
   44MOL   H19015756   5.268   2.781   0.474 -0.0571 -0.3672  1.1065
   44MOL   H19115757   5.333   2.899   0.569  2.7069  1.2216 -1.9642
   44MOL   H19215758   5.357   2.719   0.750 -0.5083  0.9768 -0.0363
   44MOL   H19315759   5.325   2.597   0.617 -0.1141  0.0891 -0.4017
   44MOL   H19415760   5.086   2.678   0.612  0.7246  2.1772 -1.1909
   44MOL   H19515761   5.136   2.798   0.732 -1.7402 -0.9650  2.2196
   44MOL   H19615762   5.177   2.671   0.897  0.9384 -0.6428  0.0826
   44MOL   H19715763   5.188   2.514   0.804 -0.0518  0.3011  0.7314
   44MOL   H19815764   4.922   2.671   0.829 -0.0999  0.5068  0.7840
   44MOL   H19915765   4.953   2.514   0.774 -0.0043  0.5879 -0.9515
   44MOL   C20015766   4.852   2.514   1.037 -0.0362 -0.5366  0.4934
   44MOL   O20115767   4.739   2.525   0.980 -0.7287 -0.7879  0.0329
   44MOL   C20215768   4.857   2.480   1.184 -0.0059  0.4106  0.8956
   44MOL   C20315769   4.725   2.492   1.257  0.0286  0.7715 -0.0817
   44MOL   C20415770   4.693   2.646   1.264 -0.1664 -0.3114  0.4743
   44MOL   C20515771   4.556   2.680   1.330  0.7405 -0.4723  0.5791
   44MOL   C20615772   4.564   2.672   1.487  0.4952  0.4101  0.1202
   44MOL   O20715773   4.556   2.533   1.518 -0.4973 -0.2075 -0.4448
   44MOL   H20815774   4.927   2.549   1.232  0.5490  0.9190 -0.6260
   44MOL   H20915775   4.889   2.376   1.186  0.3613  0.5109  0.3548
   44MOL   H21015776   4.731   2.443   1.354 -0.6440  2.8544  1.0550
   44MOL   H21115777   4.655   2.440   1.192  0.0919  0.4551  0.1023
   44MOL   H21215778   4.681   2.691   1.165 -1.3321 -2.6353 -0.4938
   44MOL   H21315779   4.781   2.693   1.308 -1.4765  1.7853  0.9110
   44MOL   H21415780   4.484   2.608   1.290 -0.6962 -0.2599  2.7289
   44MOL   H21515781   4.544   2.782   1.294  1.1147 -0.3116  0.9012
   44MOL   H21615782   4.660   2.721   1.504  0.7289  1.0529 -2.7678
   44MOL   H21715783   4.488   2.739   1.528  0.9177  0.3161  1.0858
   44MOL   C21815784   4.609   2.497   1.647 -1.0642 -0.1550  0.0887
   44MOL   O21915785   4.626   2.579   1.736  0.4118  0.5543 -0.0147
   44MOL   C22015786   4.628   2.348   1.674 -0.6668  0.1129  0.3555
   44MOL   C22115787   4.739   2.266   1.596 -0.0569  0.5037  0.1932
   44MOL   C22215788   4.877   2.322   1.604  1.0751  0.3535 -0.4055
   44MOL   C22315789   4.971   2.252   1.503  0.2868 -0.2102  0.2646
   44MOL   C22415790   5.115   2.315   1.500  0.2780  0.1351 -0.4020
   44MOL   O22515791   5.178   2.299   1.625 -0.9342  0.0708  0.1583
   44MOL   H22615792   4.530   2.309   1.647  0.4227 -1.2723 -1.7258
   44MOL   H22715793   4.636   2.326   1.780  0.3577  2.3777  0.7868
   44MOL   H22815794   4.711   2.250   1.492 -1.4226 -0.1651  0.6544
   44MOL   H22915795   4.748   2.171   1.649  1.6441  1.2569  1.3075
   44MOL   H23015796   4.912   2.310   1.707 -1.0549 -0.9161  0.2119
   44MOL   H23115797   4.874   2.431   1.603 -0.9650  0.3249 -0.1018
   44MOL   H23215798   4.935   2.268   1.402  2.0312 -1.6997 -0.6316
   44MOL   H23315799   4.984   2.147   1.531  0.6350 -0.2110  0.0938
   44MOL   H23415800   5.171   2.268   1.418 -1.9592  0.3339 -2.0803
   44MOL   H23515801   5.114   2.422   1.479 -0.6016  0.2048  0.0113
   44MOL   C23615802   5.312   2.285   1.630 -0.2019  0.1524  0.2328
   44MOL   O23715803   5.394   2.301   1.536  0.3161 -0.5791 -0.2543
   44MOL   C23815804   5.360   2.233   1.767 -0.1452  0.3394  0.6515
   44MOL   C23915805   5.489   2.155   1.735 -0.4024  0.7185  0.0753
   44MOL   C24015806   5.532   2.062   1.849  0.2259 -0.2814  0.0131
   44MOL   C24115807   5.659   1.978   1.817  0.4005 -0.2010 -0.1952
   44MOL   C24215808   5.744   1.921   1.933  0.2543  0.4680  0.3844
   44MOL   O24315809   5.855   1.849   1.876 -0.0222 -0.0067 -0.1237
   44MOL   H24415810   5.275   2.176   1.805  0.0061 -0.1032  0.3400
   44MOL   H24515811   5.377   2.310   1.841 -2.9828  0.7230  0.9694
   44MOL   H24615812   5.571   2.218   1.700  0.8951  0.0515  1.8362
   44MOL   H24715813   5.469   2.088   1.650 -0.7593 -1.3020  1.7143
   44MOL   H24815814   5.443   2.003   1.870 -0.4066  1.0502  1.1615
   44MOL   H24915815   5.564   2.125   1.932  0.4181  0.0708 -0.3222
   44MOL   H25015816   5.721   2.019   1.737  0.8389 -0.4258  0.0350
   44MOL   H25115817   5.621   1.887   1.770 -3.5634  0.2096  2.0219
   44MOL   H25215818   5.791   1.999   1.994  0.4451 -0.0894  0.9550
   44MOL   H25315819   5.684   1.851   1.992 -0.0669  0.1691 -0.2907
   44MOL   C25415820   5.919   1.760   1.959 -0.1920 -0.7250  0.4219
   44MOL   O25515821   5.914   1.763   2.084 -0.3762 -0.2830  0.0701
   44MOL   C25615822   6.005   1.659   1.878 -0.4325  0.6037  0.8122
   44MOL   C25715823   6.050   1.730   1.749 -0.3689  0.1450 -0.2452
   44MOL   C25815824   6.170   1.828   1.756 -0.3974  0.1505  0.3358
   44MOL   C25915825   6.237   1.836   1.619  0.1076 -0.1954  0.4561
   44MOL   C26015826   6.337   1.718   1.575  0.3795 -0.2322  0.2139
   44MOL   O26115827   6.418   1.754   1.470  0.1068 -0.0172  0.5648
   44MOL   H26215828   5.934   1.579   1.857 -0.8126  1.2215 -0.3162
   44MOL   H26315829   6.085   1.622   1.941  1.2564  2.6557 -0.0405
   44MOL   H26415830   5.970   1.787   1.701 -0.9415 -1.2723 -1.0105
   44MOL   H26515831   6.079   1.652   1.678 -1.0179  0.9810 -1.4554
   44MOL   H26615832   6.245   1.794   1.827 -0.8362 -1.7102 -0.0673
   44MOL   H26715833   6.114   1.915   1.790 -1.7746  0.3844 -2.3626
   44MOL   H26815834   6.296   1.927   1.611  0.4537 -0.4561 -0.0361
   44MOL   H26915835   6.156   1.850   1.547 -1.1397  0.2924  1.9513
   44MOL   H27015836   6.407   1.699   1.656  1.0900 -0.7542 -0.5258
   44MOL   H27115837   6.281   1.628   1.550 -0.5926  0.7062 -1.1089
   44MOL   C27215838   6.448   1.660   1.379 -0.9797 -0.2201 -0.4599
   44MOL   O27315839   6.390   1.553   1.363 -0.0027 -0.1757 -0.3785
   44MOL   C27415840   6.567   1.690   1.283 -0.1161  0.0967 -0.2111
   44MOL   C27515841   6.613   1.571   1.194 -0.2533 -0.3960 -0.9191
   44MOL   C27615842   6.712   1.481   1.274 -0.8531  0.6459  0.0327
   44MOL   C27715843   6.808   1.399   1.182 -0.8673  0.1231  0.3023
   44MOL   C27815844   6.883   1.288   1.254 -0.1310  0.1960 -0.6026
   44MOL   O27915845   6.978   1.342   1.348  0.7692  0.9299 -0.0098
   44MOL   H28015846   6.647   1.731   1.344 -0.0442  0.2281 -0.3940
   44MOL   H28115847   6.539   1.780   1.228  1.5456  2.0444  2.0505
   44MOL   H28215848   6.668   1.613   1.110 -0.1537  0.0722 -0.6243
   44MOL   H28315849   6.523   1.522   1.156 -0.5019 -2.4897  2.1785
   44MOL   H28415850   6.652   1.423   1.344  1.8498 -2.6765 -0.3125
   44MOL   H28515851   6.779   1.540   1.336 -0.5747  0.7225 -0.3390
   44MOL   H28615852   6.869   1.466   1.121 -1.7488  1.1803  0.5666
   44MOL   H28715853   6.737   1.348   1.117  0.1950 -1.1829  0.1688
   44MOL   H28815854   6.820   1.225   1.318 -0.4960  0.8026 -0.3581
   44MOL   H28915855   6.937   1.223   1.185  0.0413  0.4233 -0.6803
   44MOL   C29015856   7.091   1.278   1.362 -0.0191  0.1438 -0.8375
   44MOL   O29115857   7.121   1.173   1.309  1.1954  0.1447  1.0012
   44MOL   C29215858   7.192   1.359   1.449  0.0052  0.9451  0.4452
   44MOL   C29315859   7.282   1.452   1.364 -0.2265  0.1635 -0.7310
   44MOL   C29415860   7.376   1.547   1.438  0.3628 -0.3940  0.1023
   44MOL   C29515861   7.304   1.662   1.516  0.0787  0.1419 -0.0482
   44MOL   C29615862   7.402   1.750   1.588  0.2963  1.1394 -0.2549
   44MOL   O29715863   7.483   1.677   1.678 -0.2448  0.5036  0.4899
   44MOL   H29815864   7.259   1.292   1.503 -1.1213 -0.8561 -0.3785
   44MOL   H29915865   7.135   1.418   1.521  0.2044  0.6256  0.8658
   44MOL   H30015866   7.219   1.500   1.289  0.3046 -0.3392 -1.4972
   44MOL   H30115867   7.337   1.384   1.300  1.5905  0.2719  0.6777
   44MOL   H30215868   7.456   1.577   1.370  2.8550 -2.7543  1.8833
   44MOL   H30315869   7.435   1.494   1.513 -0.8218  1.9863  2.7972
   44MOL   H30415870   7.230   1.627   1.589  0.5999 -0.1015  0.3613
   44MOL   H30515871   7.246   1.720   1.444 -1.7758  1.9537  2.7745
   44MOL   H30615872   7.467   1.785   1.507 -1.9373 -0.3388 -2.7911
   44MOL   H30715873   7.352   1.836   1.632 -0.0067  0.8443 -0.0173
   44MOL   C30815874   7.536   1.746   1.773  0.1360  0.3991 -0.9541
   44MOL   O30915875   7.530   1.871   1.786 -0.3377 -0.4141 -0.3283
   44MOL   C31015876   7.630   1.658   1.860 -0.1053 -0.6819 -0.3238
   44MOL   C31115877   7.557   1.535   1.928  0.2579  0.1777  0.6563
   44MOL   C31215878   7.643   1.467   2.037 -0.4872  0.0208 -0.2586
   44MOL   C31315879   7.656   1.555   2.163  0.2514 -0.1759 -0.3796
   44MOL   C31415880   7.547   1.550   2.266 -1.0627 -0.4454 -0.2698
   44MOL   O31515881   7.476   1.425   2.261  0.3943  0.3177 -0.5630
   44MOL   H31615882   7.679   1.729   1.927  0.8017  0.4915 -2.2057
   44MOL   H31715883   7.703   1.630   1.785  0.1800  0.0561 -0.3258
   44MOL   H31815884   7.537   1.468   1.844 -0.0659 -0.3890  1.1821
   44MOL   H31915885   7.462   1.559   1.976 -0.7362  1.3396 -1.7728
   44MOL   H32015886   7.739   1.441   1.992  0.0298  1.4701 -0.0191
   44MOL   H32115887   7.597   1.369   2.048 -0.4211  0.0187 -0.0013
   44MOL   H32215888   7.677   1.659   2.136 -2.6001  0.9249  1.2941
   44MOL   H32315889   7.749   1.515   2.203  1.6157  0.9744 -2.3258
   44MOL   H32415890   7.576   1.577   2.367 -3.4514  0.7416  0.1222
   44MOL   H32515891   7.469   1.623   2.248  0.4256  1.2707  0.1678
   44MOL   C32615892   7.387   1.395   2.348 -0.6970  0.6012 -0.2081
   44MOL   O32715893   7.382   1.440   2.460  0.3933 -0.1802 -0.0610
   44MOL   C32815894   7.277   1.306   2.285 -0.4194 -0.2486  0.4912
   44MOL   C32915895   7.268   1.165   2.338 -0.7228 -0.4754  0.6262
   44MOL   C33015896   7.394   1.088   2.325  0.2852 -0.3981 -0.4210
   44MOL   C33115897   7.394   0.954   2.388  0.0034  0.3531  0.5024
   44MOL   C33215898   7.539   0.906   2.401  0.0749 -0.8988  0.4802
   44MOL   O33315899   7.530   0.772   2.458  0.3571  0.5918 -1.1285
   44MOL   H33415900   7.288   1.308   2.176  1.6997 -1.9034  0.6520
   44MOL   H33515901   7.188   1.369   2.289  1.9694  3.2773  0.9203
   44MOL   H33615902   7.197   1.116   2.272 -1.9190 -0.0843  1.6036
   44MOL   H33715903   7.241   1.151   2.443 -0.8598 -1.7962  0.4283
   44MOL   H33815904   7.460   1.153   2.384  0.0606  1.2180 -1.9014
   44MOL   H33915905   7.438   1.089   2.226  1.3446 -1.6070  0.0197
   44MOL   H34015906   7.335   0.875   2.341  1.4943 -0.9333  0.7531
   44MOL   H34115907   7.354   0.964   2.489 -0.6218  1.8930  0.1273
   44MOL   H34215908   7.595   0.917   2.308 -0.9980 -0.4414 -0.1123
   44MOL   H34315909   7.595   0.970   2.470  1.4882 -1.9798  0.3514
   44MOL   C34415910   7.635   0.717   2.515  0.3315 -1.1389 -0.6843
   44MOL   O34515911   7.751   0.752   2.501  0.3203  0.1232 -0.1181
   44MOL   C34615912   7.587   0.600   2.605 -0.1277 -0.2335 -0.0575
   44MOL   C34715913   7.535   0.474   2.517 -0.1613  0.4345 -0.5497
   44MOL   C34815914   7.635   0.375   2.448 -0.1969  0.1708 -0.5538
   44MOL   C34915915   7.562   0.273   2.354  0.3958 -0.5578  0.1429
   44MOL   C35015916   7.645   0.153   2.309  0.0217 -0.3513 -0.0967
   44MOL   O35115917   7.659   0.064   2.421  1.1647 -0.4416  0.1936
   44MOL   H35215918   7.505   0.635   2.667 -0.2084 -0.6433  0.0704
   44MOL   H35315919   7.666   0.570   2.675 -0.8646 -1.3761  0.2948
   44MOL   H35415920   7.465   0.514   2.444  1.0889 -1.7017 -2.9595
   44MOL   H35515921   7.479   0.404   2.580  0.6138 -1.9844 -2.4641
   44MOL   H35615922   7.686   0.316   2.524  1.4385  1.9286 -0.2488
   44MOL   H35715923   7.715   0.425   2.394 -1.2323  0.5783 -1.7343
   44MOL   H35815924   7.526   0.314   2.260  0.1388 -0.7183  0.1716
   44MOL   H35915925   7.478   0.223   2.404  0.8268  0.0352  1.4922
   44MOL   H36015926   7.602   0.103   2.222  1.2916 -1.9844  0.2040
   44MOL   H36115927   7.744   0.176   2.270 -0.2339  1.0461  0.0313
   44MOL   H36215928   7.714   7.841   2.383  2.8264  0.7576  0.3998
   45MOL     C115929   4.141   2.258   4.916 -0.2295 -0.2894 -0.3584
   45MOL     O215930   4.218   2.355   4.908  0.3524 -0.2934  0.0595
   45MOL     C315931   4.009   2.263   4.992  0.2525 -0.5671  0.3877
   45MOL     C415932   3.897   2.208   4.901 -0.3674 -0.7499 -0.0610
   45MOL     C515933   3.764   2.210   4.969 -0.2946  0.9041  0.4433
   45MOL     C615934   3.644   2.156   4.879  0.0796 -0.1687 -0.6550
   45MOL     C715935   3.611   2.260   4.772  0.7451  0.0117 -0.0543
   45MOL     O815936   3.553   2.201   4.657 -0.0256  0.2391 -0.0143
   45MOL     H915937   3.982   2.365   5.021 -0.3355 -0.7882  0.6174
   45MOL    H1015938   4.014   2.209   5.086  1.7643  0.2449  0.7864
   45MOL    H1115939   3.932   2.109   4.872  1.7751 -0.0155 -0.0869
   45MOL    H1215940   3.894   2.276   4.817  4.1770  1.2151  1.2076
   45MOL    H1315941   3.743   2.316   4.984 -2.4495  0.9354 -2.3997
   45MOL    H1415942   3.766   2.149   5.059  1.5416  0.3333  0.0350
   45MOL    H1515943   3.559   2.155   4.948  0.9019 -1.6584  0.3642
   45MOL    H1615944   3.674   2.063   4.832  1.7137 -0.7426  1.4167
   45MOL    H1715945   3.540   2.330   4.816  1.0649  1.3609 -1.6108
   45MOL    H1815946   3.696   2.320   4.739 -1.4513  1.9370 -2.4229
   45MOL    H1915947   4.175   2.164   4.872  1.9647 -1.1104  2.8851
   45MOL    C2015948   3.421   2.163   4.661  0.5706 -0.4875 -0.7276
   45MOL    O2115949   3.346   2.190   4.751  0.0220 -0.1439 -0.0282
   45MOL    C2215950   3.385   2.065   4.551  0.1635 -0.0093 -0.0295
   45MOL    C2315951   3.248   2.082   4.497  0.9719 -0.6451 -0.0540
   45MOL    C2415952   3.124   2.027   4.572  0.6678  0.1894  0.5508
   45MOL    C2515953   2.989   2.040   4.495 -1.5394 -0.0304  1.0465
   45MOL    C2615954   2.881   1.956   4.549 -0.8057 -0.5374  0.0721
   45MOL    O2715955   2.892   1.820   4.502 -0.2410 -0.4354  0.1379
   45MOL    H2815956   3.388   1.961   4.583  0.4630 -0.3918 -1.2829
   45MOL    H2915957   3.439   2.097   4.462 -1.1459  0.6951 -0.5854
   45MOL    H3015958   3.243   2.041   4.397 -1.7624 -1.0126  0.2014
   45MOL    H3115959   3.234   2.189   4.482  2.9627 -0.0474  2.0325
   45MOL    H3215960   3.118   2.072   4.672  0.0380 -0.5003  0.8284
   45MOL    H3315961   3.129   1.919   4.588 -0.7522  0.0362  0.0154
   45MOL    H3415962   2.999   2.015   4.389  0.2129  3.0826  0.3983
   45MOL    H3515963   2.963   2.146   4.493 -1.4813  0.0008  1.8716
   45MOL    H3615964   2.868   1.957   4.657 -0.1698  0.9153  0.1522
   45MOL    H3715965   2.791   1.996   4.502  0.3046  0.3193 -1.3743
   45MOL    C3815966   2.785   1.742   4.526  0.5277 -0.0524 -0.5958
   45MOL    O3915967   2.684   1.767   4.596 -0.2035  0.0564  0.3952
   45MOL    C4015968   2.798   1.601   4.463 -0.9749  0.2736 -0.6763
   45MOL    C4115969   2.783   1.606   4.309  0.4062 -0.4460  0.2049
   45MOL    C4215970   2.837   1.483   4.231 -0.6754  0.2871  0.4200
   45MOL    C4315971   2.965   1.421   4.283  0.0016  0.8733  0.1904
   45MOL    C4415972   3.032   1.313   4.193  0.4835 -0.1755 -0.4228
   45MOL    O4515973   2.931   1.218   4.150 -0.4291 -0.4133 -0.4620
   45MOL    H4615974   2.724   1.544   4.519 -0.0387 -0.2785  0.0287
   45MOL    H4715975   2.896   1.569   4.499 -1.5404  1.2710  1.8401
   45MOL    H4815976   2.829   1.692   4.260 -0.5141  0.3569  0.7339
   45MOL    H4915977   2.679   1.620   4.281  0.7375 -0.3772 -1.0264
   45MOL    H5015978   2.850   1.526   4.132 -2.6021 -0.4149 -0.1450
   45MOL    H5115979   2.757   1.411   4.217 -0.1771 -0.4041  1.1071
   45MOL    H5215980   2.940   1.378   4.380  1.2594  0.0114  0.1447
   45MOL    H5315981   3.031   1.501   4.314 -0.2071  0.7341  1.0005
   45MOL    H5415982   3.067   1.353   4.098  0.0100  1.2978  0.0140
   45MOL    H5515983   3.118   1.275   4.249 -0.4297 -2.1340 -0.3263
   45MOL    C5615984   2.894   1.116   4.238 -0.9210  0.1079  0.5716
   45MOL    O5715985   2.924   1.108   4.361  0.1995 -0.8328  0.2954
   45MOL    C5815986   2.828   1.005   4.160  0.6185  0.4716  0.1912
   45MOL    C5915987   2.796   0.871   4.230 -0.3176 -0.2593 -0.8095
   45MOL    C6015988   2.921   0.790   4.267  0.5769 -0.7155  1.1039
   45MOL    C6115989   2.895   0.643   4.320  0.1458 -0.2771  0.0968
   45MOL    C6215990   3.011   0.589   4.410 -0.9284 -0.5304  0.1038
   45MOL    O6315991   2.995   0.609   4.548  0.3990 -0.2397  0.3191
   45MOL    H6415992   2.894   0.976   4.078  1.8059 -2.6272  2.1427
   45MOL    H6515993   2.734   1.043   4.119  0.8902 -0.3587 -1.2362
   45MOL    H6615994   2.734   0.809   4.164 -2.5140 -0.7297  1.6269
   45MOL    H6715995   2.749   0.900   4.324  0.7149 -1.5951  0.1400
   45MOL    H6815996   2.978   0.838   4.346  2.7036 -2.1487  0.4914
   45MOL    H6915997   2.983   0.776   4.178 -1.3341  0.4382 -0.4638
   45MOL    H7015998   2.869   0.575   4.239 -0.9330 -1.4894  1.4309
   45MOL    H7115999   2.801   0.641   4.376  0.7266 -0.3160  1.0924
   45MOL    H7216000   3.019   0.481   4.403 -0.5134 -0.3361 -4.1786
   45MOL    H7316001   3.098   0.642   4.370 -1.0282 -0.3442  0.1310
   45MOL    C7416002   2.930   0.511   4.615  0.0243 -0.6359 -0.8812
   45MOL    O7516003   2.868   0.415   4.566 -0.0276 -0.0892  0.0872
   45MOL    C7616004   2.950   0.528   4.768  0.3595  0.1208  0.1876
   45MOL    C7716005   2.970   0.677   4.811  0.3488  0.4335  0.2430
   45MOL    C7816006   3.118   0.704   4.818 -0.0659  0.6193  0.5760
   45MOL    C7916007   3.146   0.850   4.859  0.0295  0.0813 -0.8469
   45MOL    C8016008   3.295   0.892   4.886 -0.0702  0.1257  0.1563
   45MOL    O8116009   3.291   1.022   4.934 -0.4312  0.0025 -0.5421
   45MOL    H8216010   3.035   0.468   4.800  0.8586  1.4053  1.2989
   45MOL    H8316011   2.860   0.486   4.814  0.8212 -0.2201  0.7771
   45MOL    H8416012   2.917   0.679   4.906  0.5896 -0.8576  0.4205
   45MOL    H8516013   2.916   0.740   4.741 -2.0410 -0.4978  1.1604
   45MOL    H8616014   3.155   0.665   4.723 -0.9748  2.3066 -0.4878
   45MOL    H8716015   3.161   0.634   4.890  1.7641  0.2554 -0.8336
   45MOL    H8816016   3.079   0.865   4.944  1.8944 -0.9526  0.8628
   45MOL    H8916017   3.115   0.911   4.775 -2.6168 -0.5429 -0.3571
   45MOL    H9016018   3.334   0.827   4.964  0.7210  1.2707  0.7239
   45MOL    H9116019   3.343   0.871   4.790 -1.3297  0.6054 -0.5809
   45MOL    C9216020   3.400   1.097   4.943  0.5884 -0.1373  0.7684
   45MOL    O9316021   3.509   1.063   4.897  0.2602 -0.5661 -0.2041
   45MOL    C9416022   3.380   1.210   5.043 -0.1719 -0.9342  0.0706
   45MOL    C9516023   3.491   1.317   5.041  0.3050  0.5432 -0.1976
   45MOL    C9616024   3.486   1.406   4.918 -0.2042 -1.0075  0.0302
   45MOL    C9716025   3.610   1.502   4.921  0.1052  0.6102  0.1216
   45MOL    C9816026   3.613   1.601   4.802 -0.2107  0.1431 -0.5120
   45MOL    O9916027   3.501   1.686   4.800  0.0855  0.5582 -0.0200
   45MOL   H10016028   3.394   1.152   5.134  3.4622  0.6957  0.6475
   45MOL   H10116029   3.281   1.254   5.037  0.4350  0.4879  0.3418
   45MOL   H10216030   3.583   1.262   5.061 -0.9424 -1.4082  0.3094
   45MOL   H10316031   3.473   1.380   5.128 -2.6892  0.4099 -0.6820
   45MOL   H10416032   3.394   1.464   4.926  0.3475 -0.0859 -0.2544
   45MOL   H10516033   3.485   1.348   4.825  1.0665  0.5903 -0.9911
   45MOL   H10616034   3.699   1.441   4.910  1.5662  2.3372  1.9694
   45MOL   H10716035   3.622   1.555   5.016  1.1983  1.3153 -0.3975
   45MOL   H10816036   3.705   1.659   4.813 -0.0696 -0.3033  0.7291
   45MOL   H10916037   3.606   1.539   4.713 -1.2656 -0.6424  0.1121
   45MOL   C11016038   3.506   1.795   4.885  0.7043  0.3129  0.4296
   45MOL   O11116039   3.594   1.821   4.966 -0.7246 -0.2527  0.4119
   45MOL   C11216040   3.378   1.873   4.887  0.3600  0.3805  0.2079
   45MOL   C11316041   3.263   1.794   4.963 -0.8395  0.1133 -0.2390
   45MOL   C11416042   3.141   1.884   4.968  0.7045  0.3645 -0.1898
   45MOL   C11516043   3.036   1.838   5.066  0.3529 -0.5436 -0.8231
   45MOL   C11616044   2.899   1.908   5.050  0.2437 -0.9272  0.6309
   45MOL   O11716045   2.905   2.039   5.099 -0.0975  0.8450  0.1719
   45MOL   H11816046   3.341   1.888   4.786  1.4338  0.9927 -0.0986
   45MOL   H11916047   3.394   1.971   4.931  0.3109  0.6457 -0.3648
   45MOL   H12016048   3.294   1.775   5.066 -1.1635 -1.6531 -0.4445
   45MOL   H12116049   3.237   1.706   4.905 -1.6612 -0.2302  0.6272
   45MOL   H12216050   3.103   1.875   4.867 -0.6742  2.4582  0.1139
   45MOL   H12316051   3.164   1.988   4.992 -0.7549  0.5751  0.3336
   45MOL   H12416052   3.054   1.872   5.168 -2.2272  0.7512 -0.7501
   45MOL   H12516053   3.027   1.730   5.073 -0.5627 -0.3482  1.9557
   45MOL   H12616054   2.868   1.905   4.946  0.1596 -1.3933  0.6707
   45MOL   H12716055   2.819   1.862   5.108 -1.4301 -0.0219 -0.9162
   45MOL   C12816056   2.877   2.145   5.026  0.0331  0.5211 -0.4988
   45MOL   O12916057   2.848   2.146   4.909  0.0675  0.0669  0.4503
   45MOL   C13016058   2.886   2.278   5.101  1.0549 -0.0573  0.5652
   45MOL   C13116059   3.030   2.324   5.123 -1.0096  0.1756  0.3501
   45MOL   C13216060   3.118   2.254   5.226 -0.0353 -1.0660 -0.0393
   45MOL   C13316061   3.264   2.297   5.211  0.2213 -0.1125 -0.6663
   45MOL   C13416062   3.358   2.238   5.312 -0.4402  0.0952  0.0045
   45MOL   O13516063   3.486   2.286   5.298 -0.1196 -0.2388  0.4103
   45MOL   H13616064   2.837   2.271   5.198  0.9567  0.6776  0.5705
   45MOL   H13716065   2.841   2.367   5.058  2.5672  0.2913 -0.3188
   45MOL   H13816066   3.024   2.429   5.152  1.1245  0.3648  0.1960
   45MOL   H13916067   3.080   2.317   5.026 -1.0374  0.6619  0.2993
   45MOL   H14016068   3.117   2.148   5.202 -2.2054 -0.8613 -0.9446
   45MOL   H14116069   3.076   2.275   5.325 -1.3143 -0.2924 -0.7284
   45MOL   H14216070   3.271   2.405   5.220 -1.1004 -0.0044 -0.8430
   45MOL   H14316071   3.294   2.277   5.108  0.0419  0.6304 -0.8638
   45MOL   H14416072   3.312   2.243   5.411 -0.0663  1.0475  0.1383
   45MOL   H14516073   3.363   2.130   5.298 -1.0618  0.2180 -1.2347
   45MOL   C14616074   3.563   2.287   5.406  0.3551  0.1362  0.5508
   45MOL   O14716075   3.535   2.239   5.515  0.0540  0.3990  0.1430
   45MOL   C14816076   3.697   2.359   5.383  0.1708  0.3196  0.1612
   45MOL   C14916077   3.765   2.414   5.509  0.0258  0.5424 -0.2603
   45MOL   C15016078   3.687   2.544   5.549  0.3150 -0.1723 -0.0393
   45MOL   C15116079   3.769   2.636   5.639  0.7978 -0.0148 -0.9383
   45MOL   C15216080   3.693   2.769   5.692 -1.1865 -0.3382 -0.1656
   45MOL   O15316081   3.622   2.833   5.584  0.0114  0.0013 -0.0811
   45MOL   H15416082   3.676   2.434   5.306 -0.5188 -1.1136 -1.0667
   45MOL   H15516083   3.765   2.288   5.336  2.0963  0.7265  2.2650
   45MOL   H15616084   3.873   2.421   5.499  0.2860  0.1711  2.1137
   45MOL   H15716085   3.769   2.345   5.593  0.9901  0.5127 -0.3234
   45MOL   H15816086   3.592   2.509   5.589  0.0028  0.2969 -0.3518
   45MOL   H15916087   3.668   2.594   5.454 -0.5114  0.0296  0.2270
   45MOL   H16016088   3.853   2.679   5.585  0.3453 -0.0650 -1.6890
   45MOL   H16116089   3.815   2.589   5.726  1.0019  2.0149  0.0841
   45MOL   H16216090   3.621   2.759   5.774  1.6193  1.7762  2.6324
   45MOL   H16316091   3.766   2.834   5.739 -1.1289 -1.3462  1.1513
   45MOL   C16416092   3.689   2.914   5.492  0.6115  0.1637  0.0397
   45MOL   O16516093   3.811   2.920   5.478  0.2432  0.1363 -0.5637
   45MOL   C16616094   3.600   3.020   5.419 -0.2090 -0.1939 -0.4456
   45MOL   C16716095   3.467   3.069   5.495  0.4691  0.0166  0.0466
   45MOL   C16816096   3.485   3.166   5.617  0.1484  0.4716  0.8172
   45MOL   C16916097   3.342   3.199   5.679  0.0509 -0.3862  1.3255
   45MOL   C17016098   3.358   3.271   5.817  0.0578  0.1611 -0.1557
   45MOL   O17116099   3.226   3.298   5.863 -0.1869 -0.6791  0.5313
   45MOL   H17216100   3.574   2.981   5.321  3.2907  0.1621 -1.5707
   45MOL   H17316101   3.652   3.113   5.397 -0.5675  0.0293 -0.3719
   45MOL   H17416102   3.409   2.981   5.519  1.9553 -0.9965  0.0282
   45MOL   H17516103   3.412   3.128   5.422  3.1692  2.8603  0.1495
   45MOL   H17616104   3.531   3.257   5.578  0.0539  0.4933  0.7559
   45MOL   H17716105   3.535   3.119   5.702  2.6603  0.5807 -0.5234
   45MOL   H17816106   3.285   3.108   5.698  1.3373 -1.3886  0.4871
   45MOL   H17916107   3.287   3.265   5.611  3.3534  1.5863  0.4655
   45MOL   H18016108   3.400   3.201   5.889  1.6594  1.0738 -0.1858
   45MOL   H18116109   3.413   3.364   5.803 -0.7601  0.5504 -0.8168
   45MOL   C18216110   3.195   3.314   5.993 -1.1176  0.4587  0.5059
   45MOL   O18316111   3.279   3.305   6.084 -0.0045  0.3584 -0.0543
   45MOL   C18416112   3.048   3.334   6.017  0.3842 -0.0486  0.3321
   45MOL   C18516113   2.966   3.200   5.990  0.2040 -0.2645  0.0865
   45MOL   C18616114   2.815   3.222   5.975 -0.1031 -0.4481  0.4053
   45MOL   C18716115   2.733   3.097   5.935 -0.4582 -0.7906  0.6263
   45MOL   C18816116   2.584   3.122   5.943  0.6245  0.4712 -0.6486
   45MOL   O18916117   2.506   3.007   5.914 -0.0178 -0.3403  0.4669
   45MOL   H19016118   3.028   3.418   5.951  1.0028  1.2098  1.7104
   45MOL   H19116119   3.035   3.375   6.117  0.6342  0.5861  0.1054
   45MOL   H19216120   2.979   3.122   6.065 -1.2505 -3.3747 -2.7307
   45MOL   H19316121   2.994   3.151   5.896  0.9116 -1.1066  0.7363
   45MOL   H19416122   2.797   3.297   5.898 -0.0948  0.4272  1.2458
   45MOL   H19516123   2.779   3.260   6.071  0.2972 -0.7425  0.6734
   45MOL   H19616124   2.764   3.010   5.993  1.6647 -1.0748 -0.8793
   45MOL   H19716125   2.759   3.074   5.832 -0.7951  2.3346 -0.2165
   45MOL   H19816126   2.550   3.156   6.040 -0.8842 -0.7750 -0.7234
   45MOL   H19916127   2.570   3.206   5.874  0.8856  0.0612 -1.2016
   45MOL   C20016128   2.377   3.014   5.911 -0.3201  0.5269  0.0721
   45MOL   O20116129   2.311   3.113   5.945 -0.0097  0.2660  0.5397
   45MOL   C20216130   2.309   2.877   5.898 -0.6252  0.2286 -0.7145
   45MOL   C20316131   2.169   2.873   5.832  0.3135 -0.6508  0.0388
   45MOL   C20416132   2.183   2.904   5.675 -0.0348 -0.3728 -0.2165
   45MOL   C20516133   2.049   2.909   5.604  1.4881 -0.2996 -0.9117
   45MOL   C20616134   2.075   2.927   5.452  0.8655  0.1030 -0.1735
   45MOL   O20716135   2.136   3.049   5.437 -0.3085  0.0392  0.0886
   45MOL   H20816136   2.302   2.848   6.002 -1.5449  3.3864  0.1771
   45MOL   H20916137   2.371   2.797   5.858 -0.5231  0.1671 -0.4293
   45MOL   H21016138   2.107   2.950   5.877  1.7022 -0.8794  2.4041
   45MOL   H21116139   2.112   2.785   5.862  0.2338 -0.6038  0.0262
   45MOL   H21216140   2.231   2.822   5.621  0.9062  0.4934 -0.7244
   45MOL   H21316141   2.254   2.985   5.655 -0.0287 -1.0201 -3.0212
   45MOL   H21416142   1.993   2.999   5.629 -1.7728 -1.7047 -2.8142
   45MOL   H21516143   1.989   2.822   5.631  1.4009  0.6706  2.2320
   45MOL   H21616144   2.141   2.848   5.415 -0.2185 -0.8502 -0.0925
   45MOL   H21716145   1.977   2.913   5.406  2.2279  0.3027 -3.3174
   45MOL   C21816146   2.143   3.104   5.319  0.6294  0.0782  0.3830
   45MOL   O21916147   2.108   3.048   5.220 -0.3319  0.3236  0.1186
   45MOL   C22016148   2.200   3.246   5.308  0.0163  0.0120  0.4037
   45MOL   C22116149   2.099   3.346   5.364 -0.4040  0.0654 -0.4929
   45MOL   C22216150   1.968   3.364   5.270 -0.8715 -0.0343  0.2121
   45MOL   C22316151   1.867   3.464   5.321 -0.2733  0.7916  0.1611
   45MOL   C22416152   1.746   3.471   5.226 -0.2625  0.6307  0.3703
   45MOL   O22516153   1.782   3.507   5.094 -0.2286  0.1793 -0.2564
   45MOL   H22616154   2.202   3.262   5.200 -0.4701 -1.6550  0.1402
   45MOL   H22716155   2.297   3.253   5.356 -0.2125  3.4251  0.4908
   45MOL   H22816156   2.159   3.434   5.384  2.0705 -1.5915 -0.4063
   45MOL   H22916157   2.081   3.308   5.464 -0.6535  1.6208  0.0600
   45MOL   H23016158   1.928   3.263   5.261  0.3301 -0.6129  1.1184
   45MOL   H23116159   1.997   3.401   5.172 -2.9175  1.2174  0.0494
   45MOL   H23216160   1.912   3.560   5.345 -0.9880  0.8834  1.1515
   45MOL   H23316161   1.830   3.415   5.411  1.1235  2.1386  1.4977
   45MOL   H23416162   1.697   3.374   5.230  1.4035 -0.3367 -1.9156
   45MOL   H23516163   1.670   3.535   5.272 -1.2541 -1.2866  1.4290
   45MOL   C23616164   1.811   3.631   5.064 -0.1269  0.4988  0.5002
   45MOL   O23716165   1.794   3.728   5.137 -0.1720  0.4296 -0.2975
   45MOL   C23816166   1.881   3.649   4.931 -0.3157  0.1862  0.1067
   45MOL   C23916167   1.996   3.559   4.895 -0.5270  0.2544 -0.9159
   45MOL   C24016168   2.128   3.596   4.966 -0.0176 -0.5300 -0.2983
   45MOL   C24116169   2.221   3.479   4.973  0.7269  0.3216 -0.6310
   45MOL   C24216170   2.353   3.514   5.054 -0.1692 -0.1958 -1.0156
   45MOL   O24316171   2.417   3.390   5.095 -0.1256  0.4017  0.5657
   45MOL   H24416172   1.907   3.754   4.918 -0.8091  0.3696  0.5716
   45MOL   H24516173   1.803   3.640   4.855  1.1314  1.3229 -1.5407
   45MOL   H24616174   2.004   3.555   4.786  1.4866 -0.1063 -0.7788
   45MOL   H24716175   1.975   3.454   4.919  1.3700 -0.0776 -0.6250
   45MOL   H24816176   2.102   3.621   5.069 -2.0918 -0.0432 -0.9229
   45MOL   H24916177   2.179   3.686   4.933 -0.1782 -0.7099 -1.0472
   45MOL   H25016178   2.234   3.444   4.871 -0.4191 -1.5937 -0.1435
   45MOL   H25116179   2.171   3.399   5.028 -0.7949 -1.5202 -4.5371
   45MOL   H25216180   2.427   3.584   5.014  0.2711 -0.4263 -0.6182
   45MOL   H25316181   2.314   3.566   5.142 -2.6799 -2.5813 -0.6489
   45MOL   C25416182   2.543   3.369   5.063 -0.5023 -1.7917  0.8241
   45MOL   O25516183   2.612   3.448   4.997  0.0958  0.2321  0.1417
   45MOL   C25616184   2.579   3.223   5.071 -0.3377 -0.3851 -0.1376
   45MOL   C25716185   2.618   3.152   4.942  0.4077 -0.2321 -0.2879
   45MOL   C25816186   2.505   3.159   4.832 -0.8111 -0.0408 -0.1714
   45MOL   C25916187   2.370   3.112   4.875  0.1362 -0.3187 -0.5989
   45MOL   C26016188   2.275   3.109   4.759 -0.2685 -0.2745 -0.0006
   45MOL   O26116189   2.141   3.120   4.802  0.0803 -0.0991  0.5390
   45MOL   H26216190   2.489   3.175   5.111 -1.0355  2.0200  1.2545
   45MOL   H26316191   2.659   3.216   5.144  0.4414 -0.0822 -0.9539
   45MOL   H26416192   2.630   3.045   4.957 -0.8373 -0.2971  0.3226
   45MOL   H26516193   2.715   3.185   4.903 -0.9470  1.7758 -2.1298
   45MOL   H26616194   2.529   3.101   4.743 -1.3850 -0.7530  0.1300
   45MOL   H26716195   2.494   3.262   4.799 -2.4982  0.1751  0.9988
   45MOL   H26816196   2.329   3.164   4.961 -0.4527 -0.6276 -0.6911
   45MOL   H26916197   2.378   3.011   4.914  2.8185  0.1832  0.2501
   45MOL   H27016198   2.290   3.198   4.699  3.0898 -0.5335  0.3936
   45MOL   H27116199   2.293   3.021   4.698  0.5290  0.2924 -0.5824
   45MOL   C27216200   2.060   3.006   4.834 -0.5774  0.2744 -0.0593
   45MOL   O27316201   2.103   2.889   4.836 -0.2320 -0.8491  0.2605
   45MOL   C27416202   1.915   3.051   4.863  0.1627  0.7169 -0.0742
   45MOL   C27516203   1.867   3.171   4.784  0.7505  0.7330 -1.1912
   45MOL   C27616204   1.717   3.204   4.810 -0.3452  0.0283  0.8295
   45MOL   C27716205   1.678   3.349   4.781  0.7643  0.1333 -0.1183
   45MOL   C27816206   1.527   3.373   4.792  0.1957  0.1591  0.2699
   45MOL   O27916207   1.459   3.297   4.694 -0.2134  0.4130  0.3627
   45MOL   H28016208   1.899   3.070   4.969 -2.2262  0.7121 -0.4031
   45MOL   H28116209   1.854   2.965   4.835  0.7602 -0.1250  1.1433
   45MOL   H28216210   1.887   3.161   4.678  2.3958  0.5175 -0.8874
   45MOL   H28316211   1.913   3.263   4.820 -0.8762  1.9360 -2.1326
   45MOL   H28416212   1.685   3.180   4.911  0.7539  0.3712  1.2704
   45MOL   H28516213   1.665   3.136   4.743  0.8371  0.6403 -0.7706
   45MOL   H28616214   1.719   3.395   4.691  2.3650 -2.2125 -0.6272
   45MOL   H28716215   1.722   3.402   4.866  1.4050 -0.5084 -0.0434
   45MOL   H28816216   1.490   3.346   4.891 -1.5611 -0.7782 -0.6279
   45MOL   H28916217   1.517   3.479   4.771 -0.0278  0.0352 -0.2487
   45MOL   C29016218   1.330   3.335   4.665 -0.3750 -0.2824 -0.6288
   45MOL   O29116219   1.272   3.438   4.707 -0.0816 -0.0881  0.7739
   45MOL   C29216220   1.237   3.234   4.595 -0.0007 -0.4825 -0.2415
   45MOL   C29316221   1.190   3.118   4.688  0.3757  0.0987  0.1461
   45MOL   C29416222   1.064   3.162   4.766 -0.5460  0.0744  0.5276
   45MOL   C29516223   0.992   3.066   4.859  0.5175 -0.2715  0.2711
   45MOL   C29616224   0.860   2.998   4.805 -0.3422  0.7409  0.0250
   45MOL   O29716225   0.761   3.085   4.759 -0.3637 -0.1559 -0.1855
   45MOL   H29816226   1.291   3.195   4.509  0.3628  1.7052 -1.0225
   45MOL   H29916227   1.147   3.289   4.566  0.9037 -0.9752 -4.1846
   45MOL   H30016228   1.272   3.093   4.754  1.2547 -2.4901 -1.8495
   45MOL   H30116229   1.179   3.031   4.623 -1.9812  0.9389 -0.6626
   45MOL   H30216230   0.992   3.215   4.703 -1.0293  0.6303  1.5228
   45MOL   H30316231   1.098   3.254   4.814  0.9089  0.4981 -1.2884
   45MOL   H30416232   0.968   3.129   4.945 -1.1167  0.7154 -0.8805
   45MOL   H30516233   1.063   2.989   4.890  0.1938 -0.8489 -0.4289
   45MOL   H30616234   0.898   2.938   4.722  0.7652 -1.0030  1.7488
   45MOL   H30716235   0.822   2.932   4.883 -1.5048  0.1793 -0.9785
   45MOL   C30816236   0.681   3.151   4.845 -0.8282  0.8639 -0.6430
   45MOL   O30916237   0.694   3.167   4.966 -0.5413  0.2101 -0.3814
   45MOL   C31016238   0.583   3.240   4.767 -0.3352  0.0182  0.2795
   45MOL   C31116239   0.467   3.286   4.853  0.2007  0.0079  0.5153
   45MOL   C31216240   0.370   3.174   4.905 -0.5877 -0.2118  0.0016
   45MOL   C31316241   0.284   3.114   4.791 -0.4699  0.0900  0.4980
   45MOL   C31416242   0.196   2.998   4.839  0.0882 -0.8581  0.3708
   45MOL   O31516243   0.091   3.047   4.923  0.7363  0.0992  0.3947
   45MOL   H31616244   0.560   3.184   4.676  0.4063 -2.6336  1.6633
   45MOL   H31716245   0.634   3.323   4.719  0.6481 -0.5915  0.2494
   45MOL   H31816246   0.406   3.362   4.804 -0.3677 -1.7861 -1.5972
   45MOL   H31916247   0.514   3.334   4.939  1.5260 -2.1239  0.9899
   45MOL   H32016248   0.302   3.211   4.982 -1.0814  0.2123 -0.6327
   45MOL   H32116249   0.427   3.102   4.965 -0.6736 -0.7082 -0.5142
   45MOL   H32216250   0.338   3.073   4.706 -1.6219  0.3572 -0.3803
   45MOL   H32316251   0.221   3.193   4.750  0.4650  1.0612  0.9002
   45MOL   H32416252   0.142   2.947   4.759 -1.8105  0.4997  0.7607
   45MOL   H32516253   0.262   2.928   4.891  0.1648  2.0544  4.4218
   45MOL   C32616254   0.043   2.984   5.021  0.2109 -0.6787 -0.2873
   45MOL   O32716255   0.080   2.882   5.075 -0.4383  0.1592  0.3250
   45MOL   C32816256   7.759   3.046   5.074 -0.1502 -0.2645 -0.5191
   45MOL   C32916257   7.644   3.046   4.971 -0.0950 -0.0908  0.5732
   45MOL   C33016258   7.595   2.914   4.922  0.1868 -0.0941 -0.2532
   45MOL   C33116259   7.536   2.808   5.025 -0.0961 -0.3030  0.1947
   45MOL   C33216260   7.451   2.693   4.961  0.0594 -0.1251 -0.3959
   45MOL   O33316261   7.426   2.606   5.062 -0.0940 -0.3423 -0.2284
   45MOL   H33416262   7.782   3.152   5.088  1.9290 -0.9177  1.3979
   45MOL   H33516263   7.721   2.996   5.163  0.1841 -0.0863 -0.2741
   45MOL   H33616264   7.684   3.099   4.885  0.3110 -2.3455 -0.6666
   45MOL   H33716265   7.558   3.110   4.994 -0.4094 -0.4961  0.5474
   45MOL   H33816266   7.679   2.873   4.866  1.4862  1.0516  0.8368
   45MOL   H33916267   7.524   2.934   4.841  0.8149 -0.0589 -0.8009
   45MOL   H34016268   7.472   2.864   5.094  0.5601  0.4635  0.2028
   45MOL   H34116269   7.628   2.770   5.069  0.9478  2.1385  0.2173
   45MOL   H34216270   7.357   2.730   4.919  0.5398  1.3458 -0.2110
   45MOL   H34316271   7.503   2.635   4.884 -0.4547  0.7601 -1.4408
   45MOL   C34416272   7.324   2.512   5.051 -0.1920  0.4702 -0.3909
   45MOL   O34516273   7.243   2.515   4.960 -0.3234  0.2395  0.6537
   45MOL   C34616274   7.317   2.400   5.160  0.9378 -0.1478 -0.2063
   45MOL   C34716275   7.313   2.452   5.306  0.6589 -0.4523 -0.2668
   45MOL   C34816276   7.186   2.540   5.320  0.2751  0.3132  0.1444
   45MOL   C34916277   7.166   2.603   5.463  0.0101 -0.3000  0.1139
   45MOL   C35016278   7.037   2.689   5.487  0.3035  0.4223 -0.6888
   45MOL   O35116279   7.052   2.742   5.619  0.0677  0.4554  0.3878
   45MOL   H35216280   7.399   2.330   5.142  2.6985  1.2374  2.1813
   45MOL   H35316281   7.230   2.343   5.130  1.4425 -0.6917 -0.6605
   45MOL   H35416282   7.400   2.509   5.338  0.5034  0.6914 -1.8453
   45MOL   H35516283   7.308   2.380   5.388  1.5092 -0.1803  0.0341
   45MOL   H35616284   7.102   2.471   5.312  2.0241 -1.9785  1.2474
   45MOL   H35716285   7.185   2.627   5.254 -0.9571  0.2052 -0.0011
   45MOL   H35816286   7.254   2.656   5.498 -1.0137  0.6474  1.2997
   45MOL   H35916287   7.155   2.520   5.532 -0.3111 -0.3754 -0.0265
   45MOL   H36016288   7.037   2.768   5.412  1.9446 -0.3178 -1.4966
   45MOL   H36116289   6.950   2.625   5.477  0.0461  0.8676 -1.3557
   45MOL   H36216290   7.055   2.669   5.679  2.6744  1.6653  1.8043
   46MOL     C116291   6.306   4.776   2.036 -0.7286  0.4692  0.1451
   46MOL     O216292   6.234   4.807   2.127  0.0979 -0.4498  0.0830
   46MOL     C316293   6.311   4.635   1.981  0.2029 -0.2236  0.2044
   46MOL     C416294   6.431   4.546   2.023 -0.7803  0.4425  0.4071
   46MOL     C516295   6.415   4.505   2.173 -0.1562 -0.2293 -0.0951
   46MOL     C616296   6.535   4.414   2.217 -0.2231 -0.4855 -0.1749
   46MOL     C716297   6.508   4.376   2.363 -0.4741  0.0281  0.1574
   46MOL     O816298   6.613   4.292   2.408  0.9540  0.1368 -0.3491
   46MOL     H916299   6.297   4.647   1.874 -1.1489  2.8572  0.6761
   46MOL    H1016300   6.218   4.587   2.012 -0.0125  0.1195  0.0870
   46MOL    H1116301   6.527   4.596   2.021 -0.3665 -0.3518  0.2887
   46MOL    H1216302   6.431   4.459   1.957 -0.3147  1.1174 -0.4877
   46MOL    H1316303   6.324   4.445   2.178 -0.3924  0.1982  0.7136
   46MOL    H1416304   6.411   4.599   2.227  1.0768  0.3097 -0.9178
   46MOL    H1516305   6.630   4.464   2.197  0.2695 -2.2574 -2.5498
   46MOL    H1616306   6.534   4.317   2.167 -2.0999 -0.5539 -0.0487
   46MOL    H1716307   6.506   4.465   2.427  0.1666  1.2606 -1.4821
   46MOL    H1816308   6.415   4.321   2.378 -0.9795  0.5738 -0.8969
   46MOL    H1916309   6.377   4.847   1.994  0.4639 -0.5338  0.4399
   46MOL    C2016310   6.621   4.260   2.539  0.8279  0.1632 -0.0755
   46MOL    O2116311   6.544   4.309   2.625 -0.5858 -0.4598  0.0069
   46MOL    C2216312   6.741   4.163   2.564 -0.5741  0.4281  0.2029
   46MOL    C2316313   6.823   4.184   2.690  0.4824  0.6228  0.1500
   46MOL    C2416314   6.929   4.080   2.697 -0.4877  0.5488 -0.5639
   46MOL    C2516315   7.003   4.075   2.825 -0.2981 -0.1724 -0.9546
   46MOL    C2616316   6.926   4.013   2.942  0.1325  0.0078 -0.7100
   46MOL    O2716317   6.997   4.030   3.066  0.4440 -0.4046 -0.6614
   46MOL    H2816318   6.812   4.171   2.482 -1.3737  0.6574 -0.4740
   46MOL    H2916319   6.698   4.063   2.572  0.8077 -0.1254  0.7801
   46MOL    H3016320   6.755   4.177   2.775 -0.4718 -1.0260 -0.7168
   46MOL    H3116321   6.874   4.280   2.689  0.5714  0.5776 -1.4839
   46MOL    H3216322   7.000   4.107   2.619 -0.4691 -0.9400 -1.0746
   46MOL    H3316323   6.873   3.987   2.688 -0.2765  0.4043 -0.4104
   46MOL    H3416324   7.037   4.175   2.852 -0.4488  0.1959 -2.1301
   46MOL    H3516325   7.094   4.019   2.804  1.0148  2.0826 -1.3894
   46MOL    H3616326   6.837   4.075   2.948 -2.0399 -3.1091  0.4655
   46MOL    H3716327   6.886   3.912   2.939  0.0719  0.0029  0.1793
   46MOL    C3816328   6.918   4.061   3.175 -0.0152  0.0813 -0.2386
   46MOL    O3916329   6.797   4.073   3.178  0.0361 -0.3071 -0.2079
   46MOL    C4016330   7.004   4.074   3.303 -0.3753 -0.3760  0.0028
   46MOL    C4116331   6.933   4.079   3.445 -0.0296  0.4026  0.1412
   46MOL    C4216332   6.844   3.948   3.466 -0.5585 -0.2988 -0.1704
   46MOL    C4316333   6.801   3.929   3.615  0.3146  0.1521  0.4861
   46MOL    C4416334   6.715   3.807   3.627  0.3046  0.1212  0.2977
   46MOL    O4516335   6.783   3.684   3.579  0.7221  0.0335 -0.1274
   46MOL    H4616336   7.077   4.152   3.284 -0.5899 -0.3591 -0.7642
   46MOL    H4716337   7.056   3.978   3.293  2.9640  1.4600 -0.8117
   46MOL    H4816338   6.869   4.165   3.463 -0.0387  1.1279 -3.0664
   46MOL    H4916339   7.003   4.089   3.528 -0.9946 -2.0055  1.3002
   46MOL    H5016340   6.911   3.868   3.433  0.5034  1.1024 -1.4746
   46MOL    H5116341   6.766   3.945   3.390  0.4307 -0.2284 -1.2165
   46MOL    H5216342   6.744   4.018   3.643  1.6681  1.1123  0.2894
   46MOL    H5316343   6.879   3.923   3.691 -0.7460 -0.7222  1.5155
   46MOL    H5416344   6.684   3.787   3.729  1.7355 -1.8849  0.3686
   46MOL    H5516345   6.628   3.814   3.561  0.7059 -1.2756 -0.4051
   46MOL    C5616346   6.849   3.617   3.677  0.5957  0.2560 -0.0642
   46MOL    O5716347   6.867   3.664   3.790 -0.2641  0.2855  0.6345
   46MOL    C5816348   6.908   3.485   3.626  0.3559 -0.3304  0.2282
   46MOL    C5916349   6.958   3.387   3.727 -0.2202  0.5556  0.4710
   46MOL    C6016350   6.853   3.323   3.819  0.3541 -0.0701  0.1952
   46MOL    C6116351   6.898   3.198   3.897  0.1805  0.8176 -0.0145
   46MOL    C6216352   6.809   3.128   4.000  0.3192 -0.0623 -0.1225
   46MOL    O6316353   6.741   3.036   3.925 -0.1550  0.0851  0.1696
   46MOL    H6416354   6.987   3.506   3.553  0.4363 -1.9358 -0.1718
   46MOL    H6516355   6.827   3.439   3.570 -0.2335  0.9992 -0.0290
   46MOL    H6616356   7.034   3.438   3.786 -1.2631 -0.0998  2.4412
   46MOL    H6716357   7.011   3.307   3.676 -2.3577 -0.2371 -0.5517
   46MOL    H6816358   6.760   3.304   3.765  1.4946  0.6385 -2.0686
   46MOL    H6916359   6.818   3.396   3.892  1.1431 -0.3267  0.8333
   46MOL    H7016360   6.988   3.213   3.956 -0.9860 -1.3984  2.4285
   46MOL    H7116361   6.931   3.123   3.825  1.3564  2.1717 -0.9200
   46MOL    H7216362   6.863   3.075   4.078  0.4713  0.1998 -0.0493
   46MOL    H7316363   6.750   3.201   4.056 -0.0639 -1.1599  0.9531
   46MOL    C7416364   6.612   3.016   3.934  0.1609 -0.2396  0.3766
   46MOL    O7516365   6.534   3.093   3.988 -0.0274 -0.2403 -0.7409
   46MOL    C7616366   6.561   2.886   3.859 -0.7034 -0.4769 -0.3126
   46MOL    C7716367   6.412   2.846   3.870 -0.0392  0.2057  0.1504
   46MOL    C7816368   6.381   2.695   3.847  0.5062  0.0213 -0.1620
   46MOL    C7916369   6.408   2.657   3.703 -0.4368 -0.4081  0.0268
   46MOL    C8016370   6.374   2.516   3.681  0.2002  0.5162 -0.6177
   46MOL    O8116371   6.373   2.482   3.545 -0.5250 -0.0657  0.0544
   46MOL    H8216372   6.605   2.802   3.913  2.0650  0.5681 -0.8627
   46MOL    H8316373   6.595   2.884   3.755 -2.9114 -0.0149 -1.0853
   46MOL    H8416374   6.350   2.900   3.797  0.8538  0.4692 -0.4208
   46MOL    H8516375   6.374   2.873   3.968 -1.4122 -1.1914  0.0333
   46MOL    H8616376   6.276   2.685   3.873  0.5475 -2.2739 -0.7847
   46MOL    H8716377   6.431   2.643   3.929 -0.7826 -0.7797  0.1268
   46MOL    H8816378   6.510   2.686   3.681  0.3998 -4.3717 -1.8301
   46MOL    H8916379   6.337   2.711   3.639  0.4596 -1.8396 -2.2292
   46MOL    H9016380   6.448   2.449   3.724 -2.9659 -1.5125  1.9014
   46MOL    H9116381   6.279   2.484   3.725  0.3687  0.6650 -0.1347
   46MOL    C9216382   6.379   2.355   3.502  0.4302  0.5312  0.2025
   46MOL    O9316383   6.393   2.253   3.574 -0.0834 -0.7643 -0.0437
   46MOL    C9416384   6.356   2.347   3.352  0.7052  0.4382 -0.1867
   46MOL    C9516385   6.407   2.224   3.282  0.0128 -0.0139  0.6045
   46MOL    C9616386   6.351   2.217   3.135  0.1606 -0.3784  0.1533
   46MOL    C9716387   6.414   2.105   3.055  0.7233  0.8240 -0.1899
   46MOL    C9816388   6.384   2.119   2.909  0.5340 -0.3562 -0.5027
   46MOL    O9916389   6.413   2.004   2.834 -0.2978 -0.7886 -0.1173
   46MOL   H10016390   6.386   2.443   3.309 -1.8040  1.8295  1.0180
   46MOL   H10116391   6.251   2.340   3.323  0.2349 -1.3512  1.8314
   46MOL   H10216392   6.397   2.129   3.335 -5.0411 -0.4588 -0.7993
   46MOL   H10316393   6.514   2.243   3.287  0.0703 -0.6595  2.1217
   46MOL   H10416394   6.381   2.306   3.080  0.0839 -1.5306 -1.8210
   46MOL   H10516395   6.242   2.212   3.132  0.1938 -0.6028 -0.7362
   46MOL   H10616396   6.382   2.006   3.089  1.9877  0.4390 -0.0951
   46MOL   H10716397   6.522   2.107   3.058  0.7270  1.2044 -0.6244
   46MOL   H10816398   6.276   2.130   2.900  0.6210 -0.1422 -1.2952
   46MOL   H10916399   6.438   2.210   2.881 -0.8798  0.9883  1.0800
   46MOL   C11016400   6.542   1.980   2.792 -0.9148 -0.2260 -0.9376
   46MOL   O11116401   6.641   2.040   2.836  0.6385 -0.9302 -0.2408
   46MOL   C11216402   6.549   1.861   2.705 -0.0842  0.1538  0.0638
   46MOL   C11316403   6.555   1.721   2.782 -0.4744  0.4430 -0.4086
   46MOL   C11416404   6.432   1.673   2.854  0.1521 -0.1992 -0.1306
   46MOL   C11516405   6.309   1.651   2.763 -0.2459 -1.0028 -0.1553
   46MOL   C11616406   6.211   1.559   2.829  0.2111 -0.1744  0.3883
   46MOL   O11716407   6.103   1.522   2.740 -0.3248 -0.2213  0.0355
   46MOL   H11816408   6.640   1.877   2.647  0.8228  1.1359  1.7098
   46MOL   H11916409   6.468   1.861   2.633  0.5912 -0.7539 -0.7137
   46MOL   H12016410   6.638   1.736   2.852 -0.8600 -2.2099  0.6675
   46MOL   H12116411   6.587   1.649   2.706  0.8186  0.2543  0.2935
   46MOL   H12216412   6.390   1.738   2.931 -0.7559 -1.8784  0.8268
   46MOL   H12316413   6.454   1.585   2.915  0.4786  0.6003  0.9228
   46MOL   H12416414   6.341   1.599   2.672 -0.6566 -1.4840 -0.0296
   46MOL   H12516415   6.269   1.742   2.718  1.6041 -0.1394 -0.0768
   46MOL   H12616416   6.265   1.470   2.860  0.4277 -1.0808 -2.5274
   46MOL   H12716417   6.170   1.615   2.914  1.2243  0.0210  0.7538
   46MOL   C12816418   6.077   1.405   2.716  0.2570 -0.4667  0.2197
   46MOL   O12916419   6.123   1.309   2.778  0.0841 -0.7004  0.5854
   46MOL   C13016420   5.986   1.408   2.594 -0.5450  0.0023 -0.6877
   46MOL   C13116421   5.928   1.276   2.553  0.5023 -0.1943  0.3258
   46MOL   C13216422   5.798   1.232   2.623 -0.2790  0.1572  0.4495
   46MOL   C13316423   5.682   1.333   2.590 -0.0526  0.0465 -0.1994
   46MOL   C13416424   5.554   1.331   2.675 -0.1902 -0.5364  0.4684
   46MOL   O13516425   5.483   1.450   2.633  0.3153 -0.7815 -0.0437
   46MOL   H13616426   6.050   1.427   2.509 -0.6072 -0.3473 -0.8151
   46MOL   H13716427   5.923   1.497   2.596 -0.7571 -0.1488 -0.4527
   46MOL   H13816428   6.004   1.199   2.567  0.1848 -0.6940 -0.6641
   46MOL   H13916429   5.910   1.277   2.446  0.7163 -2.2175  0.2545
   46MOL   H14016430   5.821   1.232   2.730  1.6292  0.9730  0.0608
   46MOL   H14116431   5.770   1.131   2.591 -0.0172  0.4468 -0.7142
   46MOL   H14216432   5.660   1.314   2.485  0.4910  0.2705 -0.3563
   46MOL   H14316433   5.720   1.433   2.606  0.0600 -0.0917  0.4169
   46MOL   H14416434   5.503   1.236   2.661  0.5164 -0.7685 -0.5575
   46MOL   H14516435   5.585   1.351   2.777  0.4518 -1.0388  0.3726
   46MOL   C14616436   5.364   1.474   2.689 -0.4215 -0.7931  0.4962
   46MOL   O14716437   5.303   1.392   2.756  0.3853 -0.0741  0.2188
   46MOL   C14816438   5.311   1.616   2.661 -0.2291 -0.3710  0.1919
   46MOL   C14916439   5.274   1.641   2.513  0.1957 -1.0411  0.2578
   46MOL   C15016440   5.157   1.553   2.468 -0.5121  0.9630  0.3222
   46MOL   C15116441   5.125   1.581   2.323 -0.1086 -0.8250 -0.5427
   46MOL   C15216442   5.054   1.711   2.298 -0.2386  0.7916  0.1677
   46MOL   O15316443   4.928   1.703   2.362 -0.0081 -0.0721 -0.2475
   46MOL   H15416444   5.396   1.681   2.682 -1.2904  1.6890 -1.6517
   46MOL   H15516445   5.230   1.635   2.732 -0.5413  1.4696 -0.6205
   46MOL   H15616446   5.355   1.626   2.442  0.0049 -3.0752  0.4350
   46MOL   H15716447   5.238   1.743   2.506  1.1262 -0.7925 -1.1349
   46MOL   H15816448   5.062   1.567   2.519 -2.4051 -0.9777 -2.5032
   46MOL   H15916449   5.175   1.446   2.484  0.0265  1.2749  1.8627
   46MOL   H16016450   5.073   1.494   2.282  1.3414 -1.0100 -2.0222
   46MOL   H16116451   5.218   1.585   2.267  0.7800  4.6834  1.0489
   46MOL   H16216452   5.114   1.798   2.325 -0.9475  1.5999 -0.8299
   46MOL   H16316453   5.040   1.724   2.191 -0.4883 -2.6360 -0.2718
   46MOL   C16416454   4.871   1.803   2.427  0.1367 -0.7644 -0.3282
   46MOL   O16516455   4.935   1.911   2.451 -0.5280 -0.0309  0.0258
   46MOL   C16616456   4.733   1.768   2.487 -0.5402  0.3835 -0.2985
   46MOL   C16716457   4.620   1.755   2.392  0.5825 -0.2669 -0.9256
   46MOL   C16816458   4.564   1.882   2.336  0.1776  0.8445  0.1888
   46MOL   C16916459   4.421   1.859   2.287 -0.2672 -0.2440  0.7701
   46MOL   C17016460   4.360   1.990   2.216 -0.0369  0.2001  0.4510
   46MOL   O17116461   4.334   2.101   2.301  0.2927  0.2372 -0.1216
   46MOL   H17216462   4.697   1.834   2.566 -0.7171  0.9497 -0.8479
   46MOL   H17316463   4.756   1.670   2.529  1.5178  0.9407 -0.0798
   46MOL   H17416464   4.541   1.709   2.452 -0.5320  0.6737 -1.6454
   46MOL   H17516465   4.640   1.685   2.311  0.8405  0.5973 -1.6119
   46MOL   H17616466   4.622   1.917   2.250 -0.1920 -1.1150 -0.8741
   46MOL   H17716467   4.565   1.969   2.402  0.8445  0.5035  0.6354
   46MOL   H17816468   4.353   1.832   2.367 -0.9350 -2.1654 -0.4314
   46MOL   H17916469   4.410   1.775   2.219  0.8409  0.1577  0.0686
   46MOL   H18016470   4.420   2.002   2.126 -0.7692 -0.9052 -0.2043
   46MOL   H18116471   4.261   1.960   2.182  0.2126 -0.8550  0.6161
   46MOL   C18216472   4.398   2.210   2.294  0.4051 -0.3465  0.4099
   46MOL   O18316473   4.477   2.241   2.203 -0.0314 -0.4587  0.6328
   46MOL   C18416474   4.376   2.307   2.413 -0.0766  0.9286 -0.4320
   46MOL   C18516475   4.493   2.401   2.445  0.2792  0.6197  1.0376
   46MOL   C18616476   4.631   2.338   2.457 -0.2853  0.2097  0.3599
   46MOL   C18716477   4.720   2.445   2.518  0.3848  0.3928  0.5368
   46MOL   C18816478   4.864   2.415   2.497 -0.2685  0.0102 -0.1165
   46MOL   O18916479   4.901   2.286   2.544 -0.2496  0.5255 -0.3310
   46MOL   H19016480   4.355   2.244   2.499 -0.5460  0.9858 -0.5035
   46MOL   H19116481   4.287   2.361   2.381 -0.5006 -0.4550 -1.6265
   46MOL   H19216482   4.467   2.464   2.530  0.9037  1.7288  0.4253
   46MOL   H19316483   4.497   2.474   2.363  2.1709 -0.4798  0.1284
   46MOL   H19416484   4.667   2.299   2.361 -1.2877 -0.7290  0.3573
   46MOL   H19516485   4.629   2.253   2.524 -1.9590  1.4621  1.9157
   46MOL   H19616486   4.698   2.447   2.625 -0.5182 -3.2378  0.4714
   46MOL   H19716487   4.695   2.546   2.485  0.1975 -0.2059 -1.2019
   46MOL   H19816488   4.890   2.419   2.391 -1.5916 -2.1282 -0.5551
   46MOL   H19916489   4.925   2.487   2.552  0.0177 -0.4170  0.1219
   46MOL   C20016490   4.945   2.264   2.668  0.6190  0.2940 -0.1866
   46MOL   O20116491   4.965   2.350   2.755  0.7100  0.3424 -0.5182
   46MOL   C20216492   4.956   2.113   2.693  0.8963 -0.7863 -0.4105
   46MOL   C20316493   5.091   2.055   2.651 -0.3240  0.2703 -0.4273
   46MOL   C20416494   5.205   2.088   2.755  0.6562 -0.4628  0.6998
   46MOL   C20516495   5.347   2.088   2.692 -0.1703 -0.0797 -0.3005
   46MOL   C20616496   5.468   2.125   2.780  0.1841  0.1786 -0.2959
   46MOL   O20716497   5.459   2.268   2.796  0.0913 -0.0923  0.3291
   46MOL   H20816498   4.878   2.058   2.641 -1.3237  3.2196 -1.5688
   46MOL   H20916499   4.945   2.101   2.800 -0.2632  0.4981 -0.3721
   46MOL   H21016500   5.119   2.083   2.550  1.3618  1.1437  0.2476
   46MOL   H21116501   5.092   1.946   2.649 -1.8799  0.2582 -0.9266
   46MOL   H21216502   5.197   2.008   2.829 -2.0847 -1.2400 -0.3471
   46MOL   H21316503   5.182   2.177   2.812  0.0237 -0.8075  0.9951
   46MOL   H21416504   5.346   2.153   2.604 -0.9847 -0.0506 -0.2697
   46MOL   H21516505   5.362   1.991   2.644 -0.9110 -1.2373  1.7341
   46MOL   H21616506   5.458   2.057   2.865  2.3397  0.5057  0.2575
   46MOL   H21716507   5.563   2.099   2.731 -0.2980  1.0466 -1.7177
   46MOL   C21816508   5.498   2.318   2.921 -0.2568  0.5401 -0.4427
   46MOL   O21916509   5.547   2.256   3.017 -0.5606  0.0654  0.2107
   46MOL   C22016510   5.486   2.471   2.934  0.3539 -0.1169  0.8298
   46MOL   C22116511   5.337   2.526   2.959  0.0307  0.1579  0.0295
   46MOL   C22216512   5.240   2.516   2.840 -0.7980  0.2863 -0.0025
   46MOL   C22316513   5.279   2.598   2.714  0.3567 -0.4069  0.4015
   46MOL   C22416514   5.178   2.588   2.606  0.2512 -0.1854 -0.2435
   46MOL   O22516515   5.210   2.677   2.507 -0.2821 -0.0937 -0.2362
   46MOL   H22616516   5.521   2.521   2.844  0.3102 -1.2225  0.2015
   46MOL   H22716517   5.545   2.506   3.020  3.7300  0.8828 -1.7857
   46MOL   H22816518   5.337   2.633   2.979 -3.4374 -0.1538  2.2729
   46MOL   H22916519   5.283   2.475   3.039  1.3448 -1.4299 -0.0794
   46MOL   H23016520   5.141   2.549   2.874 -0.6141 -1.9918  2.8688
   46MOL   H23116521   5.218   2.413   2.814 -0.2196 -0.0640  0.9116
   46MOL   H23216522   5.382   2.580   2.685  0.0069 -1.0750 -0.4340
   46MOL   H23316523   5.286   2.705   2.736 -1.4691  0.1268 -1.4830
   46MOL   H23416524   5.192   2.488   2.564 -0.2149 -0.4655  0.2661
   46MOL   H23516525   5.080   2.597   2.653  1.4431 -1.6894  2.6770
   46MOL   C23616526   5.112   2.748   2.448  0.8365  0.4827 -0.0093
   46MOL   O23716527   4.991   2.738   2.481 -0.1239 -0.0170 -0.4091
   46MOL   C23816528   5.159   2.838   2.334  0.1893 -0.3912 -0.2233
   46MOL   C23916529   5.134   2.987   2.374 -0.6447 -0.1057 -0.3770
   46MOL   C24016530   5.227   3.045   2.477 -0.0887 -0.1034 -1.3658
   46MOL   C24116531   5.195   3.190   2.514  0.4645  0.1799  0.5769
   46MOL   C24216532   5.267   3.292   2.424  0.2438  0.3852 -0.0296
   46MOL   O24316533   5.400   3.272   2.458 -0.2997  0.1703 -0.3610
   46MOL   H24416534   5.114   2.802   2.241  0.2552 -1.2147  0.0572
   46MOL   H24516535   5.265   2.818   2.319  0.0529 -1.1166 -0.2673
   46MOL   H24616536   5.030   3.009   2.397 -0.1121  2.2724 -0.1016
   46MOL   H24716537   5.159   3.046   2.286 -0.9338  0.8562  0.1843
   46MOL   H24816538   5.332   3.023   2.454  0.3961  1.1172 -0.4018
   46MOL   H24916539   5.208   2.985   2.566 -3.1569  1.5809 -0.8367
   46MOL   H25016540   5.208   3.215   2.619 -0.3066  1.1724  0.4396
   46MOL   H25116541   5.087   3.205   2.513  0.3804 -0.4186 -0.6374
   46MOL   H25216542   5.242   3.264   2.321  2.0831  0.9813 -0.6491
   46MOL   H25316543   5.235   3.394   2.442 -0.6684  0.0765  0.1087
   46MOL   C25416544   5.493   3.263   2.364 -0.2864 -0.4367 -0.0250
   46MOL   O25516545   5.471   3.272   2.237  0.1825 -0.0476 -0.2311
   46MOL   C25616546   5.635   3.275   2.422 -0.5373 -0.1125  0.2513
   46MOL   C25716547   5.671   3.416   2.454  0.0653 -0.3538 -0.1433
   46MOL   C25816548   5.821   3.428   2.464  0.2474  0.4169  0.2259
   46MOL   C25916549   5.856   3.573   2.513  0.3346  0.1687 -0.1219
   46MOL   C26016550   5.999   3.614   2.500  0.0352 -0.5499 -0.5973
   46MOL   O26116551   6.029   3.623   2.357 -0.7131  0.3839  0.4911
   46MOL   H26216552   5.704   3.245   2.343 -1.9946 -0.1453 -1.0386
   46MOL   H26316553   5.640   3.203   2.504 -0.5612 -1.1069 -0.6056
   46MOL   H26416554   5.631   3.448   2.551  0.4955  0.6754 -0.3032
   46MOL   H26516555   5.627   3.489   2.387 -0.1809  0.8383  1.2832
   46MOL   H26616556   5.869   3.429   2.366 -0.7637 -0.3109 -0.2844
   46MOL   H26716557   5.869   3.363   2.537  2.1555  2.3025  0.7076
   46MOL   H26816558   5.831   3.582   2.619  1.1547 -0.5639  0.1378
   46MOL   H26916559   5.784   3.638   2.463 -0.6835 -1.4964 -0.8569
   46MOL   H27016560   6.028   3.710   2.541  1.1244 -1.2349  0.2760
   46MOL   H27116561   6.061   3.541   2.553  0.5782  1.5734  1.7710
   46MOL   C27216562   5.999   3.724   2.284  0.7417  0.2802 -0.1577
   46MOL   O27316563   5.946   3.830   2.318  0.0611  0.0571 -0.0511
   46MOL   C27416564   6.028   3.699   2.135  0.1954 -0.3402 -0.2135
   46MOL   C27516565   5.902   3.687   2.052 -0.0789  0.7067  0.7694
   46MOL   C27616566   5.816   3.564   2.084 -0.3289 -0.2658 -0.6454
   46MOL   C27716567   5.867   3.426   2.024 -0.1639  0.3484 -0.7143
   46MOL   C27816568   5.760   3.314   2.024 -0.2033 -0.3419 -1.0056
   46MOL   O27916569   5.814   3.184   1.980 -0.4145 -0.0844 -0.5033
   46MOL   H28016570   6.080   3.603   2.128 -0.2642 -0.5500 -0.8567
   46MOL   H28116571   6.103   3.771   2.103  0.4541  0.1088  1.3707
   46MOL   H28216572   5.915   3.684   1.944 -0.3982 -0.2034  0.7518
   46MOL   H28316573   5.843   3.777   2.069 -0.7730  0.3576  0.2157
   46MOL   H28416574   5.725   3.579   2.025 -1.1495  0.0849  0.6870
   46MOL   H28516575   5.771   3.553   2.182 -1.5644  0.5666 -1.1085
   46MOL   H28616576   5.952   3.396   2.086  0.7603  0.8999 -1.6932
   46MOL   H28716577   5.895   3.444   1.920  0.3101  0.2067 -0.6122
   46MOL   H28816578   5.736   3.314   2.130  0.9032 -2.8996 -0.7336
   46MOL   H28916579   5.670   3.357   1.978  0.1831  0.4531 -1.0317
   46MOL   C29016580   5.746   3.101   1.896 -0.4914 -0.3134 -1.2036
   46MOL   O29116581   5.640   3.125   1.840 -0.0738  0.1834  0.0404
   46MOL   C29216582   5.828   2.973   1.879 -0.6563 -0.0222 -0.2367
   46MOL   C29316583   5.902   2.970   1.746  0.1385  0.1107 -0.6198
   46MOL   C29416584   6.014   3.080   1.740  0.6773 -0.0934 -0.3911
   46MOL   C29516585   6.089   3.075   1.607 -0.4622  0.2934 -0.2462
   46MOL   C29616586   6.203   3.185   1.601 -0.4173  0.2185  0.0052
   46MOL   O29716587   6.252   3.196   1.474  0.5105  0.0311  0.2620
   46MOL   H29816588   5.760   2.888   1.891 -0.4054  0.0979  2.3953
   46MOL   H29916589   5.897   2.953   1.961 -0.3181 -2.9512 -1.1805
   46MOL   H30016590   5.828   2.996   1.670 -1.7462 -1.1727  0.7629
   46MOL   H30116591   5.941   2.870   1.730 -0.1715 -0.2745  1.0120
   46MOL   H30216592   6.095   3.067   1.812  0.8459 -3.0618 -1.0244
   46MOL   H30316593   5.971   3.180   1.743 -2.4742 -1.2238 -3.8200
   46MOL   H30416594   6.016   3.096   1.529 -1.2536  0.0807  0.4340
   46MOL   H30516595   6.130   2.980   1.572  0.7260  0.8523 -0.3855
   46MOL   H30616596   6.162   3.278   1.639  1.0577  0.5696  0.7694
   46MOL   H30716597   6.285   3.161   1.669  0.1908  0.1505 -0.7392
   46MOL   C30816598   6.315   3.312   1.442 -0.3833 -0.8078 -0.6235
   46MOL   O30916599   6.302   3.421   1.501 -0.3166  0.3693  0.6976
   46MOL   C31016600   6.389   3.310   1.311 -0.0073  0.0259  0.1054
   46MOL   C31116601   6.306   3.328   1.181  0.0429  0.1334 -0.1418
   46MOL   C31216602   6.261   3.469   1.158 -0.3011  0.0786  1.0974
   46MOL   C31316603   6.162   3.475   1.039 -0.2225 -0.9099  0.2414
   46MOL   C31416604   6.025   3.410   1.056 -0.4778  1.3530  0.4668
   46MOL   O31516605   6.013   3.312   0.955  0.8498 -0.9759  0.2241
   46MOL   H31616606   6.422   3.208   1.293  1.3218  0.7408 -1.6833
   46MOL   H31716607   6.484   3.364   1.309 -0.0385  0.0598 -1.1292
   46MOL   H31816608   6.222   3.259   1.190  1.5684 -1.3869  3.0567
   46MOL   H31916609   6.370   3.295   1.099  1.1452 -0.8910  1.1190
   46MOL   H32016610   6.342   3.539   1.143 -1.1086  1.0393  1.1963
   46MOL   H32116611   6.200   3.502   1.243 -1.1645 -0.6283  0.7603
   46MOL   H32216612   6.201   3.442   0.943 -0.1807  0.7777 -0.3182
   46MOL   H32316613   6.155   3.580   1.012  0.7733  0.5103  4.9740
   46MOL   H32416614   6.016   3.367   1.156 -0.0052 -0.2519 -0.1700
   46MOL   H32516615   5.955   3.492   1.047  0.0947  1.6484 -1.4965
   46MOL   C32616616   5.959   3.194   0.973 -1.0351  0.2293 -0.4636
   46MOL   O32716617   5.929   3.148   1.082  0.0162  0.3173 -0.7974
   46MOL   C32816618   5.964   3.099   0.847 -0.2626  0.1190 -0.0278
   46MOL   C32916619   6.058   3.130   0.732  0.7653  0.3883 -0.6057
   46MOL   C33016620   6.051   3.041   0.609 -0.0008 -0.4242 -0.0327
   46MOL   C33116621   6.143   2.923   0.622 -0.3334  0.2425  0.4276
   46MOL   C33216622   6.139   2.830   0.495 -0.7433 -0.4382 -0.0988
   46MOL   O33316623   6.205   2.714   0.526 -0.1316  0.1022 -0.2111
   46MOL   H33416624   5.862   3.082   0.815 -0.3526 -1.6960  1.1470
   46MOL   H33516625   5.989   3.004   0.896  0.4341  0.3764  0.1230
   46MOL   H33616626   6.158   3.129   0.776 -0.5538 -0.2841  2.5370
   46MOL   H33716627   6.027   3.225   0.689 -0.1698  1.1182  1.5869
   46MOL   H33816628   6.080   3.097   0.520 -2.4123 -0.3869 -0.8550
   46MOL   H33916629   5.949   3.004   0.598 -0.3998  0.7474 -0.3877
   46MOL   H34016630   6.106   2.868   0.708  0.3651 -0.1816  0.4585
   46MOL   H34116631   6.246   2.951   0.645  0.4128 -1.9317 -0.1644
   46MOL   H34216632   6.038   2.800   0.468 -0.7773 -0.7528  0.3736
   46MOL   H34316633   6.182   2.878   0.408 -0.0374  0.9238  0.9853
   46MOL   C34416634   6.228   2.627   0.425 -1.0674  0.2354  0.5286
   46MOL   O34516635   6.221   2.655   0.304 -0.0744 -0.6080 -0.6105
   46MOL   C34616636   6.282   2.489   0.465  0.3620  0.3786  0.4181
   46MOL   C34716637   6.201   2.375   0.409  0.1141 -0.1528  0.3863
   46MOL   C34816638   6.252   2.235   0.449  0.3861 -0.0730 -0.3286
   46MOL   C34916639   6.208   2.108   0.374 -0.3099 -0.4954  0.2816
   46MOL   C35016640   6.221   1.980   0.458  0.1959 -0.3149  0.0180
   46MOL   O35116641   6.358   1.959   0.506 -0.6940 -0.3587  0.4075
   46MOL   H35216642   6.293   2.476   0.573  0.8523  1.8929  0.5599
   46MOL   H35316643   6.383   2.491   0.424  1.9180  0.2086  4.0959
   46MOL   H35416644   6.196   2.380   0.300 -2.6612 -0.9130  0.4413
   46MOL   H35516645   6.095   2.391   0.430  0.2949  0.9464  0.4755
   46MOL   H35616646   6.237   2.220   0.556  0.5975 -0.4670 -0.3542
   46MOL   H35716647   6.361   2.238   0.444  0.4195  0.8339  0.6328
   46MOL   H35816648   6.268   2.105   0.282  0.6558  1.9377  0.7785
   46MOL   H35916649   6.104   2.124   0.345  0.0045  2.2918  0.5465
   46MOL   H36016650   6.154   1.981   0.544  0.2398 -1.8211  0.0907
   46MOL   H36116651   6.210   1.894   0.392  0.4620  0.2914 -0.8324
   46MOL   H36216652   6.417   1.963   0.432 -1.1085 -0.0882  0.0952
   47MOL     C116653   3.621   4.755   1.177 -0.1042 -0.2330  0.0991
   47MOL     O216654   3.723   4.689   1.142  0.9196 -0.0090 -0.5209
   47MOL     C316655   3.540   4.853   1.092 -0.6403  0.3644  0.3023
   47MOL     C416656   3.583   4.857   0.940 -0.4284 -0.9022  0.5857
   47MOL     C516657   3.512   4.744   0.853  0.3785  0.3715  0.0257
   47MOL     C616658   3.557   4.722   0.707 -0.0992 -0.2412  0.0888
   47MOL     C716659   3.556   4.576   0.663  0.4217 -0.0283  0.2738
   47MOL     O816660   3.427   4.517   0.675  0.3894 -0.1378  0.5078
   47MOL     H916661   3.556   4.952   1.135 -1.6876 -0.3434  2.3994
   47MOL    H1016662   3.437   4.819   1.097  0.1605 -2.5096 -1.9102
   47MOL    H1116663   3.692   4.859   0.933 -0.4564 -0.4600  0.2376
   47MOL    H1216664   3.551   4.953   0.900 -0.1724 -0.8445  0.5173
   47MOL    H1316665   3.403   4.745   0.848  0.4077 -2.2193 -2.2353
   47MOL    H1416666   3.536   4.654   0.911  0.0850  0.0300 -0.3831
   47MOL    H1516667   3.660   4.757   0.698 -0.2214  0.0406 -0.2043
   47MOL    H1616668   3.498   4.786   0.642 -0.5088  0.5987  1.2839
   47MOL    H1716669   3.598   4.565   0.563 -0.2431 -3.3485  0.3041
   47MOL    H1816670   3.621   4.520   0.730  0.0271  0.8887  1.4366
   47MOL    H1916671   3.579   4.743   1.277 -0.0963  2.2523  0.4413
   47MOL    C2016672   3.331   4.545   0.585  0.5329 -0.4825  0.3835
   47MOL    O2116673   3.344   4.611   0.481  0.4950  0.6215 -0.1882
   47MOL    C2216674   3.200   4.492   0.625 -0.5959 -0.2989  0.1847
   47MOL    C2316675   3.078   4.588   0.618 -0.2611 -0.6959  0.6737
   47MOL    C2416676   3.079   4.680   0.736 -0.1415  0.6095  0.0645
   47MOL    C2516677   2.975   4.788   0.736  0.1148 -0.3929 -0.4778
   47MOL    C2616678   2.975   4.865   0.872  0.7785 -0.3681 -0.3345
   47MOL    O2716679   3.084   4.953   0.874 -0.0980  0.3600 -0.0844
   47MOL    H2816680   3.212   4.433   0.716 -1.3148  2.0949  1.8761
   47MOL    H2916681   3.165   4.427   0.545 -1.0313 -0.4796  0.5191
   47MOL    H3016682   2.992   4.522   0.608 -0.9966  0.2675  0.7056
   47MOL    H3116683   3.078   4.639   0.522  0.7440  0.4094  1.2535
   47MOL    H3216684   3.175   4.732   0.732 -1.4030  2.9363 -1.5598
   47MOL    H3316685   3.102   4.627   0.828  0.5139  0.2497 -0.3070
   47MOL    H3416686   2.881   4.733   0.728  0.4023 -0.9635 -0.0333
   47MOL    H3516687   2.994   4.842   0.644 -1.0137 -2.1142 -1.7515
   47MOL    H3616688   2.885   4.920   0.896  1.5806  0.2569  1.3042
   47MOL    H3716689   2.966   4.796   0.956 -1.7789  1.5113  1.0114
   47MOL    C3816690   3.117   4.997   0.988 -0.0634 -0.1176  0.2270
   47MOL    O3916691   3.047   4.980   1.091 -0.4410  0.2601  0.0165
   47MOL    C4016692   3.240   5.087   0.996  0.3932  0.4163 -0.0358
   47MOL    C4116693   3.234   5.218   0.909  0.2090 -0.1417 -0.1541
   47MOL    C4216694   3.134   5.326   0.961 -0.3101  0.0240 -1.1956
   47MOL    C4316695   3.145   5.447   0.875  0.0887  0.4328 -0.3563
   47MOL    C4416696   3.063   5.558   0.924 -0.2569  0.3863  0.1643
   47MOL    O4516697   3.069   5.606   1.051 -0.2940 -0.1937 -0.3644
   47MOL    H4616698   3.330   5.032   0.970 -0.2470  0.4939 -2.4946
   47MOL    H4716699   3.248   5.102   1.104  2.0978 -0.0896 -0.0804
   47MOL    H4816700   3.205   5.173   0.814 -0.6961  0.6873 -0.2759
   47MOL    H4916701   3.337   5.250   0.889  0.5280 -0.2625  1.2451
   47MOL    H5016702   3.168   5.348   1.062  0.3072 -0.2078 -1.3465
   47MOL    H5116703   3.030   5.299   0.976  0.0653 -0.5984  0.3525
   47MOL    H5216704   3.119   5.426   0.772  0.5256 -1.4036 -0.1028
   47MOL    H5316705   3.251   5.471   0.886  0.4841 -1.9440  1.5729
   47MOL    H5416706   3.084   5.637   0.851  1.2268  1.9318  2.2136
   47MOL    H5516707   2.962   5.524   0.900  0.9513 -2.1610 -1.5134
   47MOL    C5616708   3.130   5.727   1.064 -0.6664  0.0783 -0.2374
   47MOL    O5716709   3.203   5.781   0.983  0.4902 -0.3165 -0.1343
   47MOL    C5816710   3.071   5.798   1.193 -0.2147  0.0180  0.4228
   47MOL    C5916711   2.965   5.908   1.165 -0.3231  0.2910 -0.3847
   47MOL    C6016712   2.952   6.009   1.283  0.0550 -0.3136 -0.2644
   47MOL    C6116713   2.898   5.935   1.407  0.3741 -0.3025 -0.3490
   47MOL    C6216714   2.906   6.025   1.529  0.4697  0.1942  0.3998
   47MOL    O6316715   3.040   6.049   1.565 -0.4329 -0.4935  0.1477
   47MOL    H6416716   3.152   5.853   1.242 -0.2529 -0.7984  1.4168
   47MOL    H6516717   3.039   5.729   1.271 -0.7368 -0.9100 -0.6024
   47MOL    H6616718   2.874   5.850   1.146 -2.1035  3.0223 -0.5119
   47MOL    H6716719   2.979   5.956   1.068  0.4422 -1.4041 -1.1310
   47MOL    H6816720   2.877   6.085   1.260  0.6820  1.3325  2.8377
   47MOL    H6916721   3.040   6.071   1.303 -0.7650  1.7546 -2.7643
   47MOL    H7016722   2.962   5.852   1.435 -0.8929 -1.4349 -0.7453
   47MOL    H7116723   2.798   5.896   1.386 -0.6350  1.4468  1.0375
   47MOL    H7216724   2.862   6.118   1.493  0.4849 -0.3977 -1.1493
   47MOL    H7316725   2.841   5.990   1.609 -1.9904  0.5805 -1.3765
   47MOL    C7416726   3.053   6.140   1.664 -0.0492  0.0095  0.5494
   47MOL    O7516727   2.962   6.192   1.725  0.3934  0.3314  0.2622
   47MOL    C7616728   3.194   6.177   1.697 -0.5117  0.2242 -0.0800
   47MOL    C7716729   3.250   6.300   1.622 -0.1179 -1.1044 -0.8591
   47MOL    C7816730   3.258   6.290   1.466 -0.5948  0.0027  0.0545
   47MOL    C7916731   3.312   6.423   1.408  0.5462  0.3253  0.3596
   47MOL    C8016732   3.298   6.425   1.254  0.1367 -0.1756 -0.4231
   47MOL    O8116733   3.332   6.556   1.208  0.6560  0.4214 -0.4377
   47MOL    H8216734   3.257   6.092   1.671  0.5987  0.3148  2.2325
   47MOL    H8316735   3.215   6.191   1.802 -0.2623  0.2150 -0.1297
   47MOL    H8416736   3.344   6.335   1.663 -0.4550 -2.8053  1.4835
   47MOL    H8516737   3.177   6.376   1.651  1.3570 -0.9153  2.5609
   47MOL    H8616738   3.158   6.275   1.426 -0.8440  0.9197  0.3326
   47MOL    H8716739   3.326   6.206   1.447 -0.2644  0.6392 -1.6696
   47MOL    H8816740   3.415   6.433   1.440  0.6445 -0.7894  0.4242
   47MOL    H8916741   3.267   6.504   1.464 -0.1037 -0.4337  0.9432
   47MOL    H9016742   3.371   6.364   1.199 -0.1874 -1.1902  0.2468
   47MOL    H9116743   3.197   6.396   1.226 -0.4573  0.5280  0.9501
   47MOL    C9216744   3.232   6.650   1.166 -1.1198  0.1227 -0.5886
   47MOL    O9316745   3.110   6.641   1.177 -0.1306  0.3448  0.1160
   47MOL    C9416746   3.300   6.765   1.103  0.4372  0.5919  0.4152
   47MOL    C9516747   3.355   6.722   0.970 -0.4458 -0.4951 -0.0398
   47MOL    C9616748   3.482   6.628   0.975 -0.2919 -0.3524 -0.0369
   47MOL    C9716749   3.537   6.603   0.830  0.0586 -0.0990 -0.1358
   47MOL    C9816750   3.662   6.517   0.812  0.6582  0.2474 -0.5752
   47MOL    O9916751   3.663   6.489   0.672 -0.3083 -0.2187  0.1363
   47MOL   H10016752   3.380   6.806   1.165  2.1726 -1.0336 -0.7002
   47MOL   H10116753   3.234   6.852   1.094  0.3357  0.5604  0.8583
   47MOL   H10216754   3.383   6.812   0.914 -0.0417 -0.9640 -0.5917
   47MOL   H10316755   3.283   6.675   0.903 -0.0179 -0.0119 -0.8508
   47MOL   H10416756   3.468   6.532   1.024 -1.1519  0.3149  1.0448
   47MOL   H10516757   3.552   6.676   1.043 -1.2740 -0.7131  1.2389
   47MOL   H10616758   3.559   6.701   0.789 -2.9393  1.0477  0.8820
   47MOL   H10716759   3.460   6.553   0.770  0.4378 -3.0569  1.7466
   47MOL   H10816760   3.751   6.565   0.853  1.4664 -1.0803 -0.7466
   47MOL   H10916761   3.652   6.423   0.866 -0.2633  0.2067 -0.8072
   47MOL   C11016762   3.772   6.518   0.602 -0.0904 -0.8569 -0.1381
   47MOL   O11116763   3.857   6.592   0.642  0.0279 -0.9662  0.4689
   47MOL   C11216764   3.775   6.445   0.471  0.6132 -0.1376 -0.2203
   47MOL   C11316765   3.921   6.454   0.405  0.0284  0.0988  0.0072
   47MOL   C11416766   3.930   6.366   0.288 -0.1982 -0.3590 -0.1880
   47MOL   C11516767   4.063   6.357   0.205  0.5282  0.2127 -0.0700
   47MOL   C11616768   4.066   6.223   0.118 -0.3204  0.2839 -0.7904
   47MOL   O11716769   4.166   6.237   0.020  0.5239 -0.3893 -0.0276
   47MOL   H11816770   3.696   6.487   0.410 -1.5467  0.3000  2.7692
   47MOL   H11916771   3.748   6.342   0.493  0.8930 -0.0764  0.4529
   47MOL   H12016772   3.993   6.435   0.484  0.4981  3.1740  0.3911
   47MOL   H12116773   3.945   6.556   0.372  1.1351 -0.2356 -0.2399
   47MOL   H12216774   3.847   6.394   0.223 -0.3391  3.8134  1.6390
   47MOL   H12316775   3.908   6.266   0.325  2.3292 -1.0385 -0.4170
   47MOL   H12416776   4.151   6.353   0.270  0.5114  1.1713  0.0200
   47MOL   H12516777   4.067   6.449   0.148 -0.1621 -0.2705 -0.9065
   47MOL   H12616778   4.088   6.132   0.175  0.4900 -0.0862 -1.6790
   47MOL   H12716779   3.966   6.208   0.076 -0.3262  0.6337 -0.9020
   47MOL   C12816780   4.190   6.133   7.774 -0.0430 -0.2193  0.0354
   47MOL   O12916781   4.138   6.022   7.775  0.4277 -0.2096  0.2516
   47MOL   C13016782   4.289   6.173   7.663 -0.2065 -0.0892 -0.8023
   47MOL   C13116783   4.425   6.197   7.721 -0.3710  0.0115  0.0446
   47MOL   C13216784   4.524   6.271   7.628  0.0337 -0.2989 -0.0757
   47MOL   C13316785   4.657   6.293   7.702  0.4252  0.3100 -0.3411
   47MOL   C13416786   4.650   6.413   7.793  0.4016  0.2380 -0.4896
   47MOL   O13516787   4.775   6.451   7.840 -0.4404 -0.3426 -0.1050
   47MOL   H13616788   4.245   6.252   7.600  0.1544  0.0433 -0.8884
   47MOL   H13716789   4.290   6.088   7.595  1.9688 -0.1060 -0.7772
   47MOL   H13816790   4.466   6.097   7.736 -0.8700  0.2497  3.4972
   47MOL   H13916791   4.407   6.261   7.808 -2.3805 -0.9109  0.3195
   47MOL   H14016792   4.487   6.368   7.592  0.1123 -1.2195 -2.7051
   47MOL   H14116793   4.553   6.214   7.540 -0.3831 -2.0230  0.8817
   47MOL   H14216794   4.736   6.299   7.627  1.2915 -0.2587  0.5301
   47MOL   H14316795   4.678   6.207   7.765 -0.7538  1.1110  1.1689
   47MOL   H14416796   4.605   6.494   7.735  1.2978  1.7156  0.8160
   47MOL   H14516797   4.590   6.389   0.037  0.5409  1.2733 -0.0975
   47MOL   C14616798   4.805   6.576   0.024  0.0588 -0.3639  0.2052
   47MOL   O14716799   4.723   6.669   0.021  0.6147  0.0994 -0.3396
   47MOL   C14816800   4.953   6.600   0.060  0.0682  0.4209 -0.1613
   47MOL   C14916801   5.011   6.487   0.143 -0.1441  0.4056 -1.1600
   47MOL   C15016802   5.132   6.543   0.225  0.6079  0.0825 -0.1545
   47MOL   C15116803   5.248   6.602   0.145 -0.1156 -0.0982 -0.3822
   47MOL   C15216804   5.361   6.650   0.235  0.4610 -0.7276 -0.5188
   47MOL   O15316805   5.475   6.681   0.155 -0.0431 -0.3133  0.5012
   47MOL   H15416806   4.959   6.698   0.107 -0.8934  0.6773 -0.5605
   47MOL   H15516807   5.011   6.608   7.812  0.5344  0.4088  0.1298
   47MOL   H15616808   5.044   6.408   0.075  0.1806  1.1026 -1.8129
   47MOL   H15716809   4.939   6.461   0.221  1.3049 -0.7248 -0.1703
   47MOL   H15816810   5.161   6.469   0.300  0.8128  1.0403  0.7217
   47MOL   H15916811   5.086   6.625   0.280 -0.7223 -0.7932  0.0823
   47MOL   H16016812   5.227   6.676   0.068  1.1059 -0.1688 -0.8056
   47MOL   H16116813   5.298   6.523   0.088  1.9561 -1.2472  2.8825
   47MOL   H16216814   5.330   6.737   0.295  2.3034 -0.7399  0.4971
   47MOL   H16316815   5.371   6.576   0.314 -0.2141  0.5095  0.7628
   47MOL   C16416816   5.572   6.755   0.218  0.1794  0.5306  0.2624
   47MOL   O16516817   5.560   6.813   0.325 -0.0447  0.3877  0.4363
   47MOL   C16616818   5.706   6.761   0.141 -0.8624  0.5809 -0.3160
   47MOL   C16716819   5.741   6.897   0.081  0.5916  0.2327  0.1293
   47MOL   C16816820   5.650   6.944   7.811  0.2045  0.2186  0.2625
   47MOL   C16916821   5.700   7.082   7.758  0.2397 -0.2413  0.2451
   47MOL   C17016822   5.611   7.147   7.648  0.3664 -0.1041 -0.1596
   47MOL   O17116823   5.487   7.183   7.709  0.3040  0.0651  0.2944
   47MOL   H17216824   5.710   6.687   0.061  0.1316  1.1395 -0.7922
   47MOL   H17316825   5.782   6.735   0.215 -0.7717  0.9825 -0.2695
   47MOL   H17416826   5.842   6.910   0.042  0.4602 -0.4760 -0.4430
   47MOL   H17516827   5.729   6.964   0.167 -0.2327 -0.8942  0.8986
   47MOL   H17616828   5.547   6.959   7.841  1.0698  0.3196  3.2862
   47MOL   H17716829   5.647   6.870   7.730  1.3514  1.2041 -0.7181
   47MOL   H17816830   5.798   7.061   7.715  0.1167 -1.0903  0.3512
   47MOL   H17916831   5.718   7.158   7.834 -0.5603 -1.0056  1.2155
   47MOL   H18016832   5.656   7.226   7.588  1.6289 -0.5779  0.1489
   47MOL   H18116833   5.580   7.071   7.575  1.3950 -2.3454  1.6553
   47MOL   C18216834   5.482   7.309   7.762 -0.1576 -0.2931  0.8577
   47MOL   O18316835   5.588   7.378   7.779 -0.0063  0.6298  0.0826
   47MOL   C18416836   5.340   7.343   7.804 -0.4063 -0.2671  0.1838
   47MOL   C18516837   5.225   7.284   7.725  0.1044 -0.1607  0.1129
   47MOL   C18616838   5.196   7.358   7.589 -0.3051 -0.0192 -0.1146
   47MOL   C18716839   5.090   7.300   7.496  0.0881 -0.2180  0.1221
   47MOL   C18816840   5.069   7.384   7.370  0.0069  0.8165  0.0799
   47MOL   O18916841   5.038   7.518   7.405  0.2053 -0.9295  0.0195
   47MOL   H19016842   5.337   7.451   7.823  0.8779  0.5836 -4.0007
   47MOL   H19116843   5.334   7.302   0.060 -0.9802 -1.6648 -0.4133
   47MOL   H19216844   5.139   7.288   7.792  1.9539  0.3570  2.5305
   47MOL   H19316845   5.247   7.182   7.693  1.6997  0.5631 -1.2016
   47MOL   H19416846   5.288   7.347   7.532  1.4966  0.2965  2.6444
   47MOL   H19516847   5.178   7.463   7.610  1.6603 -0.2179  2.8600
   47MOL   H19616848   5.000   7.278   7.554  0.3243 -1.1649  0.1314
   47MOL   H19716849   5.126   7.201   7.471  0.5819  0.5637 -2.3929
   47MOL   H19816850   5.149   7.376   7.296 -0.2036 -1.4146  0.0789
   47MOL   H19916851   4.988   7.341   7.312 -2.6037  0.8016  3.6460
   47MOL   C20016852   5.050   7.618   7.316 -0.1917 -0.2098  0.1332
   47MOL   O20116853   5.111   7.612   7.210  0.0253 -0.0083 -0.0659
   47MOL   C20216854   4.988   7.746   7.364 -0.7370 -0.2112  0.7619
   47MOL   C20316855   5.034   0.021   7.278 -0.1495 -0.4633 -0.3429
   47MOL   C20416856   5.165   0.095   7.332  0.0715 -0.0845 -0.3235
   47MOL   C20516857   5.185   0.226   7.262 -0.2401 -0.1703  0.4772
   47MOL   C20616858   5.314   0.302   7.295 -0.4800  0.5438 -0.1947
   47MOL   O20716859   5.313   0.423   7.229 -0.1721 -0.2239  0.7722
   47MOL   H20816860   5.006   7.759   7.470 -0.2402 -1.7943  0.8785
   47MOL   H20916861   4.883   7.737   7.335 -0.3244 -1.6882 -0.3076
   47MOL   H21016862   4.951   0.091   7.282  0.6113  0.4346 -0.0557
   47MOL   H21116863   5.056   7.832   7.176  0.3969 -0.2753 -0.2868
   47MOL   H21216864   5.254   0.032   7.327  0.9202  0.9892  0.9442
   47MOL   H21316865   5.156   0.119   7.438  1.2912  1.3365 -0.5229
   47MOL   H21416866   5.110   0.301   7.289  1.0801  1.2765  0.1714
   47MOL   H21516867   5.173   0.208   7.155  1.0254 -0.3030  0.3477
   47MOL   H21616868   5.326   0.315   7.403  0.3544 -0.1389 -0.2036
   47MOL   H21716869   5.401   0.246   7.262 -0.0642 -0.7979  3.0100
   47MOL   C21816870   5.424   0.476   7.196 -0.2364 -0.9120 -0.2811
   47MOL   O21916871   5.534   0.423   7.210  0.1888  0.5425  0.2912
   47MOL   C22016872   5.404   0.618   7.149 -0.3302 -0.5413 -0.7775
   47MOL   C22116873   5.536   0.704   7.128 -0.1945 -0.7811 -0.1175
   47MOL   C22216874   5.522   0.836   7.062  0.4914  0.0922 -0.1048
   47MOL   C22316875   5.648   0.919   7.064 -0.3059  0.2170 -0.2084
   47MOL   C22416876   5.679   0.982   7.200  0.3623 -0.3264  0.4873
   47MOL   O22516877   5.779   1.085   7.203 -0.4420  0.1415  0.3815
   47MOL   H22616878   5.353   0.662   7.235  1.3761  0.0400 -0.0545
   47MOL   H22716879   5.329   0.617   7.070 -1.3382  0.3131  0.1528
   47MOL   H22816880   5.608   0.645   7.071  1.2400  0.5823  0.2454
   47MOL   H22916881   5.574   0.719   7.229 -0.4614 -3.1821  0.3680
   47MOL   H23016882   5.432   0.883   7.101 -0.2755 -0.8634 -0.6881
   47MOL   H23116883   5.506   0.817   6.956 -0.9017 -0.6338  0.2277
   47MOL   H23216884   5.634   1.007   7.000 -0.9512 -0.8790 -1.6067
   47MOL   H23316885   5.740   0.867   7.037  1.1474  1.5322  2.0653
   47MOL   H23416886   5.594   1.031   7.247 -0.1380 -2.5200  1.9203
   47MOL   H23516887   5.703   0.913   7.281  0.0538  0.4131  1.2151
   47MOL   C23616888   5.849   1.125   7.308 -0.1979  0.2975  0.1429
   47MOL   O23716889   5.831   1.079   7.422 -0.6540 -0.3074 -0.0118
   47MOL   C23816890   5.964   1.228   7.273  0.1245  0.0411 -0.2090
   47MOL   C23916891   5.999   1.337   7.376 -0.4558 -0.0501  0.3500
   47MOL   C24016892   6.074   1.279   7.502 -0.2184  0.4447 -0.0077
   47MOL   C24116893   6.115   1.390   7.597  0.3209 -0.4330  0.5863
   47MOL   C24216894   6.179   1.350   7.723  0.3295  0.0994 -0.3960
   47MOL   O24316895   6.217   1.461   7.801 -0.1073 -0.1797  0.1642
   47MOL   H24416896   5.936   1.289   7.187  0.8795  1.7985  0.7736
   47MOL   H24516897   6.057   1.177   7.247 -0.6812 -1.5245 -0.0779
   47MOL   H24616898   5.906   1.387   7.401  0.7933  2.3014  0.4168
   47MOL   H24716899   6.072   1.401   7.327  0.7221 -0.0209  2.0908
   47MOL   H24816900   6.163   1.228   7.465 -0.3080  1.4868 -1.7140
   47MOL   H24916901   6.010   1.215   7.562  0.3005  0.6060  0.7306
   47MOL   H25016902   6.025   1.434   7.639  0.6434  0.3739  0.4374
   47MOL   H25116903   6.173   1.467   7.545 -1.1000  0.4788  0.3362
   47MOL   H25216904   6.108   1.291   7.783  0.6803 -1.0488 -1.0898
   47MOL   H25316905   6.264   1.296   7.682 -1.4923 -1.3325 -2.3957
   47MOL   C25416906   6.212   1.454   0.093 -0.5491 -0.3329  0.4158
   47MOL   O25516907   6.192   1.351   0.156  0.2805  0.1160 -0.1135
   47MOL   C25616908   6.242   1.581   0.167  0.2967  0.1202  0.0930
   47MOL   C25716909   6.258   1.557   0.313 -0.4107 -0.9117 -0.0192
   47MOL   C25816910   6.391   1.498   0.342  0.4162 -0.2706  0.6249
   47MOL   C25916911   6.434   1.481   0.490 -0.0778  0.4226 -0.0196
   47MOL   C26016912   6.586   1.453   0.512  0.5837  0.6344 -0.6775
   47MOL   O26116913   6.625   1.330   0.454  0.3060  0.6544  0.1946
   47MOL   H26216914   6.155   1.646   0.153  0.0836 -0.5314 -1.6846
   47MOL   H26316915   6.326   1.631   0.119  0.5067 -0.3848 -0.0641
   47MOL   H26416916   6.181   1.493   0.355 -0.3971 -1.2175 -0.4685
   47MOL   H26516917   6.260   1.655   0.361 -3.5482 -1.1241  0.6243
   47MOL   H26616918   6.462   1.562   0.290 -2.0769  1.3478 -0.8994
   47MOL   H26716919   6.385   1.398   0.299  0.7830  0.6833 -1.6759
   47MOL   H26816920   6.378   1.401   0.539 -0.2980  0.0969 -0.7976
   47MOL   H26916921   6.409   1.573   0.544 -0.2376 -0.1745  0.9323
   47MOL   H27016922   6.646   1.535   0.475  1.1972  1.7928  2.7370
   47MOL   H27116923   6.598   1.444   0.619  1.6428  1.3176 -0.7414
   47MOL   C27216924   6.755   1.293   0.461 -0.1689 -0.0439  0.4471
   47MOL   O27316925   6.844   1.357   0.516  0.0396 -0.3311 -0.0505
   47MOL   C27416926   6.792   1.157   0.401 -0.1521  0.2563 -0.2874
   47MOL   C27516927   6.845   1.167   0.260  0.1150 -0.0912 -0.0797
   47MOL   C27616928   6.845   1.043   0.174 -0.3793 -0.3457  0.0803
   47MOL   C27716929   6.933   0.920   0.215 -0.2622 -0.6718 -0.2484
   47MOL   C27816930   6.902   0.811   0.109 -0.4418  0.0605 -0.2062
   47MOL   O27916931   6.952   0.689   0.166  0.1624 -0.0068  0.0434
   47MOL   H28016932   6.708   1.089   0.418  0.8158 -1.4301 -2.1278
   47MOL   H28116933   6.868   1.118   0.468 -1.0373  1.0606  1.2228
   47MOL   H28216934   6.951   1.184   0.275  0.4267 -2.2096  0.3079
   47MOL   H28316935   6.808   1.246   0.193  1.9723 -0.1945 -1.2598
   47MOL   H28416936   6.881   1.070   0.075 -3.2894  0.9806 -0.6806
   47MOL   H28516937   6.741   1.011   0.163 -1.0629  0.6001  3.1807
   47MOL   H28616938   6.910   0.879   0.313 -0.8672  0.3112  0.0318
   47MOL   H28716939   7.037   0.950   0.203  0.2078 -2.0544  0.2490
   47MOL   H28816940   6.794   0.798   0.094 -0.3398 -0.6924 -0.3262
   47MOL   H28916941   6.944   0.843   0.013 -0.5816 -3.3385 -1.4997
   47MOL   C29016942   6.936   0.568   0.104 -0.3828 -0.3521  0.6139
   47MOL   O29116943   6.884   0.555   7.833 -0.5223 -0.0974 -0.7095
   47MOL   C29216944   6.974   0.454   0.194 -0.3850 -0.4098  0.5641
   47MOL   C29316945   7.024   0.333   0.113 -0.0271  0.4678 -0.0024
   47MOL   C29416946   6.915   0.258   0.046  0.6609 -0.2337 -1.0427
   47MOL   C29516947   6.945   0.121   7.836  0.8266 -0.3962  0.4146
   47MOL   C29616948   6.820   0.045   7.786 -0.6170 -0.3155 -0.1634
   47MOL   O29716949   6.853   7.772   7.716  0.3494  0.3396  0.5125
   47MOL   H29816950   6.891   0.424   0.258 -1.9145  0.9790 -0.7168
   47MOL   H29916951   7.042   0.490   0.271 -0.0067  1.3032 -0.5562
   47MOL   H30016952   7.061   0.280   0.201  0.7217  2.4343  0.8990
   47MOL   H30116953   7.106   0.352   0.044  0.9652 -1.2166  0.6778
   47MOL   H30216954   6.864   0.310   7.808  0.2414  0.7806 -0.1504
   47MOL   H30316955   6.846   0.243   0.129  2.1714 -0.0383  0.2719
   47MOL   H30416956   6.989   0.057   0.068  2.6911  0.3726  0.0096
   47MOL   H30516957   7.018   0.132   7.756  2.1004  0.8667  1.7165
   47MOL   H30616958   6.749   0.017   0.019 -0.2989 -0.8105 -0.0467
   47MOL   H30716959   6.767   0.121   7.728 -0.3600 -0.3482 -0.4441
   47MOL   C30816960   6.860   7.766   7.574  0.0145 -0.1315 -0.4843
   47MOL   O30916961   6.852   0.011   7.494  0.1996  0.0856 -0.3628
   47MOL   C31016962   6.889   7.625   7.526  0.8221 -0.2173  0.1602
   47MOL   C31116963   7.032   7.581   7.532 -0.2207 -0.0828  0.0437
   47MOL   C31216964   7.069   7.451   7.456  0.0251 -0.6820 -0.5850
   47MOL   C31316965   7.225   7.420   7.464  0.6055 -0.4953  0.0590
   47MOL   C31416966   7.275   7.287   7.405  0.4022  0.0225  0.2861
   47MOL   O31516967   7.258   7.286   7.261 -0.4878  0.3428 -0.1249
   47MOL   H31616968   6.855   7.627   7.422 -0.7067 -1.8424  0.6144
   47MOL   H31716969   6.823   7.552   7.572  0.0784  0.7730  0.6960
   47MOL   H31816970   7.061   7.575   7.636  0.3988 -0.2475 -0.1371
   47MOL   H31916971   7.103   7.652   7.489 -0.8631 -0.3562 -1.5404
   47MOL   H32016972   7.044   7.460   7.350  0.2520  0.0367 -0.5833
   47MOL   H32116973   7.021   7.362   7.495  0.7949 -0.3712  1.1157
   47MOL   H32216974   7.253   7.427   7.569  0.7460  0.3113 -0.0310
   47MOL   H32316975   7.275   7.504   7.415 -0.5272  0.8524  1.1745
   47MOL   H32416976   7.378   7.266   7.431  0.6453 -0.9385 -1.3542
   47MOL   H32516977   7.220   7.205   7.450 -2.4272  1.4368 -0.4843
   47MOL   C32616978   7.327   7.197   7.185 -0.6107 -0.0621 -0.1803
   47MOL   O32716979   7.428   7.137   7.220 -0.0323 -0.5225 -0.0983
   47MOL   C32816980   7.267   7.176   7.045 -0.6336  0.2183  0.1898
   47MOL   C32916981   7.125   7.111   7.052 -0.0608  0.9262 -1.3779
   47MOL   C33016982   7.021   7.229   7.093 -0.8543  0.3715 -0.0172
   47MOL   C33116983   6.878   7.179   7.077  0.0044  0.3244  0.5299
   47MOL   C33216984   6.780   7.278   7.128 -0.5701 -0.4613 -0.3468
   47MOL   O33316985   6.805   7.416   7.090 -0.4606  0.8144 -0.2182
   47MOL   H33416986   7.328   7.112   6.981 -0.9794 -1.6125  1.6529
   47MOL   H33516987   7.265   7.269   6.988 -1.7212  1.0245  1.5249
   47MOL   H33616988   7.110   7.031   7.125 -1.3871 -1.5105 -4.2046
   47MOL   H33716989   7.095   7.072   6.955 -0.3513 -0.4995 -0.7348
   47MOL   H33816990   7.034   7.326   7.044  0.9894 -0.4850 -1.2979
   47MOL   H33916991   7.032   7.248   7.200  2.1056  1.2026 -0.4230
   47MOL   H34016992   6.856   7.088   7.133  0.2312 -0.7066 -1.0078
   47MOL   H34116993   6.860   7.149   6.974 -1.0539  0.5290  0.6565
   47MOL   H34216994   6.680   7.256   7.091 -0.5091 -0.9566 -0.2259
   47MOL   H34316995   6.780   7.293   7.236  3.7060  1.0180 -0.4550
   47MOL   C34416996   6.773   7.452   6.965 -0.5057 -0.8673 -0.0384
   47MOL   O34516997   6.728   7.372   6.880 -0.6579  0.1043 -0.5893
   47MOL   C34616998   6.788   7.606   6.943 -0.0616  0.7727  0.2561
   47MOL   C34716999   6.674   7.686   7.014 -0.0127  0.3390  0.8716
   47MOL   C34817000   6.669   7.828   6.964 -0.2649  0.1562  0.8396
   47MOL   C34917001   6.789   0.067   7.007  0.0608 -0.1505  0.1642
   47MOL   C35017002   6.760   0.207   7.026 -0.7672  0.1026 -0.9558
   47MOL   O35117003   6.884   0.272   7.063  0.0228 -0.6527  0.3326
   47MOL   H35217004   6.774   7.611   6.835  0.5671 -0.6295  0.0955
   47MOL   H35317005   6.883   7.649   6.974  1.2786 -0.6780 -1.7206
   47MOL   H35417006   6.693   7.686   7.122  1.7999  3.5153  0.6217
   47MOL   H35517007   6.582   7.639   6.980  1.0026  0.7295 -2.5603
   47MOL   H35617008   6.576   0.032   6.993 -0.3792 -0.4404  1.4887
   47MOL   H35717009   6.684   7.821   6.856 -1.0003 -2.0355  0.8488
   47MOL   H35817010   6.871   0.044   6.939 -0.5163 -0.5633 -0.3968
   47MOL   H35917011   6.828   0.046   7.107  0.9187  1.7261  0.2461
   47MOL   H36017012   6.711   0.248   6.938 -0.3556 -0.3759 -1.4116
   47MOL   H36117013   6.689   0.221   7.108  1.4294 -1.5516  1.3384
   47MOL   H36217014   6.867   0.360   7.093 -0.4887  0.1629 -2.2353
   48MOL     C117015   0.755   7.132   5.369  0.8548  0.0660 -0.1031
   48MOL     O217016   0.846   7.208   5.332  0.3449 -0.2623  0.3325
   48MOL     C317017   0.667   7.170   5.486 -0.6564  0.3314  0.4633
   48MOL     C417018   0.742   7.192   5.615  0.7650  0.6659  0.4647
   48MOL     C517019   0.794   7.057   5.687  0.0455  0.5252  0.4327
   48MOL     C617020   0.696   6.956   5.744 -0.6691 -0.1184  0.1554
   48MOL     C717021   0.589   7.026   5.832  0.1447 -0.6701  0.3502
   48MOL     O817022   0.524   6.926   5.911  0.9383 -0.0676  0.0851
   48MOL     H917023   0.590   7.096   5.508  0.5321 -0.6881  1.3216
   48MOL    H1017024   0.605   7.254   5.456  0.3166  1.2734  1.0165
   48MOL    H1117025   0.682   7.247   5.688  1.3613  0.9685  0.7335
   48MOL    H1217026   0.839   7.239   5.601  0.5169  1.6757  1.9251
   48MOL    H1317027   0.875   7.070   5.758  0.4366  2.4486 -0.3238
   48MOL    H1417028   0.850   7.002   5.611 -1.0935  0.4210 -0.3522
   48MOL    H1517029   0.754   6.886   5.804  1.6852  1.5102 -0.1255
   48MOL    H1617030   0.647   6.895   5.669 -1.9243  1.6995 -0.5374
   48MOL    H1717031   0.639   7.100   5.896  1.9791 -1.0458 -0.6063
   48MOL    H1817032   0.514   7.083   5.777  1.3454  1.3603  0.7718
   48MOL    H1917033   0.735   7.029   5.339  0.9745 -0.4633  1.5337
   48MOL    C2017034   0.438   6.966   6.002  0.8349 -0.0687  0.3975
   48MOL    O2117035   0.400   7.082   6.025 -0.0700 -0.6509  0.1822
   48MOL    C2217036   0.405   6.850   6.099  0.0514 -0.2230 -0.4299
   48MOL    C2317037   0.456   6.864   6.241  0.6848 -0.1601  0.1098
   48MOL    C2417038   0.605   6.813   6.277  0.3382 -0.4023  0.5711
   48MOL    C2517039   0.620   6.656   6.300 -0.6775 -0.7188 -0.3379
   48MOL    C2617040   0.764   6.600   6.304  0.6660  0.5161  1.0188
   48MOL    O2717041   0.834   6.630   6.179  0.0229 -0.3512 -0.8668
   48MOL    H2817042   0.438   6.756   6.056 -1.2290 -0.9141  0.0866
   48MOL    H2917043   0.296   6.845   6.090  0.1481  1.0319 -2.5548
   48MOL    H3017044   0.386   6.809   6.303 -0.1658  0.2595 -0.4692
   48MOL    H3117045   0.452   6.966   6.281  1.5963  0.8042 -2.1818
   48MOL    H3217046   0.637   6.856   6.372  0.8435  1.7832 -0.5769
   48MOL    H3317047   0.674   6.849   6.201 -1.2711  0.7417 -0.3631
   48MOL    H3417048   0.566   6.612   6.217 -0.7886  2.4553 -2.0539
   48MOL    H3517049   0.572   6.627   6.394  3.2183  1.9900  2.6851
   48MOL    H3617050   0.818   6.643   6.388  0.4446 -0.1019  1.4774
   48MOL    H3717051   0.771   6.492   6.316  1.4530  0.7113  2.4188
   48MOL    C3817052   0.925   6.541   6.131  0.0269 -0.2801  0.1792
   48MOL    O3917053   0.994   6.462   6.195 -0.0604  0.6877 -0.3504
   48MOL    C4017054   0.936   6.566   5.977 -0.2766  0.4614 -0.0355
   48MOL    C4117055   1.012   6.445   5.910 -0.4274  0.7226  0.0077
   48MOL    C4217056   0.928   6.318   5.894  0.3247 -1.3866  0.3540
   48MOL    C4317057   0.853   6.319   5.752  0.1026 -0.5433 -0.0903
   48MOL    C4417058   0.775   6.190   5.735  0.2047  0.0619 -0.3793
   48MOL    O4517059   0.877   6.102   5.697 -0.0583  0.5726  0.1371
   48MOL    H4617060   0.997   6.654   5.961 -0.1048  0.1333 -1.2758
   48MOL    H4717061   0.836   6.589   5.940  0.0819 -1.6655 -2.5240
   48MOL    H4817062   1.096   6.414   5.972 -1.0242 -0.5776  0.1931
   48MOL    H4917063   1.048   6.469   5.811 -1.7308  1.9805 -0.1712
   48MOL    H5017064   0.841   6.320   5.960 -0.1304 -0.6308 -0.2628
   48MOL    H5117065   0.979   6.223   5.911  1.4389 -1.3983 -2.7584
   48MOL    H5217066   0.923   6.340   5.672 -0.4551  0.8552 -0.2353
   48MOL    H5317067   0.778   6.399   5.752  1.1702  0.5316  2.9235
   48MOL    H5417068   0.735   6.162   5.832  0.3117 -1.5145 -0.7854
   48MOL    H5517069   0.695   6.193   5.661 -1.1346  0.2603  1.0624
   48MOL    C5617070   0.844   5.993   5.626 -0.2734  1.2042 -0.2048
   48MOL    O5717071   0.732   5.957   5.587  0.1255 -0.1245 -0.6508
   48MOL    C5817072   0.969   5.905   5.593  0.5344 -1.0510 -0.1021
   48MOL    C5917073   1.103   5.979   5.582  0.0951  0.0646  0.1415
   48MOL    C6017074   1.106   6.077   5.463 -0.0236  0.5444 -0.3719
   48MOL    C6117075   1.234   6.159   5.455  0.2748 -0.2484  0.2687
   48MOL    C6217076   1.222   6.282   5.367  0.6399  0.0874 -0.3243
   48MOL    O6317077   1.344   6.341   5.339 -0.6085 -0.0338  0.0134
   48MOL    H6417078   0.957   5.851   5.499  0.7267 -1.7795  0.2860
   48MOL    H6517079   0.973   5.835   5.676  1.4001  2.3792  2.8330
   48MOL    H6617080   1.189   5.912   5.588  0.3459  0.4118  0.4184
   48MOL    H6717081   1.117   6.045   5.668  2.5422  0.1613 -0.3170
   48MOL    H6817082   1.033   6.155   5.485 -0.8905 -0.1462 -0.7737
   48MOL    H6917083   1.078   6.039   5.365 -1.1171 -1.0885  0.5657
   48MOL    H7017084   1.320   6.095   5.431  0.3355  0.5518 -1.7835
   48MOL    H7117085   1.272   6.193   5.551 -2.8122  0.9496  1.1232
   48MOL    H7217086   1.176   6.257   5.271  2.0394 -2.1187 -0.4546
   48MOL    H7317087   1.158   6.357   5.412  0.7333  0.1620 -0.3158
   48MOL    C7417088   1.354   6.450   5.274 -0.4298 -0.4052  1.1178
   48MOL    O7517089   1.264   6.505   5.220 -0.8180 -0.7441 -0.3038
   48MOL    C7617090   1.493   6.506   5.262 -0.5246  0.0431  0.6471
   48MOL    C7717091   1.510   6.660   5.268  0.2908  0.3934  0.0193
   48MOL    C7817092   1.479   6.718   5.404 -0.1628 -0.0080 -0.2152
   48MOL    C7917093   1.477   6.871   5.397  0.1827 -0.1063  0.7142
   48MOL    C8017094   1.549   6.944   5.506  0.5086  0.0010 -0.5662
   48MOL    O8117095   1.468   6.933   5.627 -0.0478  0.1172 -0.2681
   48MOL    H8217096   1.527   6.457   5.171 -0.2879 -1.5767  1.5885
   48MOL    H8317097   1.547   6.456   5.342 -0.6853 -0.6061  0.3557
   48MOL    H8417098   1.452   6.703   5.186 -0.5251 -3.0983 -1.3142
   48MOL    H8517099   1.613   6.689   5.248  0.0822  2.0886  1.2375
   48MOL    H8617100   1.561   6.689   5.469  0.7659  2.1148 -0.3884
   48MOL    H8717101   1.381   6.681   5.437 -0.6856  1.9026  0.4714
   48MOL    H8817102   1.378   6.914   5.380  0.7442  0.8049 -0.2522
   48MOL    H8917103   1.535   6.897   5.309 -0.8955  0.1166  0.0481
   48MOL    H9017104   1.650   6.908   5.525  0.2181 -0.4328  0.1612
   48MOL    H9117105   1.550   7.048   5.474  1.8495  0.1751  0.0261
   48MOL    C9217106   1.510   6.984   5.739  0.3650 -0.9774  0.1489
   48MOL    O9317107   1.594   7.070   5.752  0.1275 -0.1901 -0.3626
   48MOL    C9417108   1.429   6.934   5.854 -0.3776 -0.0018  0.6548
   48MOL    C9517109   1.297   7.009   5.874  0.2371  0.8142  0.1987
   48MOL    C9617110   1.209   6.952   5.986 -0.1151  0.0549  0.1320
   48MOL    C9717111   1.086   7.043   6.017  0.2409 -0.0456 -0.0637
   48MOL    C9817112   0.977   6.958   6.097 -0.1393  0.4141 -0.6982
   48MOL    O9917113   1.037   6.907   6.224  0.3793  0.0744  0.1978
   48MOL   H10017114   1.486   6.958   5.944 -0.1129  0.1858  0.4377
   48MOL   H10117115   1.418   6.825   5.854 -1.9547  0.1458  2.1376
   48MOL   H10217116   1.231   7.014   5.788 -0.8160 -1.6431  0.8237
   48MOL   H10317117   1.319   7.113   5.899 -0.7423  0.4955  2.5109
   48MOL   H10417118   1.266   6.935   6.076  1.1241 -1.4167 -0.9162
   48MOL   H10517119   1.186   6.847   5.969  2.1677 -0.3173 -0.7522
   48MOL   H10617120   1.043   7.072   5.922  2.1890 -2.2614 -1.6796
   48MOL   H10717121   1.114   7.126   6.082  0.6560  0.2820 -0.6522
   48MOL   H10817122   0.890   7.021   6.116 -1.4387 -0.7323 -2.6420
   48MOL   H10917123   0.941   6.878   6.033 -1.5102 -0.3906  1.0312
   48MOL   C11017124   0.976   6.927   6.340  0.5840 -0.5249 -0.6635
   48MOL   O11117125   0.868   6.988   6.349  0.1481  0.6420  0.7561
   48MOL   C11217126   1.052   6.857   6.453 -0.5207 -0.2903 -0.0201
   48MOL   C11317127   1.206   6.827   6.436 -0.1710 -0.2561  0.9587
   48MOL   C11417128   1.294   6.959   6.437  0.5245  0.3515 -0.0425
   48MOL   C11517129   1.446   6.942   6.450  0.0958 -0.2344 -0.0993
   48MOL   C11617130   1.531   7.071   6.475  0.3045 -1.0336 -0.2347
   48MOL   O11717131   1.672   7.048   6.454 -0.3712  0.0892 -0.3890
   48MOL   H11817132   1.009   6.757   6.445 -0.0034 -0.3258 -2.6406
   48MOL   H11917133   1.034   6.900   6.551 -1.2429 -0.3451 -0.1239
   48MOL   H12017134   1.233   6.759   6.356 -0.9097 -1.6420  1.8641
   48MOL   H12117135   1.233   6.771   6.525  0.4414  0.3807  1.1819
   48MOL   H12217136   1.253   7.026   6.512  1.3205 -0.0318  0.7458
   48MOL   H12317137   1.266   7.009   6.344  0.7999  0.2167 -0.1994
   48MOL   H12417138   1.478   6.903   6.353  0.7254 -0.9806  0.3943
   48MOL   H12517139   1.466   6.863   6.523  1.1500  0.8281  0.7900
   48MOL   H12617140   1.501   7.133   6.391 -1.0189  0.6287  1.4441
   48MOL   H12717141   1.513   7.126   6.566 -0.7634  0.1450 -1.1534
   48MOL   C12817142   1.747   7.004   6.557 -1.0232  0.3061  0.1083
   48MOL   O12917143   1.703   6.972   6.665 -0.1061 -0.0487 -1.2082
   48MOL   C13017144   1.897   6.989   6.530  0.2761 -0.0083 -0.0706
   48MOL   C13117145   1.972   7.119   6.555  0.2861 -0.0144  0.3992
   48MOL   C13217146   2.105   7.118   6.483 -0.4226  0.0174 -0.6277
   48MOL   C13317147   2.209   7.224   6.509  0.1509 -0.2929  0.5632
   48MOL   C13417148   2.327   7.234   6.410  0.2438 -0.2986  0.2473
   48MOL   O13517149   2.408   7.345   6.437 -0.0663 -0.5557  0.7437
   48MOL   H13617150   1.910   6.942   6.433 -2.4595  0.1660 -0.5567
   48MOL   H13717151   1.928   6.910   6.598 -1.1713 -0.2769  0.3006
   48MOL   H13817152   1.982   7.149   6.659 -0.1642  1.5548  0.0168
   48MOL   H13917153   1.913   7.198   6.507 -2.2820 -0.9737  1.8553
   48MOL   H14017154   2.090   7.125   6.375  1.1689 -0.8147 -0.9153
   48MOL   H14117155   2.150   7.019   6.490 -0.8789 -0.1318  0.1782
   48MOL   H14217156   2.261   7.204   6.603 -1.7235 -0.2723  1.6350
   48MOL   H14317157   2.157   7.319   6.524  0.1148 -0.2387  0.0912
   48MOL   H14417158   2.388   7.144   6.421  0.7050  0.1082  1.0420
   48MOL   H14517159   2.293   7.242   6.306  1.5584  2.2149 -0.0404
   48MOL   C14617160   2.500   7.396   6.349  0.2650 -0.6227 -0.2132
   48MOL   O14717161   2.526   7.353   6.237  0.1869  0.0514  0.6907
   48MOL   C14817162   2.555   7.534   6.393  0.1651 -0.1517  0.3606
   48MOL   C14917163   2.500   7.649   6.307 -0.0679 -0.0212  0.8369
   48MOL   C15017164   2.602   7.767   6.283 -0.2908  0.1071  0.2237
   48MOL   C15117165   2.582   0.010   6.166  0.4817  0.4978 -0.0223
   48MOL   C15217166   2.676   0.125   6.167  0.4952 -0.5204 -0.5406
   48MOL   O15317167   2.633   0.229   6.256 -0.3518  0.2026 -0.5018
   48MOL   H15417168   2.664   7.526   6.389  0.2051  0.7720 -0.8976
   48MOL   H15517169   2.517   7.558   6.493 -0.4664  0.6267 -0.0572
   48MOL   H15617170   2.405   7.677   6.353 -1.9133 -1.6485 -1.8085
   48MOL   H15717171   2.474   7.612   6.208 -1.7319 -0.9576  1.5973
   48MOL   H15817172   2.694   7.709   6.276 -1.1432 -1.2460  0.1332
   48MOL   H15917173   2.609   7.838   6.366  1.2348  1.2909 -0.8727
   48MOL   H16017174   2.476   0.032   6.148  1.0192  2.7199 -0.5803
   48MOL   H16117175   2.612   7.787   6.086  1.8267  2.4908 -1.2512
   48MOL   H16217176   2.774   0.091   6.201  1.0129 -0.3309 -1.8352
   48MOL   H16317177   2.674   0.167   6.067 -1.2554  1.4446  0.2915
   48MOL   C16417178   2.577   0.338   6.201  0.8195 -0.6785 -0.5419
   48MOL   O16517179   2.555   0.357   6.079  0.4899  0.7089 -0.7463
   48MOL   C16617180   2.535   0.442   6.305  0.3396 -0.3407 -0.2292
   48MOL   C16717181   2.654   0.469   6.408  0.8729 -0.7014 -1.2166
   48MOL   C16817182   2.776   0.540   6.352 -0.0530  0.2710 -0.3738
   48MOL   C16917183   2.902   0.565   6.437  0.3050  0.1722 -0.0952
   48MOL   C17017184   2.984   0.438   6.478  0.2592 -0.7254  0.7085
   48MOL   O17117185   3.032   0.355   6.374  0.2050 -0.3103  0.7217
   48MOL   H17217186   2.448   0.407   6.361  0.0017 -0.3111 -0.7295
   48MOL   H17317187   2.514   0.536   6.253 -0.7329  0.3734  1.4562
   48MOL   H17417188   2.670   0.376   6.463  0.3096 -0.8337 -1.2686
   48MOL   H17517189   2.613   0.544   6.476  1.3926  0.6675 -2.4002
   48MOL   H17617190   2.757   0.633   6.299 -0.9061  0.5470  0.3958
   48MOL   H17717191   2.814   0.476   6.273  0.3561  1.4068 -1.1033
   48MOL   H17817192   2.887   0.616   6.533  2.5017  1.3667 -0.3618
   48MOL   H17917193   2.970   0.629   6.383 -1.5732  1.2715 -1.2010
   48MOL   H18017194   3.069   0.468   6.539  0.5051 -0.9524  0.4783
   48MOL   H18117195   2.930   0.383   6.555  0.9708 -0.2673  1.5427
   48MOL   C18217196   3.125   0.262   6.392 -0.8649  0.2833  0.3808
   48MOL   O18317197   3.198   0.251   6.490 -0.3137  0.0772  0.0538
   48MOL   C18417198   3.149   0.163   6.267 -0.6411 -0.5826  0.5130
   48MOL   C18517199   3.131   0.245   6.134  0.1418  0.2552 -0.2286
   48MOL   C18617200   3.161   0.163   6.006 -0.3909 -0.2802 -0.0272
   48MOL   C18717201   3.156   0.242   5.871 -0.6488  0.1397  0.1153
   48MOL   C18817202   3.206   0.146   5.759  0.2740 -0.6898  0.3417
   48MOL   O18917203   3.351   0.132   5.757 -0.0440  0.0927 -0.0073
   48MOL   H19017204   3.069   0.089   6.272  0.4614 -1.9063 -0.6405
   48MOL   H19117205   3.241   0.105   6.273 -0.3699 -0.3749 -1.3898
   48MOL   H19217206   3.212   0.317   6.131  0.5363 -0.2354 -3.4055
   48MOL   H19317207   3.034   0.297   6.133  0.5402  0.9973 -1.4768
   48MOL   H19417208   3.101   0.072   6.000  0.0332 -0.5819  0.1968
   48MOL   H19517209   3.256   0.118   6.036  0.0405 -0.2387 -1.3193
   48MOL   H19617210   3.216   0.331   5.887  0.8579 -0.7358 -0.6212
   48MOL   H19717211   3.052   0.272   5.856 -0.4916  0.8330  0.3954
   48MOL   H19817212   3.167   0.045   5.776  0.4666 -1.0462 -1.2108
   48MOL   H19917213   3.176   0.191   5.664  0.1284  0.3643  0.8830
   48MOL   C20017214   3.419   0.031   5.805  0.3681  0.6627 -0.3306
   48MOL   O20117215   3.373   7.769   5.847 -0.0800 -0.4296  0.7611
   48MOL   C20217216   3.576   0.055   5.810  0.2777 -0.0097  0.7005
   48MOL   C20317217   3.623   0.173   5.897 -0.1549 -0.3566  0.1808
   48MOL   C20417218   3.772   0.156   5.940 -0.3969 -0.7383 -0.2486
   48MOL   C20517219   3.831   0.297   5.972  0.1521 -0.0684  0.1066
   48MOL   C20617220   3.958   0.304   6.052 -0.5432 -0.4936  0.2155
   48MOL   O20717221   3.946   0.230   6.174  0.2510  0.2130 -0.2261
   48MOL   H20817222   3.603   0.068   5.705 -2.4480 -0.6620 -0.0999
   48MOL   H20917223   3.637   7.818   5.848  1.1292  0.7438  0.9915
   48MOL   H21017224   3.573   0.191   5.992 -0.0398  0.6244  0.0660
   48MOL   H21117225   3.610   0.264   5.837 -3.3778  0.2713  1.7065
   48MOL   H21217226   3.829   0.103   5.864 -1.1048 -1.0252 -0.5785
   48MOL   H21317227   3.773   0.093   6.029  0.3755 -0.7453 -0.2616
   48MOL   H21417228   3.761   0.354   6.033  1.0894  0.7791  0.4051
   48MOL   H21517229   3.845   0.340   5.873 -0.4227  1.0333  0.5008
   48MOL   H21617230   4.040   0.265   5.991 -0.8544  0.9336 -1.1226
   48MOL   H21717231   3.986   0.406   6.077 -0.4885 -0.1615 -1.1570
   48MOL   C21817232   4.055   0.198   6.245  0.1286 -0.3880  0.1848
   48MOL   O21917233   4.171   0.227   6.216  0.5166 -0.4223  0.2088
   48MOL   C22017234   4.031   0.113   6.373 -0.7601  0.1671  0.3549
   48MOL   C22117235   3.991   7.809   6.364 -0.2164 -0.0865 -0.1023
   48MOL   C22217236   3.843   7.779   6.354  0.0669 -0.2984  0.5943
   48MOL   C22317237   3.811   7.625   6.365 -0.4665  0.3012  0.0617
   48MOL   C22417238   3.880   7.550   6.478  0.6099  0.4256  0.3731
   48MOL   O22517239   3.831   7.619   6.590  0.6853 -0.1416  0.4947
   48MOL   H22617240   3.969   0.166   6.445 -1.6083  0.4732 -0.5904
   48MOL   H22717241   4.128   0.117   6.423  0.6301  2.1131 -2.3777
   48MOL   H22817242   4.036   7.763   6.453 -1.3992  1.6451  1.4398
   48MOL   H22917243   4.030   7.759   6.276  3.6300 -0.8128  1.8749
   48MOL   H23017244   3.794   7.817   6.264  0.6507 -1.3775 -0.1930
   48MOL   H23117245   3.798   7.828   6.440  1.4148 -0.2125  1.2680
   48MOL   H23217246   3.843   7.578   6.272 -1.9453 -0.6465  0.0082
   48MOL   H23317247   3.703   7.608   6.366 -0.9368  2.9603 -0.3768
   48MOL   H23417248   3.873   7.442   6.491 -0.8919  0.1258 -2.5087
   48MOL   H23517249   3.987   7.568   6.467  0.3684  2.7789  1.6140
   48MOL   C23617250   3.918   7.630   6.693  0.1631 -0.8588 -0.6868
   48MOL   O23717251   4.031   7.594   6.697  0.3791  0.4284  0.0612
   48MOL   C23817252   3.851   7.689   6.818 -0.3219  0.0260  0.2265
   48MOL   C23917253   3.817   7.834   6.817  0.5190 -0.1310  0.1356
   48MOL   C24017254   3.930   0.078   6.854 -0.3443 -0.0538  0.6115
   48MOL   C24117255   3.918   0.219   6.802 -0.5630 -0.6437  0.2930
   48MOL   C24217256   4.044   0.303   6.840  0.3514 -0.3573 -0.2301
   48MOL   O24317257   4.163   0.257   6.783 -0.4165  0.1010 -0.3013
   48MOL   H24417258   3.913   7.668   6.905  1.2777  2.1505 -0.3689
   48MOL   H24517259   3.759   7.631   6.813 -0.6989  0.5817  0.7876
   48MOL   H24617260   3.735   0.009   6.886  0.7354 -1.4266  0.7585
   48MOL   H24717261   3.780   0.019   6.718 -2.3563 -0.9589  0.8962
   48MOL   H24817262   4.022   0.037   6.811 -0.9134  0.3825 -1.0863
   48MOL   H24917263   3.955   0.075   6.960  0.1450  2.7622  0.6254
   48MOL   H25017264   3.831   0.258   6.855  0.5112  1.5036  0.5286
   48MOL   H25117265   3.908   0.216   6.694  2.7926 -0.4948 -0.0750
   48MOL   H25217266   4.025   0.409   6.823  0.4395 -0.5411 -1.5570
   48MOL   H25317267   4.049   0.307   6.949  0.4892  0.3233 -0.2575
   48MOL   C25417268   4.269   0.347   6.784  0.2143 -0.2328  0.8720
   48MOL   O25517269   4.273   0.457   6.844  0.2364 -0.4582 -0.4566
   48MOL   C25617270   4.384   0.310   6.687  0.5172  0.6483  0.1578
   48MOL   C25717271   4.337   0.322   6.534  0.6171 -0.2335 -0.0367
   48MOL   C25817272   4.434   0.421   6.463 -0.7004  0.0322  0.3434
   48MOL   C25917273   4.382   0.463   6.323 -0.0291 -0.4892 -0.2403
   48MOL   C26017274   4.470   0.577   6.279  0.4047  0.4189  0.6688
   48MOL   O26117275   4.445   0.695   6.355 -0.1412  0.3792 -0.5401
   48MOL   H26217276   4.406   0.205   6.706 -1.0325  0.0122 -1.4744
   48MOL   H26317277   4.461   0.382   6.715  0.4590  1.4950 -1.7805
   48MOL   H26417278   4.235   0.358   6.518  1.2373  0.2772 -3.1120
   48MOL   H26517279   4.340   0.221   6.493  1.0389  0.0458 -0.7035
   48MOL   H26617280   4.534   0.381   6.445 -1.2706 -0.9113 -0.7804
   48MOL   H26717281   4.430   0.509   6.528 -0.7438 -0.1683  0.6118
   48MOL   H26817282   4.279   0.498   6.317 -0.7403 -2.5974 -1.0165
   48MOL   H26917283   4.406   0.398   6.238 -0.0724  1.1571 -1.5367
   48MOL   H27017284   4.573   0.548   6.299  1.2603  2.9748  0.1583
   48MOL   H27117285   4.455   0.603   6.174  0.4705 -1.9985  0.0313
   48MOL   C27217286   4.359   0.782   6.315 -0.1176 -0.7571  0.6334
   48MOL   O27317287   4.280   0.780   6.216  0.0375 -0.2252  0.1675
   48MOL   C27417288   4.371   0.905   6.401  0.0245 -0.4664 -0.3645
   48MOL   C27517289   4.350   0.876   6.550  0.0459  0.1233  0.0646
   48MOL   C27617290   4.208   0.826   6.590 -0.0319 -0.5011 -0.8697
   48MOL   C27717291   4.201   0.676   6.593 -0.2237 -0.8224 -0.2029
   48MOL   C27817292   4.064   0.629   6.637 -0.0279 -0.0315 -0.0882
   48MOL   O27917293   3.969   0.657   6.537  0.7557 -0.2356 -0.0227
   48MOL   H28017294   4.302   0.984   6.369  1.0765  1.2334  1.4759
   48MOL   H28117295   4.474   0.936   6.386  1.2690 -2.9093  2.7632
   48MOL   H28217296   4.363   0.981   6.574 -1.5518  1.2942 -3.7178
   48MOL   H28317297   4.426   0.810   6.592  0.5074  0.5954 -0.0231
   48MOL   H28417298   4.124   0.860   6.530  0.7638  0.8910 -1.1966
   48MOL   H28517299   4.201   0.860   6.694 -0.1425 -0.2143 -0.9722
   48MOL   H28617300   4.275   0.627   6.656 -1.0031 -1.4140  0.2537
   48MOL   H28717301   4.234   0.633   6.498  0.6355  0.1212 -0.3411
   48MOL   H28817302   4.074   0.522   6.657 -1.3817  0.3955  3.1743
   48MOL   H28917303   4.026   0.682   6.725 -1.9086  0.3745 -1.1168
   48MOL   C29017304   3.938   0.550   6.451 -0.4321  0.1441 -0.0767
   48MOL   O29117305   3.985   0.441   6.454  0.3460 -0.0666  0.2791
   48MOL   C29217306   3.846   0.589   6.337  0.0954  0.1200  0.0954
   48MOL   C29317307   3.911   0.690   6.239  0.3250  0.3082 -0.1177
   48MOL   C29417308   3.884   0.840   6.266 -0.0637  0.9167  0.3896
   48MOL   C29517309   3.963   0.927   6.164  0.8691 -0.1063 -0.0509
   48MOL   C29617310   3.967   1.072   6.206  0.5500  0.0514 -0.1088
   48MOL   O29717311   4.056   1.090   6.315 -1.0604  0.3253 -0.1002
   48MOL   H29817312   3.753   0.630   6.377 -0.9452 -2.0989 -0.0028
   48MOL   H29917313   3.822   0.505   6.272 -1.0757  1.2200 -0.9124
   48MOL   H30017314   3.866   0.673   6.141 -1.7924  1.5996  0.5885
   48MOL   H30117315   4.017   0.666   6.225  0.0293 -1.6455  0.8907
   48MOL   H30217316   3.929   0.871   6.360  0.2508 -2.9548  1.6053
   48MOL   H30317317   3.780   0.871   6.270 -0.4016  0.3695 -2.8928
   48MOL   H30417318   3.930   0.910   6.061 -2.7786  0.3197  0.9811
   48MOL   H30517319   4.065   0.893   6.177  1.1138  0.2387 -1.0299
   48MOL   H30617320   4.011   1.134   6.129 -2.1404  0.9423 -0.9929
   48MOL   H30717321   3.871   1.117   6.231  1.3508  2.1702 -0.7837
   48MOL   C30817322   4.112   1.206   6.341  0.9726  0.0984 -0.4927
   48MOL   O30917323   4.103   1.306   6.270  0.4807  0.4755 -0.1255
   48MOL   C31017324   4.178   1.204   6.481 -0.5191 -0.1207 -0.9089
   48MOL   C31117325   4.322   1.260   6.491 -0.0194  0.1529 -0.7841
   48MOL   C31217326   4.332   1.404   6.467  0.1138 -0.6308  0.1924
   48MOL   C31317327   4.268   1.490   6.578  1.0948  0.0925 -0.3102
   48MOL   C31417328   4.297   1.644   6.562 -0.7251 -0.4266  0.3989
   48MOL   O31517329   4.214   1.709   6.658 -0.1242  0.6730  0.0163
   48MOL   H31617330   4.183   1.105   6.526  0.6679  0.7637  1.0136
   48MOL   H31717331   4.109   1.259   6.546 -0.0558 -3.0312  2.2099
   48MOL   H31817332   4.381   1.213   6.413 -0.4277 -2.6942  0.5903
   48MOL   H31917333   4.366   1.250   6.590 -3.0176  4.4319  1.1879
   48MOL   H32017334   4.294   1.423   6.366 -0.2951 -0.7865  0.3136
   48MOL   H32117335   4.437   1.431   6.470  0.6055 -2.4663  0.0818
   48MOL   H32217336   4.294   1.452   6.677 -1.2807 -0.6283  0.0871
   48MOL   H32317337   4.159   1.477   6.583  0.8642  1.4433 -1.6300
   48MOL   H32417338   4.400   1.668   6.586 -0.0567  0.3802 -2.9511
   48MOL   H32517339   4.273   1.686   6.464  0.4924  0.4640  0.4657
   48MOL   C32617340   4.264   1.795   6.738 -0.1528 -0.3901  0.0637
   48MOL   O32717341   4.380   1.839   6.739  0.5394  0.3186 -0.1413
   48MOL   C32817342   4.151   1.857   6.821  0.1917 -0.6456  0.6189
   48MOL   C32917343   4.082   1.760   6.917 -0.7377  0.3131  0.0423
   48MOL   C33017344   3.986   1.659   6.848  0.5269  0.0199 -0.1793
   48MOL   C33117345   3.944   1.557   6.952 -0.1584 -0.3295 -0.2022
   48MOL   C33217346   3.817   1.475   6.914  0.1626 -0.3170 -0.4757
   48MOL   O33317347   3.793   1.376   7.012 -0.2214  0.2998 -0.4240
   48MOL   H33417348   4.089   1.912   6.750  2.3521 -0.3504 -1.1109
   48MOL   H33517349   4.209   1.931   6.876 -0.4302 -0.9630  1.7037
   48MOL   H33617350   4.030   1.809   7.000  0.6532  0.8425  0.6097
   48MOL   H33717351   4.150   1.693   6.969  3.5696  3.1567 -1.6878
   48MOL   H33817352   4.035   1.608   6.765  1.5991  0.8732 -0.0939
   48MOL   H33917353   3.897   1.701   6.801  0.1316 -1.3825 -0.6859
   48MOL   H34017354   3.927   1.602   7.050 -0.1932  1.2363 -0.9145
   48MOL   H34117355   4.032   1.495   6.968 -0.4903 -0.7415  0.0690
   48MOL   H34217356   3.728   1.537   6.899  0.4277  0.2126  0.1189
   48MOL   H34317357   3.826   1.416   6.823 -0.9321  1.1384 -1.5604
   48MOL   C34417358   3.701   1.392   7.109 -0.4351 -0.1327  0.4836
   48MOL   O34517359   3.630   1.486   7.127  0.2049 -0.5900 -0.7825
   48MOL   C34617360   3.678   1.273   7.194  0.2977 -0.2123  0.3217
   48MOL   C34717361   3.792   1.242   7.295  0.4837 -0.3980 -0.5021
   48MOL   C34817362   3.765   1.118   7.381 -0.2329 -0.2222 -0.3074
   48MOL   C34917363   3.768   0.986   7.300 -0.5052 -0.3862  0.4516
   48MOL   C35017364   3.744   0.871   7.397  0.0191  0.5312 -0.0869
   48MOL   O35117365   3.610   0.868   7.432  0.3132 -0.7733 -0.4225
   48MOL   H35217366   3.650   1.196   7.121  0.1050  0.7104 -0.5912
   48MOL   H35317367   3.587   1.281   7.254  1.6586 -1.6351  2.6389
   48MOL   H35417368   3.787   1.326   7.364 -1.9945 -1.1234  0.2573
   48MOL   H35517369   3.887   1.225   7.244  0.7894  0.8470 -0.3826
   48MOL   H35617370   3.662   1.112   7.415 -1.3749 -2.9407 -3.8844
   48MOL   H35717371   3.842   1.107   7.457 -0.2855 -0.5336 -0.3010
   48MOL   H35817372   3.861   0.966   7.246 -0.8000  1.1877 -0.6801
   48MOL   H35917373   3.688   0.979   7.226 -0.0056 -1.2202 -0.0212
   48MOL   H36017374   3.764   0.771   7.357 -1.7129  0.7832 -1.6373
   48MOL   H36117375   3.796   0.884   7.492  0.8343  0.2555 -0.4844
   48MOL   H36217376   3.599   0.814   7.509  2.3058 -0.5136  0.0839
   49MOL     C117377   7.077   6.997   7.667  1.2614 -0.2773  0.0603
   49MOL     O217378   7.041   7.092   7.596 -0.0416  0.2113 -0.2451
   49MOL     C317379   7.181   7.027   7.777 -0.4211 -0.1138  0.2981
   49MOL     C417380   7.274   7.144   7.753  0.2427 -0.4410 -0.0619
   49MOL     C517381   7.348   7.185   0.034  0.5287 -0.0046 -0.3058
   49MOL     C617382   7.459   7.079   0.073  0.6314 -0.4012 -0.5120
   49MOL     C717383   7.529   7.132   0.195 -0.2915 -0.4359  0.7105
   49MOL     O817384   7.604   7.247   0.173  0.4838 -0.8089  0.2611
   49MOL     H917385   7.234   6.934   7.797 -0.4105 -0.0846  0.4050
   49MOL    H1017386   7.126   7.046   0.025  0.8945  0.9630  0.8702
   49MOL    H1117387   7.208   7.225   7.721 -0.0986 -0.1103  1.4413
   49MOL    H1217388   7.348   7.107   7.682  0.6360  0.9236 -0.3725
   49MOL    H1317389   7.288   7.204   0.124  0.7990  3.2709 -0.7641
   49MOL    H1417390   7.405   7.276   0.014  0.8134 -0.2867 -0.7691
   49MOL    H1517391   7.520   7.061   7.829 -0.3649 -0.2685 -1.2348
   49MOL    H1617392   7.414   6.984   0.101 -1.8302  0.9319  0.2742
   49MOL    H1717393   7.461   7.151   0.279 -1.3113  1.6523 -0.5573
   49MOL    H1817394   7.606   7.057   0.211  0.2773 -0.2566 -1.1472
   49MOL    H1917395   7.034   6.897   7.666 -0.2867  0.3779  0.0703
   49MOL    C2017396   7.636   7.328   0.279  0.5417 -0.0736 -0.0417
   49MOL    O2117397   7.618   7.303   0.396 -0.2864  0.1453 -0.2900
   49MOL    C2217398   7.713   7.457   0.233 -0.1630 -0.1002 -0.4191
   49MOL    C2317399   7.644   7.533   0.123 -0.5527  0.4632  0.3738
   49MOL    C2417400   7.542   7.640   0.172 -0.0847 -1.1120 -0.0455
   49MOL    C2517401   7.404   7.591   0.183  0.3506  0.0700 -0.1399
   49MOL    C2617402   7.307   7.706   0.239  0.3355  0.1513  0.0253
   49MOL    O2717403   7.181   7.641   0.277  0.1823  0.2474 -0.4560
   49MOL    H2817404   7.808   7.409   0.208  0.4417  0.8050  0.0901
   49MOL    H2917405   7.729   7.525   0.317 -0.9015  2.0207 -1.9740
   49MOL    H3017406   7.612   7.463   0.046  3.9524 -1.1192 -0.2276
   49MOL    H3117407   7.714   7.596   0.069 -0.7373  0.6446  0.3459
   49MOL    H3217408   7.541   7.725   0.105  0.4746 -0.5231  0.6880
   49MOL    H3317409   7.583   7.696   0.256  2.6195 -2.4293 -0.4205
   49MOL    H3417410   7.396   7.510   0.255 -1.3084  2.1970  2.1615
   49MOL    H3517411   7.359   7.554   0.091 -1.6036  1.2533  0.3050
   49MOL    H3617412   7.350   7.752   0.328  2.6278 -0.3183 -0.8317
   49MOL    H3717413   7.287   7.787   0.169 -2.2271  0.4832  1.0827
   49MOL    C3817414   7.088   7.715   0.353  0.2550  0.4483 -0.4984
   49MOL    O3917415   7.086   7.835   0.380  0.2121 -0.3479  0.4853
   49MOL    C4017416   6.962   7.636   0.387  0.9067 -0.2499  0.2388
   49MOL    C4117417   6.871   7.617   0.268 -0.5607 -0.2357 -0.6721
   49MOL    C4217418   6.921   7.508   0.164 -0.4606  0.8718  0.3758
   49MOL    C4317419   6.814   7.470   0.062 -0.4992 -0.8392 -0.5786
   49MOL    C4417420   6.858   7.337   7.842 -0.1933  0.0833  0.0373
   49MOL    O4517421   6.796   7.296   7.726  0.4791 -0.5382 -0.0200
   49MOL    H4617422   6.902   7.686   0.463 -1.3719 -1.6898 -0.5631
   49MOL    H4717423   6.975   7.540   0.437  0.1207  0.8777  2.7145
   49MOL    H4817424   6.850   7.713   0.219 -2.4119  1.2409  2.8725
   49MOL    H4917425   6.770   7.591   0.302 -0.2017 -1.2131 -0.3465
   49MOL    H5017426   6.949   7.416   0.215 -1.9697 -0.4279 -1.1001
   49MOL    H5117427   7.013   7.531   0.111 -0.2508 -1.9826 -0.5700
   49MOL    H5217428   6.811   7.556   7.840  0.7269  0.0311  0.4585
   49MOL    H5317429   6.719   7.464   0.116 -0.4177  0.0475 -0.3234
   49MOL    H5417430   6.958   7.353   7.802 -0.5411 -0.2844 -0.9911
   49MOL    H5517431   6.856   7.261   0.076 -0.9998 -0.1782 -0.2365
   49MOL    C5617432   6.668   7.264   7.719  0.6908  0.8724 -0.2864
   49MOL    O5717433   6.596   7.262   7.816 -0.8674  0.0120 -0.2603
   49MOL    C5817434   6.627   7.226   7.579  0.6152  0.0445  0.1847
   49MOL    C5917435   6.712   7.115   7.512 -0.1003  0.0232 -0.3367
   49MOL    C6017436   6.645   7.028   7.399  0.4806  0.0706 -0.9121
   49MOL    C6117437   6.727   6.910   7.350 -0.0159 -0.4917 -0.0637
   49MOL    C6217438   6.652   6.813   7.255 -0.0552  0.1041 -0.0099
   49MOL    O6317439   6.671   6.679   7.298  0.4838  0.0348 -0.1206
   49MOL    H6417440   6.611   7.314   7.516  1.2054 -1.4526 -2.1285
   49MOL    H6517441   6.524   7.194   7.591  0.4426  0.1578 -0.9246
   49MOL    H6617442   6.756   7.047   7.585 -0.5637 -0.1782 -0.2463
   49MOL    H6717443   6.804   7.158   7.472 -0.0062 -1.1233 -1.3771
   49MOL    H6817444   6.632   7.092   7.312 -0.1373 -1.1587 -1.7476
   49MOL    H6917445   6.546   6.995   7.432  2.4156 -1.6109  3.5817
   49MOL    H7017446   6.750   6.850   7.438  3.0134  1.6408  0.6681
   49MOL    H7117447   6.820   6.947   7.307  1.2413  0.4608  3.3359
   49MOL    H7217448   6.548   6.841   7.239 -0.9536 -2.1043  1.6670
   49MOL    H7317449   6.699   6.816   7.157  0.4439  1.4767  0.2709
   49MOL    C7417450   6.597   6.575   7.257  0.4290  0.2897 -0.5211
   49MOL    O7517451   6.515   6.581   7.162  0.2817  0.2643 -0.2932
   49MOL    C7617452   6.626   6.451   7.340 -0.0254  0.5555 -0.0021
   49MOL    C7717453   6.583   6.457   7.489 -0.5296 -0.1468 -0.1055
   49MOL    C7817454   6.437   6.483   7.523  0.0420 -0.3715  0.2220
   49MOL    C7917455   6.407   6.473   7.670 -0.6384  0.7776  0.6747
   49MOL    C8017456   6.253   6.503   7.710 -0.1302  0.0800  0.1202
   49MOL    O8117457   6.205   6.626   7.653 -0.0872 -0.1408  0.1709
   49MOL    H8217458   6.731   6.426   7.324 -0.0926  1.6341 -2.2884
   49MOL    H8317459   6.565   6.375   7.292  1.8469 -2.5537  2.3611
   49MOL    H8417460   6.644   6.527   7.546 -0.1200 -0.8143  0.2794
   49MOL    H8517461   6.607   6.364   7.541 -3.7187 -0.1829  1.4519
   49MOL    H8617462   6.375   6.416   7.463 -2.8175  0.7809  1.7439
   49MOL    H8717463   6.408   6.580   7.482  2.8346  0.3871 -0.0279
   49MOL    H8817464   6.472   6.539   7.728 -0.6960  0.9085  0.5900
   49MOL    H8917465   6.428   6.369   7.697  0.0390  0.7099 -0.1079
   49MOL    H9017466   6.175   6.430   7.687 -0.0658  0.1653 -0.3701
   49MOL    H9117467   6.255   6.509   7.819  0.4839 -1.4209  0.2023
   49MOL    C9217468   6.103   6.694   7.708  0.1439  1.0181 -0.8385
   49MOL    O9317469   6.039   6.655   7.809 -0.0923 -0.3818  0.0958
   49MOL    C9417470   6.088   6.840   7.663  0.3589  0.2709  0.7488
   49MOL    C9517471   6.097   6.847   7.513 -0.4125 -0.4721  0.8406
   49MOL    C9617472   6.103   6.992   7.463  0.4276  0.3787  0.0766
   49MOL    C9717473   6.104   7.012   7.306  0.6283 -0.2849  0.1675
   49MOL    C9817474   6.251   7.016   7.248  0.9390  0.2764 -0.7531
   49MOL    O9917475   6.252   7.002   7.106 -0.0968 -0.6493 -0.6599
   49MOL   H10017476   6.161   6.903   7.715  0.6927  2.4228 -2.2053
   49MOL   H10117477   5.985   6.872   7.679  0.3067  0.3264  0.2952
   49MOL   H10217478   6.005   6.807   7.471 -1.8923  0.6532  2.9368
   49MOL   H10317479   6.182   6.788   7.478  0.6567  0.2557  2.1563
   49MOL   H10417480   6.196   7.033   7.503 -0.3962  2.6418 -0.2555
   49MOL   H10517481   6.015   7.036   7.510  0.7461 -0.8397  1.8769
   49MOL   H10617482   6.059   7.108   7.278 -1.2184 -0.5800  1.9830
   49MOL   H10717483   6.036   6.943   7.256  0.2877 -1.0786  1.7023
   49MOL   H10817484   6.299   7.109   7.279 -0.8163  1.3342 -1.1184
   49MOL   H10917485   6.306   6.934   7.295  2.0671  3.8451  4.6480
   49MOL   C11017486   6.367   7.046   7.041 -0.8166  0.3874 -0.9800
   49MOL   O11117487   6.452   7.098   7.112  0.0460 -0.4509 -0.1470
   49MOL   C11217488   6.381   7.013   6.888 -0.2263  0.7808  0.2657
   49MOL   C11317489   6.499   7.097   6.823 -0.3201  0.4952 -0.4048
   49MOL   C11417490   6.521   7.072   6.668  0.0664 -0.5170 -0.2642
   49MOL   C11517491   6.385   7.085   6.584 -0.3238 -0.7056  0.2440
   49MOL   C11617492   6.425   7.078   6.435  0.3641  0.3723  0.2457
   49MOL   O11717493   6.311   7.126   6.360 -0.0724  0.0390 -0.1609
   49MOL   H11817494   6.288   7.032   6.836 -0.4384 -1.1593 -0.1139
   49MOL   H11917495   6.400   6.908   6.863 -0.7702  0.1669  2.3385
   49MOL   H12017496   6.589   7.076   6.880 -1.0233  1.6293  1.1649
   49MOL   H12117497   6.467   7.199   6.844 -0.7985 -0.0108  1.4398
   49MOL   H12217498   6.562   6.971   6.661 -2.9232 -1.7904 -0.2000
   49MOL   H12317499   6.584   7.153   6.632 -1.0219  0.2857 -0.3910
   49MOL   H12417500   6.343   7.183   6.605 -1.6029 -0.5529 -2.7510
   49MOL   H12517501   6.322   7.001   6.613  1.4508 -1.5281  1.8891
   49MOL   H12617502   6.508   7.142   6.406 -1.5932  1.7851 -2.5711
   49MOL   H12717503   6.454   6.978   6.401 -0.3271  0.2164  0.0910
   49MOL   C12817504   6.329   7.194   6.250  0.2712  0.0636 -0.0538
   49MOL   O12917505   6.438   7.216   6.201 -0.1238  0.1991  0.4023
   49MOL   C13017506   6.199   7.258   6.202 -0.3891  0.3779 -0.7725
   49MOL   C13117507   6.142   7.360   6.309  0.1670 -0.0223 -0.1373
   49MOL   C13217508   6.154   7.510   6.267 -0.0136  0.0954  0.0824
   49MOL   C13317509   6.089   7.616   6.361 -0.0019 -0.3065 -0.2432
   49MOL   C13417510   6.081   7.752   6.279 -0.2986 -0.0487  0.1342
   49MOL   O13517511   6.213   7.796   6.233 -0.2187 -0.2307 -0.3340
   49MOL   H13617512   6.124   7.189   6.163 -0.9751  0.8638 -0.5215
   49MOL   H13717513   6.226   7.314   6.112 -1.6396  1.8491 -0.2685
   49MOL   H13817514   6.186   7.347   6.408  2.2589 -2.7919 -1.3821
   49MOL   H13917515   6.035   7.346   6.330  0.4113  0.2134  1.2851
   49MOL   H14017516   6.101   7.505   6.172  1.6479 -2.1129 -0.7700
   49MOL   H14117517   6.261   7.530   6.262  0.3907 -1.8963  0.0941
   49MOL   H14217518   6.153   7.629   6.448  1.4683  0.1535 -1.3667
   49MOL   H14317519   5.992   7.581   6.396 -0.6864  0.5851 -1.2066
   49MOL   H14417520   6.012   7.741   6.196  1.7625 -0.1599 -1.5966
   49MOL   H14517521   6.051   7.820   6.359  0.8894 -3.3412  3.5338
   49MOL   C14617522   6.251   7.797   6.107  0.0851 -0.3982  0.5893
   49MOL   O14717523   6.182   7.760   6.011  0.0740  0.0995  0.0472
   49MOL   C14817524   6.393   0.010   6.083  0.2204 -0.1508  0.1978
   49MOL   C14917525   6.496   7.735   6.112 -0.5975  0.0953  0.1321
   49MOL   C15017526   6.480   7.614   6.013 -0.5392 -0.4501 -0.9051
   49MOL   C15117527   6.555   7.492   6.066 -0.1760 -0.0915  0.4968
   49MOL   C15217528   6.596   7.388   5.949 -0.1332  0.5416  0.3943
   49MOL   O15317529   6.706   7.449   5.875  0.4973  0.3981  0.2664
   49MOL   H15417530   6.404   0.097   6.146 -1.4339  1.1955 -1.3219
   49MOL   H15517531   6.419   0.062   5.990 -0.7245 -0.8426 -0.4651
   49MOL   H15617532   6.475   7.707   6.215 -2.2080  0.7447  0.0022
   49MOL   H15717533   6.598   7.772   6.116 -0.2273 -0.7259 -1.5889
   49MOL   H15817534   6.513   7.642   5.913  0.9671  0.9022 -0.0567
   49MOL   H15917535   6.377   7.579   6.008 -0.0985 -1.7674 -0.9682
   49MOL   H16017536   6.484   7.450   6.138  0.9775  0.6220  2.0834
   49MOL   H16117537   6.645   7.522   6.119  0.2923 -2.3407  1.0242
   49MOL   H16217538   6.616   7.297   6.005 -1.1975 -0.4142 -0.7595
   49MOL   H16317539   6.515   7.374   5.879 -0.6896  0.9453  0.9494
   49MOL   C16417540   6.774   7.387   5.783  0.6344 -0.0559  0.2946
   49MOL   O16517541   6.752   7.272   5.743  0.4507 -0.1381 -0.4562
   49MOL   C16617542   6.886   7.474   5.722 -0.1768  0.1347 -0.4307
   49MOL   C16717543   6.998   7.399   5.641 -0.7844 -0.5490  0.5468
   49MOL   C16817544   7.088   7.300   5.716  0.7417 -0.4316 -0.0827
   49MOL   C16917545   7.081   7.160   5.659  0.0148  0.3797  0.4171
   49MOL   C17017546   7.147   7.056   5.747 -0.2786  0.1250  0.1496
   49MOL   O17117547   7.277   7.090   5.791  0.7652  0.2050 -0.5937
   49MOL   H17217548   6.921   7.532   5.808 -0.2674 -0.5352  0.0650
   49MOL   H17317549   6.839   7.554   5.666 -0.8586  0.7978  1.0468
   49MOL   H17417550   7.068   7.472   5.600 -1.5286  0.7781  1.5711
   49MOL   H17517551   6.952   7.351   5.555 -0.2626 -0.1302  0.0328
   49MOL   H17617552   7.060   7.302   5.821 -0.3075 -1.9648 -0.3108
   49MOL   H17717553   7.191   7.334   5.709  0.1726  1.0779 -1.3272
   49MOL   H17817554   7.138   7.145   5.567 -1.2396 -0.2542 -0.2719
   49MOL   H17917555   6.980   7.129   5.633 -0.2284  0.9549  0.6680
   49MOL   H18017556   7.087   7.051   5.837 -0.0392 -1.2790  0.2451
   49MOL   H18117557   7.154   6.957   5.701 -0.2137  1.0616 -1.9126
   49MOL   C18217558   7.351   6.999   5.855 -0.3659 -0.6979  0.2032
   49MOL   O18317559   7.314   6.879   5.876  0.3090  0.1566 -0.0270
   49MOL   C18417560   7.478   7.067   5.911 -0.0744 -0.2673  0.5107
   49MOL   C18517561   7.593   6.982   5.936  0.6270 -0.7301 -0.2281
   49MOL   C18617562   7.718   7.059   5.995 -0.3003  0.4818 -0.3822
   49MOL   C18717563   7.824   6.978   6.075 -0.1356  0.7983  0.6536
   49MOL   C18817564   0.055   7.061   6.178 -0.6941  0.4023 -0.1139
   49MOL   O18917565   0.121   7.171   6.114  0.0495  0.0658 -0.0579
   49MOL   H19017566   7.446   7.114   6.003 -2.0476  0.7212 -0.6486
   49MOL   H19117567   7.502   7.150   5.845 -1.2450  0.1065  0.5519
   49MOL   H19217568   7.624   6.916   5.855 -3.2120 -2.4504 -0.3767
   49MOL   H19317569   7.556   6.913   6.012 -0.6161 -0.0812 -0.2205
   49MOL   H19417570   7.688   7.146   6.053  0.1585 -0.3057  1.0505
   49MOL   H19517571   7.776   7.099   5.912  1.9169 -2.0150 -0.1028
   49MOL   H19617572   0.042   6.925   6.003 -2.8194  1.6135 -2.3756
   49MOL   H19717573   7.771   6.900   6.129  1.3332  0.4385  1.6242
   49MOL   H19817574   7.841   7.091   6.265  2.3241 -0.5913  2.3622
   49MOL   H19917575   0.130   6.993   6.219 -1.8456  0.2140  1.7308
   49MOL   C20017576   0.156   7.269   6.193  0.3764  0.1926 -0.6035
   49MOL   O20117577   0.149   7.275   6.316  0.3058 -0.1676 -0.2628
   49MOL   C20217578   0.209   7.386   6.109  0.6465 -0.7313  0.7267
   49MOL   C20317579   0.215   7.521   6.187  0.1870  0.5763 -0.4526
   49MOL   C20417580   0.307   7.615   6.124  0.2785  0.1565  0.1361
   49MOL   C20517581   0.268   7.642   5.981 -0.1468  0.0791  0.1278
   49MOL   C20617582   0.324   7.767   5.920 -0.3758 -0.2921  0.0813
   49MOL   O20717583   0.295   7.771   5.781  0.1856  0.3133  0.0487
   49MOL   H20817584   0.138   7.401   6.027  2.1145 -0.0022 -0.4481
   49MOL   H20917585   0.310   7.367   6.072  0.8634  1.3321  0.1751
   49MOL   H21017586   0.238   7.498   6.290 -0.9162  1.9989  0.1344
   49MOL   H21117587   0.110   7.552   6.191  0.3849  1.3016 -0.7880
   49MOL   H21217588   0.412   7.588   6.129  0.4738  0.7827 -0.4318
   49MOL   H21317589   0.311   7.705   6.185  2.1249 -0.0971  0.4138
   49MOL   H21417590   0.160   7.655   5.969 -0.3614 -2.8160 -1.4677
   49MOL   H21517591   0.284   7.558   5.914 -1.2101 -0.1727  0.1683
   49MOL   H21617592   0.288   0.008   5.977  2.5991  0.1607  1.3763
   49MOL   H21717593   0.433   7.765   5.926 -0.3368  1.0797  0.0050
   49MOL   C21817594   0.331   0.039   5.716  0.0365 -0.0194 -0.3656
   49MOL   O21917595   0.388   0.130   5.770 -0.3897  0.1967 -0.1816
   49MOL   C22017596   0.305   0.029   5.568  0.2984  0.4234 -0.3833
   49MOL   C22117597   0.377   0.144   5.494  0.0674  0.3539  0.3817
   49MOL   C22217598   0.360   0.124   5.342 -0.6626  0.0867 -0.0089
   49MOL   C22317599   0.458   0.209   5.263 -0.7257 -0.3320 -0.2608
   49MOL   C22417600   0.489   0.153   5.130  0.7304  0.0506 -0.6608
   49MOL   O22517601   0.587   0.243   5.055 -0.7560 -0.3626 -0.1837
   49MOL   H22617602   0.198   0.028   5.545  0.0363 -1.6772  0.7920
   49MOL   H22717603   0.334   7.772   5.542 -4.1172 -1.0521 -0.0777
   49MOL   H22817604   0.483   0.139   5.518  0.2344 -2.0184 -0.6818
   49MOL   H22917605   0.339   0.242   5.522 -2.2611 -1.0285  2.3092
   49MOL   H23017606   0.257   0.146   5.314 -0.3316  1.5580 -0.0892
   49MOL   H23117607   0.354   0.018   5.316 -0.7998 -0.7355  3.1928
   49MOL   H23217608   0.555   0.225   5.309  0.0033  2.2193 -2.5682
   49MOL   H23317609   0.428   0.313   5.253  0.3738 -0.0738 -0.9196
   49MOL   H23417610   0.518   0.050   5.148  2.5210  0.6746  0.2424
   49MOL   H23517611   0.407   0.149   5.059  1.2164 -2.2724 -1.1429
   49MOL   C23617612   0.700   0.181   5.016  0.6087  0.0939 -0.4230
   49MOL   O23717613   0.709   0.056   5.011 -0.2541 -0.2190  0.1436
   49MOL   C23817614   0.819   0.275   4.999  0.2012 -0.2109  0.1532
   49MOL   C23917615   0.966   0.223   5.000 -0.3524  0.0155  0.2488
   49MOL   C24017616   1.012   0.215   5.143  0.0816 -0.4696 -0.4018
   49MOL   C24117617   1.161   0.182   5.153 -0.0659 -0.8608 -0.5384
   49MOL   C24217618   1.223   0.171   5.297 -1.0892 -0.1617 -0.7215
   49MOL   O24317619   1.205   0.293   5.365  0.7520  0.0106 -0.5410
   49MOL   H24417620   0.804   0.364   5.060 -1.4855 -1.4718  1.6454
   49MOL   H24517621   0.797   0.316   4.900 -0.5202 -1.9127 -0.4109
   49MOL   H24617622   1.020   0.296   4.939 -2.2864  1.6405  0.4188
   49MOL   H24717623   0.973   0.131   4.942  1.8010  1.2397 -1.5051
   49MOL   H24817624   0.962   0.132   5.192  1.0167 -1.2710 -0.7913
   49MOL   H24917625   0.989   0.310   5.191  1.2155 -0.3174 -0.1534
   49MOL   H25017626   1.214   0.258   5.095 -1.1688 -0.8796 -1.5759
   49MOL   H25117627   1.183   0.092   5.096  0.4769 -1.3560  0.4340
   49MOL   H25217628   1.196   0.078   5.349 -0.5978  1.0866  1.8833
   49MOL   H25317629   1.331   0.153   5.296 -0.7445  1.8639 -1.6822
   49MOL   C25417630   1.304   0.351   5.432  0.1882  0.1148 -0.3188
   49MOL   O25517631   1.410   0.292   5.458 -0.2088  0.1273  0.3285
   49MOL   C25617632   1.269   0.492   5.463  0.1765 -0.1692 -0.1080
   49MOL   C25717633   1.363   0.570   5.553 -0.0543  0.0163 -0.1328
   49MOL   C25817634   1.310   0.705   5.599  1.0270 -0.4366  0.0428
   49MOL   C25917635   1.310   0.809   5.492  0.2965  0.5224 -0.0579
   49MOL   C26017636   1.288   0.953   5.545 -0.7609  0.7051  0.8900
   49MOL   O26117637   1.398   0.995   5.624  0.1776 -0.2714 -0.9898
   49MOL   H26217638   1.175   0.490   5.518 -0.6671  2.9098 -1.3551
   49MOL   H26317639   1.274   0.545   5.368 -0.5413  0.9019  0.4430
   49MOL   H26417640   1.459   0.600   5.511 -0.5427 -1.2553 -2.2159
   49MOL   H26517641   1.380   0.515   5.645  0.4744 -0.5382 -0.5572
   49MOL   H26617642   1.381   0.742   5.673  1.2697  0.2952 -0.5489
   49MOL   H26717643   1.214   0.704   5.650  0.3250  2.2457 -1.1402
   49MOL   H26817644   1.235   0.778   5.420 -0.3578  0.6006  0.5852
   49MOL   H26917645   1.407   0.813   5.442  0.7066  3.6858  0.8704
   49MOL   H27017646   1.283   1.027   5.465 -2.9796  2.2982  2.4308
   49MOL   H27117647   1.193   0.967   5.598 -0.3680 -0.2210  1.8601
   49MOL   C27217648   1.507   1.033   5.574 -0.9779  0.0629  0.9018
   49MOL   O27317649   1.520   1.067   5.455 -0.6629  0.4898  0.0171
   49MOL   C27417650   1.616   1.052   5.676 -0.3449  0.0974 -1.0350
   49MOL   C27517651   1.675   1.189   5.662 -0.4749  0.0508  0.4335
   49MOL   C27617652   1.792   1.198   5.553 -0.0228 -0.0018  0.8458
   49MOL   C27717653   1.803   1.337   5.495  0.1548  0.6745 -0.3050
   49MOL   C27817654   1.926   1.362   5.414  0.4007  0.4874 -0.0294
   49MOL   O27917655   1.909   1.475   5.332 -0.0899  0.0717 -0.2383
   49MOL   H28017656   1.692   0.973   5.668  0.6997  1.0842 -0.9977
   49MOL   H28117657   1.570   1.046   5.774  1.6806 -0.1180 -0.0776
   49MOL   H28217658   1.727   1.207   5.756 -0.8698  0.1072  0.6435
   49MOL   H28317659   1.596   1.264   5.661 -0.4361  0.0826 -0.8636
   49MOL   H28417660   1.762   1.126   5.477  0.5907  1.1563 -0.5228
   49MOL   H28517661   1.887   1.157   5.587  0.6782  1.0538  0.1767
   49MOL   H28617662   1.801   1.418   5.569  2.1218  0.0285  0.5017
   49MOL   H28717663   1.721   1.362   5.429  0.9477 -1.6033 -2.2150
   49MOL   H28817664   2.010   1.360   5.483 -0.5749  1.0987  1.1861
   49MOL   H28917665   1.939   1.273   5.353  0.9994  0.8378 -0.4237
   49MOL   C29017666   2.000   1.502   5.237 -0.1744 -0.3531  0.3798
   49MOL   O29117667   2.094   1.429   5.207  0.0459 -0.4192  0.3864
   49MOL   C29217668   1.965   1.625   5.150  0.4367  0.3519 -0.1521
   49MOL   C29317669   2.021   1.626   4.998 -0.0012  0.5628 -0.7757
   49MOL   C29417670   1.983   1.496   4.908  0.6431  0.5512 -1.0938
   49MOL   C29517671   1.841   1.517   4.856  0.2951 -0.2567 -0.0074
   49MOL   C29617672   1.790   1.406   4.768  0.7071 -0.4128 -0.2280
   49MOL   O29717673   1.855   1.392   4.642 -0.1723 -0.1199 -0.0565
   49MOL   H29817674   2.008   1.709   5.205  1.7129 -1.2713  1.4006
   49MOL   H29917675   1.856   1.634   5.152  0.5744  2.3194  0.1493
   49MOL   H30017676   2.129   1.618   5.005 -0.3023 -3.8731  0.0415
   49MOL   H30117677   2.010   1.717   4.938  0.5677 -0.4954 -2.5106
   49MOL   H30217678   1.995   1.418   4.983  1.8744  0.2042 -1.6407
   49MOL   H30317679   2.058   1.478   4.832  3.2737  3.4323  0.6979
   49MOL   H30417680   1.828   1.613   4.806 -0.2758 -0.5364 -0.4011
   49MOL   H30517681   1.768   1.524   4.936 -1.2138  0.5941 -1.4309
   49MOL   H30617682   1.805   1.316   4.828  0.6099 -1.0174 -1.1043
   49MOL   H30717683   1.682   1.417   4.758  0.8196  1.1007  0.0911
   49MOL   C30817684   1.832   1.492   4.553  0.6103  1.0637  0.5621
   49MOL   O30917685   1.743   1.575   4.563  0.3626 -0.0753 -0.0239
   49MOL   C31017686   1.932   1.487   4.441  0.1872  0.3168 -0.3594
   49MOL   C31117687   1.897   1.372   4.337 -0.2058 -1.2145 -0.1514
   49MOL   C31217688   2.010   1.360   4.236  0.2423  0.4695 -0.0340
   49MOL   C31317689   1.976   1.247   4.137 -0.1796  0.1347  0.0505
   49MOL   C31417690   2.079   1.239   4.021  0.4013 -0.0755  0.8140
   49MOL   O31517691   2.034   1.153   3.923 -0.3211 -0.4901 -0.5896
   49MOL   H31617692   2.033   1.476   4.479  0.1749  1.2584 -0.0357
   49MOL   H31717693   1.925   1.589   4.402  1.8260 -0.3825 -2.5578
   49MOL   H31817694   1.803   1.407   4.293 -0.3355  1.3116  2.0013
   49MOL   H31917695   1.892   1.276   4.390  0.2831  0.0525  2.2788
   49MOL   H32017696   2.109   1.341   4.276  0.9376 -2.1031 -2.7324
   49MOL   H32117697   2.024   1.456   4.187  0.6909 -1.5504 -4.0867
   49MOL   H32217698   1.875   1.258   4.097  0.2388  0.3366 -0.9604
   49MOL   H32317699   1.965   1.149   4.183  0.6668 -1.0726 -2.2480
   49MOL   H32417700   2.092   1.340   3.982  3.3284 -0.6043  0.2900
   49MOL   H32517701   2.177   1.201   4.047 -0.1315 -2.4208 -0.4355
   49MOL   C32617702   2.084   1.164   3.796  0.1296 -0.3370  0.0028
   49MOL   O32717703   2.170   1.236   3.758  0.8919 -0.3561  0.4823
   49MOL   C32817704   2.012   1.068   3.701 -0.5204  0.3663 -0.1964
   49MOL   C32917705   1.999   0.927   3.760  0.8356  0.4793  0.1497
   49MOL   C33017706   2.130   0.851   3.804  0.5335 -0.8267  0.0330
   49MOL   C33117707   2.098   0.704   3.832 -0.0915  0.7491  0.0663
   49MOL   C33217708   1.993   0.680   3.943  0.1874 -0.1494  0.2906
   49MOL   O33317709   1.997   0.554   4.015  0.1754  0.5255  0.3892
   49MOL   H33417710   2.086   1.064   3.621 -1.5493  1.3851 -1.2069
   49MOL   H33517711   1.922   1.111   3.658  0.4126  2.1032 -0.4613
   49MOL   H33617712   1.948   0.865   3.686 -0.8855  1.8703  0.1073
   49MOL   H33717713   1.928   0.926   3.843  0.8975 -2.0227  0.1886
   49MOL   H33817714   2.161   0.904   3.894  1.0706 -0.6775 -0.2349
   49MOL   H33917715   2.204   0.864   3.725  0.6126 -0.2180  0.2094
   49MOL   H34017716   2.192   0.664   3.869 -1.6011  0.1125  3.4032
   49MOL   H34117717   2.075   0.647   3.742  0.6929  1.0812 -0.3446
   49MOL   H34217718   2.019   0.757   4.016  1.8234 -0.5060  0.1139
   49MOL   H34317719   1.894   0.716   3.916 -0.3947 -1.0241  1.2203
   49MOL   C34417720   2.065   0.540   4.129  0.0291 -0.2296 -0.5507
   49MOL   O34517721   2.122   0.629   4.194  0.2328  0.0950  0.3180
   49MOL   C34617722   2.079   0.397   4.183 -0.5136 -0.2625 -0.7516
   49MOL   C34717723   2.145   0.300   4.084 -0.5028  0.1771 -0.2264
   49MOL   C34817724   2.050   0.246   3.974  0.0532  0.2892  0.9804
   49MOL   C34917725   2.125   0.145   3.895 -0.5441  0.2608  0.0324
   49MOL   C35017726   2.040   0.103   3.780  0.4116  0.3690 -0.0221
   49MOL   O35117727   2.092   7.828   3.720 -0.2728  0.7968  0.2189
   49MOL   H35217728   1.993   0.346   4.226  0.7796 -0.8558  1.2306
   49MOL   H35317729   2.139   0.409   4.274 -3.8270  0.2180  1.4428
   49MOL   H35417730   2.190   0.210   4.124 -1.4402  0.2627  1.0388
   49MOL   H35517731   2.226   0.355   4.036 -1.7423  0.7904 -1.6712
   49MOL   H35617732   2.025   0.332   3.912 -1.1265 -0.3650  0.5429
   49MOL   H35717733   1.965   0.203   4.026 -0.3597 -0.4543 -0.2940
   49MOL   H35817734   2.156   0.061   3.957 -1.3752 -0.8900 -1.0897
   49MOL   H35917735   2.214   0.192   3.853 -1.0176  0.5071 -0.7048
   49MOL   H36017736   1.937   0.078   3.808  0.1760  1.2593 -0.0855
   49MOL   H36117737   2.030   0.187   3.711 -0.8278  1.7501  1.7874
   49MOL   H36217738   2.155   0.017   3.658  0.1810  0.0178  0.2540
   50MOL     C117739   7.703   3.891   5.565 -0.5432  0.3997  0.0857
   50MOL     O217740   7.665   3.774   5.574  0.2091 -0.0061 -0.1705
   50MOL     C317741   7.789   3.950   5.680 -0.4451 -0.6605 -0.4220
   50MOL     C417742   0.050   4.041   5.627 -0.8028  0.6775  0.2616
   50MOL     C517743   0.009   4.152   5.530  0.5259 -0.1347  0.1478
   50MOL     C617744   0.118   4.258   5.508 -0.1993 -0.0376  0.2012
   50MOL     C717745   0.090   4.353   5.381  0.0703 -0.1369 -0.3971
   50MOL     O817746   7.811   4.424   5.402 -0.1178 -0.0763 -0.1489
   50MOL     H917747   7.844   3.878   5.741 -1.9140 -1.2635  0.1965
   50MOL    H1017748   7.715   4.001   5.740 -0.1577  0.2502 -0.8295
   50MOL    H1117749   0.130   3.973   5.599 -2.6713 -1.7640  0.7666
   50MOL    H1217750   0.104   4.092   5.707  1.9772 -1.9953  0.1537
   50MOL    H1317751   7.760   4.200   5.561 -0.8633 -2.2956 -0.5763
   50MOL    H1417752   7.840   4.114   5.428  2.7824 -0.0377 -0.2010
   50MOL    H1517753   0.214   4.208   5.495  0.0041  0.7148 -1.3180
   50MOL    H1617754   0.125   4.325   5.594  1.3948  0.9701 -0.6935
   50MOL    H1717755   0.165   4.430   5.360  0.3814 -0.5502 -0.7905
   50MOL    H1817756   0.097   4.284   5.297 -2.6069  0.1789 -0.9318
   50MOL    H1917757   7.706   3.952   5.475  0.8110 -2.0506 -1.6143
   50MOL    C2017758   7.722   4.407   5.308  0.5880 -0.9264  0.6428
   50MOL    O2117759   7.737   4.346   5.203  0.3380  0.0789  0.1634
   50MOL    C2217760   7.586   4.473   5.330  0.3775 -0.4494 -0.0809
   50MOL    C2317761   7.573   4.615   5.384 -0.3047 -0.1738  0.4131
   50MOL    C2417762   7.478   4.696   5.289  0.7921  0.7912  0.2010
   50MOL    C2517763   7.440   4.833   5.355  0.0949  0.0906 -0.2208
   50MOL    C2617764   7.332   4.902   5.269  0.3702  0.0609 -0.2881
   50MOL    O2717765   7.208   4.836   5.294 -0.3924 -0.0576 -0.3160
   50MOL    H2817766   7.535   4.414   5.406  3.3645 -1.1737  1.3985
   50MOL    H2917767   7.534   4.462   5.234  0.3213  2.0029 -0.3684
   50MOL    H3017768   7.664   4.676   5.391 -0.1480 -0.3534 -0.0710
   50MOL    H3117769   7.538   4.609   5.487  0.7847 -1.2888  0.7373
   50MOL    H3217770   7.384   4.642   5.293  0.0732  2.0697  0.8513
   50MOL    H3317771   7.511   4.701   5.185 -0.6728 -1.4953 -0.4104
   50MOL    H3417772   7.537   4.882   5.361 -0.6752  2.0287 -2.8171
   50MOL    H3517773   7.405   4.830   5.458 -2.5039  0.7411 -1.0459
   50MOL    H3617774   7.318   5.007   5.293 -2.1928 -0.0169 -1.2530
   50MOL    H3717775   7.364   4.886   5.165  3.1279  1.0187  0.3561
   50MOL    C3817776   7.114   4.838   5.198 -0.7435 -0.0625  0.3786
   50MOL    O3917777   7.118   4.898   5.090 -0.3965  0.0612 -0.2587
   50MOL    C4017778   6.989   4.755   5.242  0.0661  0.1192 -0.2042
   50MOL    C4117779   6.994   4.610   5.196 -0.3724 -0.1721 -0.3807
   50MOL    C4217780   6.881   4.526   5.245  0.4372  0.8105  0.4529
   50MOL    C4317781   6.860   4.393   5.160  0.4322 -0.4133 -0.4809
   50MOL    C4417782   6.756   4.301   5.214  0.1456 -0.1054 -0.0028
   50MOL    O4517783   6.781   4.182   5.146  0.6227 -0.2042 -0.7427
   50MOL    H4617784   6.894   4.797   5.208 -0.7462  0.7512  2.7644
   50MOL    H4717785   6.980   4.769   5.349  1.2494  1.3124 -0.2520
   50MOL    H4817786   7.092   4.562   5.211 -0.9412 -1.1617  0.2638
   50MOL    H4917787   6.991   4.615   5.088 -0.0371  0.8583 -0.3502
   50MOL    H5017788   6.790   4.586   5.243 -0.3652 -0.4226 -2.4620
   50MOL    H5117789   6.893   4.503   5.351 -2.3130  0.0907  0.6386
   50MOL    H5217790   6.958   4.346   5.162  1.2256  1.2172 -0.0136
   50MOL    H5317791   6.844   4.422   5.056  1.3423 -4.1972 -1.7164
   50MOL    H5417792   6.764   4.279   5.320  1.0338 -0.7132 -0.1903
   50MOL    H5517793   6.653   4.335   5.200  0.0205 -0.5065 -0.0591
   50MOL    C5617794   6.834   4.073   5.208  0.4168  0.1652 -0.1047
   50MOL    O5717795   6.863   4.059   5.327  0.0998  0.0389  0.7197
   50MOL    C5817796   6.859   3.967   5.105 -0.1099 -0.2790 -0.3219
   50MOL    C5917797   6.943   4.018   4.990 -0.3586  0.2167  0.9322
   50MOL    C6017798   6.965   3.917   4.877 -0.9237 -0.0553  0.5391
   50MOL    C6117799   7.109   3.934   4.825 -0.6457 -0.6118  0.3639
   50MOL    C6217800   7.153   3.827   4.726  0.3579  0.8028 -0.2570
   50MOL    O6317801   7.286   3.851   4.672 -0.0208  0.6036  0.5019
   50MOL    H6417802   6.771   3.923   5.058 -0.1761  0.7752 -1.2223
   50MOL    H6517803   6.915   3.889   5.156  1.7738  1.4789  0.3932
   50MOL    H6617804   7.038   4.047   5.035  1.1504 -1.2158 -1.2221
   50MOL    H6717805   6.897   4.109   4.952 -1.1964 -0.2507  0.8200
   50MOL    H6817806   6.905   3.945   4.790  0.1398 -0.6844 -0.4009
   50MOL    H6917807   6.936   3.815   4.901 -2.3564  0.2989  0.4135
   50MOL    H7017808   7.186   3.942   4.902  0.1359  1.5562 -0.5956
   50MOL    H7117809   7.126   4.027   4.770 -0.4281 -1.7276 -1.4720
   50MOL    H7217810   7.168   3.730   4.772 -0.1566  1.3970  1.1800
   50MOL    H7317811   7.079   3.812   4.647  2.3003 -0.2056 -1.9397
   50MOL    C7417812   7.403   3.819   4.746  0.5691 -0.0450  0.1678
   50MOL    O7517813   7.403   3.790   4.867 -0.3401 -0.3547  0.6741
   50MOL    C7617814   7.536   3.835   4.661  0.5104  0.1264  0.4486
   50MOL    C7717815   7.517   3.743   4.543  0.4304  0.3920  0.4918
   50MOL    C7817816   7.631   3.753   4.444 -0.0235 -0.1634  0.0958
   50MOL    C7917817   7.600   3.688   4.310  0.1654  0.7957 -0.3737
   50MOL    C8017818   7.718   3.694   4.217 -1.0993  0.0968 -0.1714
   50MOL    O8117819   7.687   3.668   4.085  0.1387  0.0361 -0.0550
   50MOL    H8217820   7.628   3.833   4.719  1.2651 -0.3903 -0.7408
   50MOL    H8317821   7.514   3.932   4.616 -3.1471 -0.9175 -0.1724
   50MOL    H8417822   7.431   3.779   4.486  1.4085 -0.8768 -1.8862
   50MOL    H8517823   7.493   3.644   4.580  0.1792 -0.3986 -1.6765
   50MOL    H8617824   7.723   3.721   4.491  1.2052  0.8607 -1.5587
   50MOL    H8717825   7.648   3.858   4.420  2.1319 -0.1412  1.6270
   50MOL    H8817826   7.521   3.747   4.263  0.6195  1.0710 -0.7993
   50MOL    H8917827   7.568   3.585   4.329 -0.0542  0.9823  0.3032
   50MOL    H9017828   7.775   3.788   4.217  3.2011 -2.3872 -0.3657
   50MOL    H9117829   7.788   3.617   4.250 -1.4986  0.6971  2.1665
   50MOL    C9217830   7.643   3.766   4.000  0.0169 -0.3796  0.0936
   50MOL    O9317831   7.631   3.881   4.040  0.3746 -0.2374  0.2834
   50MOL    C9417832   7.610   3.724   3.858 -0.1303 -0.2020  0.2070
   50MOL    C9517833   7.735   3.723   3.767  0.8201  0.2007 -0.3738
   50MOL    C9617834   7.766   3.849   3.681  0.2043  0.2041 -0.1467
   50MOL    C9717835   0.064   3.849   3.614 -0.2986  0.4609 -0.2507
   50MOL    C9817836   0.090   3.978   3.537 -0.4862  0.1609 -0.5951
   50MOL    O9917837   0.080   4.099   3.611  0.6233 -0.3548 -0.7520
   50MOL   H10017838   7.538   3.800   3.827 -0.5553 -0.5284  0.3985
   50MOL   H10117839   7.558   3.628   3.861  2.3516 -1.6094 -0.3898
   50MOL   H10217840   7.731   3.644   3.692 -1.0189 -1.0751  1.0281
   50MOL   H10317841   7.829   3.720   3.821  1.6105 -1.9465 -1.7961
   50MOL   H10417842   7.762   3.930   3.753  1.2684 -0.7944  1.0681
   50MOL   H10517843   7.685   3.871   3.612 -0.3678 -0.8653  0.1766
   50MOL   H10617844   0.081   3.765   3.546  0.6272 -0.7495  1.4318
   50MOL   H10717845   0.130   3.853   3.700 -0.1675 -1.0770 -0.2601
   50MOL   H10817846   0.187   3.954   3.496  0.9726  0.2871  2.6448
   50MOL   H10917847   0.013   3.985   3.460  0.8414  1.9411 -1.8083
   50MOL   C11017848   0.187   4.156   3.659  0.2452 -0.0668 -0.4192
   50MOL   O11117849   0.297   4.125   3.622 -0.0777  0.6894 -0.2130
   50MOL   C11217850   0.151   4.263   3.767 -0.0580 -0.1932 -0.5170
   50MOL   C11317851   0.113   4.404   3.706 -0.7522  0.3497 -0.6445
   50MOL   C11417852   7.831   4.412   3.621 -0.5463  0.6716  0.1662
   50MOL   C11517853   7.788   4.547   3.574 -0.0244  0.5292  0.1564
   50MOL   C11617854   7.645   4.559   3.519 -0.6184 -0.5056  1.0138
   50MOL   O11717855   7.604   4.690   3.476 -0.6489  0.4631 -0.1045
   50MOL   H11817856   0.236   4.266   3.836  0.2765 -1.0070 -0.8864
   50MOL   H11917857   0.066   4.234   3.829 -0.4248 -3.6431 -2.5359
   50MOL   H12017858   0.196   4.442   3.646 -0.6836  1.0508 -0.1120
   50MOL   H12117859   0.101   4.477   3.786 -1.6353 -0.3985 -0.0941
   50MOL   H12217860   7.749   4.366   3.677 -0.0504 -0.7269 -0.2565
   50MOL   H12317861   7.834   4.349   3.532  0.0077  0.2402  0.4866
   50MOL   H12417862   0.018   4.586   3.505  1.2702 -1.5004  0.3639
   50MOL   H12517863   7.789   4.617   3.658 -0.3464 -1.1085  1.5615
   50MOL   H12617864   7.618   4.490   3.439 -1.1966 -0.0883  0.8464
   50MOL   H12717865   7.579   4.546   3.605 -2.6289  1.3226 -0.1771
   50MOL   C12817866   7.616   4.715   3.344  0.8801  0.1080 -0.5181
   50MOL   O12917867   7.676   4.648   3.261  0.0528 -0.0248  0.1963
   50MOL   C13017868   7.554   4.847   3.300  0.1330 -0.2161 -0.6044
   50MOL   C13117869   7.406   4.847   3.349  0.4351 -0.7482  0.2127
   50MOL   C13217870   7.346   4.991   3.335 -0.5519 -0.4718  0.1772
   50MOL   C13317871   7.190   4.989   3.322 -0.0169 -0.0331 -0.3287
   50MOL   C13417872   7.138   5.111   3.257 -0.4585  0.8532 -0.5896
   50MOL   O13517873   7.172   5.224   3.336  0.6781 -0.1591  0.4640
   50MOL   H13617874   7.566   4.852   3.192 -0.0808 -1.7167 -0.7104
   50MOL   H13717875   7.616   4.930   3.334  1.2371 -1.1033 -0.4263
   50MOL   H13817876   7.387   4.819   3.452  0.1472  2.8466  1.1962
   50MOL   H13917877   7.357   4.769   3.290  1.0848 -0.2386 -1.0272
   50MOL   H14017878   7.386   5.025   3.240 -0.4657 -2.6055 -0.5682
   50MOL   H14117879   7.378   5.063   3.411 -0.8981  0.6779 -0.7472
   50MOL   H14217880   7.157   4.971   3.424 -0.1388  0.1975 -0.3292
   50MOL   H14317881   7.153   4.909   3.259  0.8147 -0.4940 -0.2414
   50MOL   H14417882   7.190   5.123   3.162  0.8746  0.9982  0.1494
   50MOL   H14517883   7.032   5.108   3.234 -0.9405 -1.6443  1.7473
   50MOL   C14617884   7.078   5.304   3.376  0.0406 -0.0836  0.4153
   50MOL   O14717885   6.955   5.293   3.379 -0.2550 -0.0549 -0.6482
   50MOL   C14817886   7.141   5.429   3.430 -0.4006 -0.2401 -0.3114
   50MOL   C14917887   7.160   5.544   3.326  0.2133  0.2981 -0.9118
   50MOL   C15017888   7.025   5.604   3.287 -0.0857 -0.5371  0.7672
   50MOL   C15117889   7.035   5.728   3.202 -0.9264 -0.2159  0.4599
   50MOL   C15217890   6.913   5.813   3.174  0.3511  0.0863 -0.0500
   50MOL   O15317891   6.958   5.923   3.089 -0.0662 -1.0359  0.3475
   50MOL   H15417892   7.239   5.411   3.472 -0.3952 -0.8795 -0.5969
   50MOL   H15517893   7.087   5.464   3.519 -1.1403 -0.2388 -0.7550
   50MOL   H15617894   7.227   5.514   3.244  4.5592  1.5700  2.0026
   50MOL   H15717895   7.218   5.618   3.382 -2.1627  0.6494  1.1673
   50MOL   H15817896   6.969   5.630   3.377 -0.9697 -1.6673  0.5664
   50MOL   H15917897   6.964   5.530   3.234  1.6484 -1.8259  0.5133
   50MOL   H16017898   7.079   5.695   3.108  2.6081  0.6213  1.7292
   50MOL   H16117899   7.112   5.797   3.238  1.1691 -1.8061 -0.8729
   50MOL   H16217900   6.835   5.758   3.124 -0.4873  2.6506 -1.6795
   50MOL   H16317901   6.875   5.865   3.262  0.1215  2.8006 -1.6912
   50MOL   C16417902   6.888   5.950   2.972  0.4239 -0.1057 -0.1143
   50MOL   O16517903   6.785   5.892   2.943 -0.2420  0.1586  0.1324
   50MOL   C16617904   6.957   6.056   2.887 -0.2819  0.5421 -0.6727
   50MOL   C16717905   7.066   5.999   2.785  0.3835 -0.2819 -0.6437
   50MOL   C16817906   7.106   6.094   2.665  0.7395 -0.1475 -0.3382
   50MOL   C16917907   7.231   6.060   2.583  0.2157 -0.1724 -0.0838
   50MOL   C17017908   7.261   6.174   2.484  0.7353 -0.4464  0.6906
   50MOL   O17117909   7.375   6.161   2.407 -0.3099  0.0405  0.2187
   50MOL   H17217910   7.014   6.134   2.937  3.2096 -0.3217 -3.0818
   50MOL   H17317911   6.883   6.088   2.812 -0.1480 -1.2098 -1.5814
   50MOL   H17417912   7.006   5.919   2.741 -1.5466  1.5394 -1.4802
   50MOL   H17517913   7.154   5.967   2.839 -0.5062 -0.5330  0.6870
   50MOL   H17617914   7.122   6.190   2.713 -2.5180 -0.2751  1.1465
   50MOL   H17717915   7.021   6.100   2.597  0.9956 -1.8812 -0.8385
   50MOL   H17817916   7.219   5.964   2.532 -0.1390  0.7629 -1.7933
   50MOL   H17917917   7.312   6.050   2.656 -0.0784 -2.2159  0.0055
   50MOL   H18017918   7.178   6.178   2.414 -0.0065  1.4711  1.6405
   50MOL   H18117919   7.271   6.273   2.528  0.2437  0.0186 -0.2400
   50MOL   C18217920   7.385   6.104   2.286 -0.2228 -0.5908 -0.1384
   50MOL   O18317921   7.295   6.060   2.219 -0.2097  0.3631 -0.5294
   50MOL   C18417922   7.530   6.090   2.232 -0.1132  0.1341 -0.8869
   50MOL   C18517923   7.618   5.993   2.303 -0.0255 -0.2546 -0.6462
   50MOL   C18617924   7.707   6.045   2.421  0.2482 -0.0330  0.2857
   50MOL   C18717925   7.815   5.940   2.467 -0.7631 -0.1166 -0.7345
   50MOL   C18817926   0.073   5.986   2.570 -0.3359 -0.4046 -0.2345
   50MOL   O18917927   0.020   6.021   2.695  0.5511 -0.6035 -0.0931
   50MOL   H19017928   7.584   6.184   2.224 -0.2351  0.2325 -0.5494
   50MOL   H19117929   7.528   6.074   2.124 -1.4508 -1.0870 -0.6975
   50MOL   H19217930   7.689   5.951   2.232  1.0381  0.9082 -0.2876
   50MOL   H19317931   7.559   5.908   2.338  0.6990 -1.1994 -1.6795
   50MOL   H19417932   7.651   6.079   2.509 -2.4906 -0.2873 -1.2863
   50MOL   H19517933   7.746   6.140   2.385 -0.0321  0.3531  0.9885
   50MOL   H19617934   0.018   5.914   2.373 -1.4733 -0.3865 -1.0234
   50MOL   H19717935   7.765   5.846   2.487 -2.6168  1.0284  0.1261
   50MOL   H19817936   0.147   5.905   2.571  1.1721  0.9622 -0.0659
   50MOL   H19917937   0.119   6.071   2.520 -0.2118  0.6724  1.6752
   50MOL   C20017938   0.001   5.929   2.780 -0.6291 -0.5103 -0.0348
   50MOL   O20117939   0.041   5.811   2.775 -1.0536 -0.0367  0.3609
   50MOL   C20217940   7.759   5.972   2.904 -0.1353  0.4766 -0.6275
   50MOL   C20317941   7.817   6.086   2.984 -0.3541  0.0558 -0.3063
   50MOL   C20417942   0.105   6.053   3.054 -0.1633 -0.4503  0.2939
   50MOL   C20517943   0.159   6.168   3.139  0.2083 -0.3033  0.2436
   50MOL   C20617944   0.305   6.153   3.183 -0.6800 -0.2203 -0.1925
   50MOL   O20717945   0.391   6.124   3.072 -0.0992 -0.5013 -0.1545
   50MOL   H20817946   7.755   5.885   2.970  1.5193  0.9779  0.1539
   50MOL   H20917947   7.657   5.988   2.868 -0.8866  0.2113  1.3169
   50MOL   H21017948   7.742   6.104   3.061  0.6127  2.0607  0.2017
   50MOL   H21117949   7.827   6.178   2.926 -0.0160 -0.9739 -1.8879
   50MOL   H21217950   0.184   6.019   2.988 -0.3564 -1.8364  0.7485
   50MOL   H21317951   0.095   5.965   3.119  0.2675  0.4372  1.5877
   50MOL   H21417952   0.103   6.190   3.230  0.6539  0.9295  0.2245
   50MOL   H21517953   0.165   6.254   3.073 -0.4764 -1.3378 -1.2069
   50MOL   H21617954   0.358   6.237   3.229 -0.3790 -0.0732 -0.8000
   50MOL   H21717955   0.314   6.062   3.243 -0.0200  0.1036  0.2150
   50MOL   C21817956   0.452   6.006   3.052  0.2690  0.3778  0.5304
   50MOL   O21917957   0.422   5.904   3.114  0.1262  0.6562  0.1904
   50MOL   C22017958   0.558   6.014   2.939  0.1232 -0.3478  0.1150
   50MOL   C22117959   0.485   6.017   2.806 -0.0148  0.0098 -0.1989
   50MOL   C22217960   0.584   5.975   2.689 -0.1703 -0.6674 -0.0180
   50MOL   C22317961   0.524   5.974   2.553 -0.1290 -0.6659  0.0789
   50MOL   C22417962   0.613   5.887   2.461  0.1038  0.2818 -0.0191
   50MOL   O22517963   0.547   5.863   2.331  0.4823 -0.4923  0.1175
   50MOL   H22617964   0.615   5.923   2.959 -1.0593 -1.0960  0.1632
   50MOL   H22717965   0.632   6.094   2.945 -0.6195  0.4303 -0.8575
   50MOL   H22817966   0.452   6.118   2.782 -0.6540  0.2318  1.5357
   50MOL   H22917967   0.398   5.951   2.800  0.2345 -0.3048 -0.3572
   50MOL   H23017968   0.616   5.871   2.703 -0.0988 -0.9664 -2.2512
   50MOL   H23117969   0.669   6.043   2.684 -1.3242  0.9581  1.6488
   50MOL   H23217970   0.526   6.074   2.511  0.4563 -0.8538 -0.3393
   50MOL   H23317971   0.419   5.944   2.562  0.0241 -0.6245  2.4172
   50MOL   H23417972   0.707   5.938   2.442 -0.3060 -0.1574 -3.4424
   50MOL   H23517973   0.643   5.789   2.497 -1.1708 -0.7766 -1.7764
   50MOL   C23617974   0.583   5.942   2.225  0.4901 -0.7486 -0.0071
   50MOL   O23717975   0.674   6.036   2.225 -0.1708  0.1720  0.6376
   50MOL   C23817976   0.515   5.900   2.090  0.1947  0.0103 -0.1599
   50MOL   C23917977   0.541   5.967   1.947  0.5460 -0.3092  0.8147
   50MOL   C24017978   0.693   5.988   1.915 -0.0607 -0.3401 -0.3886
   50MOL   C24117979   0.720   6.042   1.772  0.4490 -0.0250  0.7301
   50MOL   C24217980   0.865   6.058   1.722  0.5877 -0.4936  0.3363
   50MOL   O24317981   0.924   5.953   1.658 -0.0184 -0.5004 -0.0904
   50MOL   H24417982   0.410   5.894   2.120  0.6285  1.2141  1.6642
   50MOL   H24517983   0.545   5.795   2.085  2.8013  0.5250  2.9826
   50MOL   H24617984   0.492   6.064   1.936 -1.3414 -1.3931 -0.7223
   50MOL   H24717985   0.500   5.899   1.872 -0.8923  0.0572  1.2463
   50MOL   H24817986   0.748   5.896   1.933  0.3798  0.2645  1.4569
   50MOL   H24917987   0.745   6.054   1.985 -1.0454 -1.2753  1.2363
   50MOL   H25017988   0.673   6.140   1.772  0.7146  0.1050  0.2792
   50MOL   H25117989   0.657   5.980   1.707 -0.3608 -0.2421  1.7063
   50MOL   H25217990   0.849   6.130   1.642 -0.5585  0.2837  1.2424
   50MOL   H25317991   0.940   6.106   1.786 -0.3554  0.8778  0.4305
   50MOL   C25417992   0.945   5.938   1.523  0.2265  0.0298 -0.2033
   50MOL   O25517993   0.894   6.006   1.435 -0.3282  0.3965  0.1685
   50MOL   C25617994   1.032   5.820   1.489 -0.1162 -0.2922 -0.3765
   50MOL   C25717995   1.183   5.855   1.510  0.4252  0.1459 -0.0498
   50MOL   C25817996   1.274   5.730   1.502 -0.5144 -0.1885 -0.1301
   50MOL   C25917997   1.424   5.773   1.516  0.3661  0.1464  0.2581
   50MOL   C26017998   1.518   5.648   1.495 -0.0489  0.7975  0.2716
   50MOL   O26117999   1.503   5.546   1.596 -0.2896  0.0278  0.0806
   50MOL   H26218000   1.010   5.807   1.383 -0.2708 -0.5710 -0.3123
   50MOL   H26318001   0.995   5.733   1.544 -1.2130  0.8438  0.7129
   50MOL   H26418002   1.191   5.875   1.617 -0.0996 -0.3802  0.0922
   50MOL   H26518003   1.221   5.932   1.443  0.4010 -0.3111 -0.5935
   50MOL   H26618004   1.274   5.681   1.405 -0.3563 -1.6917  0.6066
   50MOL   H26718005   1.250   5.655   1.578  0.5592 -0.1741  0.2279
   50MOL   H26818006   1.433   5.820   1.614 -0.0461 -1.7271  1.2173
   50MOL   H26918007   1.456   5.851   1.446  0.8332 -0.5526 -0.3137
   50MOL   H27018008   1.509   5.608   1.395 -0.3465 -1.9262  1.3449
   50MOL   H27118009   1.620   5.686   1.497  0.4286 -0.4875  2.1299
   50MOL   C27218010   1.475   5.421   1.550 -0.2756 -0.0222 -0.2640
   50MOL   O27318011   1.494   5.376   1.437  0.6363 -0.3856  0.5058
   50MOL   C27418012   1.428   5.330   1.668  0.0556  0.7033  0.0564
   50MOL   C27518013   1.304   5.382   1.748 -0.0316  0.2114  0.0709
   50MOL   C27618014   1.173   5.371   1.671 -0.4701  0.2560  0.6326
   50MOL   C27718015   1.060   5.405   1.766  0.5961  0.6468  0.3018
   50MOL   C27818016   0.923   5.412   1.706  0.2212  0.6419 -0.6975
   50MOL   O27918017   0.822   5.429   1.800  0.6021  0.4031  0.0151
   50MOL   H28018018   1.514   5.319   1.735  0.0982  0.3728 -0.0480
   50MOL   H28118019   1.417   5.229   1.628  0.7595  0.9844 -0.8654
   50MOL   H28218020   1.331   5.485   1.767  2.7546 -0.6887  1.2872
   50MOL   H28318021   1.289   5.341   1.848  1.3317  0.9215  0.5771
   50MOL   H28418022   1.163   5.274   1.624  2.5317  0.3155 -0.2460
   50MOL   H28518023   1.172   5.429   1.579  2.8464 -2.0970 -0.9815
   50MOL   H28618024   1.081   5.498   1.820  1.1355  2.4107 -2.8341
   50MOL   H28718025   1.047   5.329   1.843  1.3946 -0.2340 -0.4328
   50MOL   H28818026   0.916   5.496   1.636  0.3508  0.9361 -0.3566
   50MOL   H28918027   0.909   5.327   1.639  0.3394  0.2777 -0.2589
   50MOL   C29018028   0.779   5.546   1.842 -0.2490 -0.5762  0.6785
   50MOL   O29118029   0.833   5.656   1.810  0.4010  0.2039  0.3753
   50MOL   C29218030   0.649   5.535   1.931 -0.5202  0.4523 -0.3236
   50MOL   C29318031   0.530   5.495   1.838 -0.6095 -0.2190  0.4981
   50MOL   C29418032   0.392   5.477   1.899  0.5207 -0.0936 -0.4003
   50MOL   C29518033   0.282   5.437   1.792  0.4534 -0.1762 -0.2699
   50MOL   C29618034   0.139   5.451   1.836  0.6827  0.9544  0.6537
   50MOL   O29718035   0.100   5.382   1.952 -0.3605 -0.5965 -0.3578
   50MOL   H29818036   0.629   5.634   1.970 -0.5857  0.1156  0.5168
   50MOL   H29918037   0.657   5.458   2.009 -1.8637 -1.4959 -2.0463
   50MOL   H30018038   0.556   5.406   1.781 -1.3248 -0.4286  0.4902
   50MOL   H30118039   0.524   5.575   1.765  2.6727  0.9939  1.4709
   50MOL   H30218040   0.371   5.581   1.925  1.3371 -0.0464  0.0800
   50MOL   H30318041   0.374   5.408   1.981 -0.1679  0.0559 -0.4208
   50MOL   H30418042   0.303   5.339   1.750  1.9941 -0.1399  0.3847
   50MOL   H30518043   0.306   5.501   1.707  1.4556  0.5420  0.5342
   50MOL   H30618044   0.106   5.551   1.864 -1.0405  0.0562  1.9008
   50MOL   H30718045   0.078   5.433   1.748  0.1537 -0.5889  1.3214
   50MOL   C30818046   0.096   5.249   1.951  0.5610 -0.8242  0.2222
   50MOL   O30918047   0.101   5.191   1.845  0.3762  0.4825  0.1153
   50MOL   C31018048   0.079   5.180   2.082 -0.3957 -0.3111 -0.1167
   50MOL   C31118049   7.823   5.071   2.087  0.8632 -0.3243 -0.4012
   50MOL   C31218050   7.677   5.120   2.096 -0.1665 -0.1028  0.9808
   50MOL   C31318051   7.657   5.197   2.226  0.0389 -0.2399 -0.0906
   50MOL   C31418052   7.503   5.216   2.262  0.7956 -0.0232 -0.0629
   50MOL   O31518053   7.496   5.279   2.386 -0.4147 -0.1179  0.1248
   50MOL   H31618054   0.047   5.260   2.148 -1.6897  1.2976 -2.6305
   50MOL   H31718055   0.180   5.150   2.110  0.0888  0.7814 -0.6904
   50MOL   H31818056   7.841   5.003   2.171 -2.1095 -1.2441 -0.4273
   50MOL   H31918057   7.827   5.001   2.003  1.3469  1.0743 -1.5467
   50MOL   H32018058   7.605   5.038   2.090 -1.5100  1.1819 -1.1345
   50MOL   H32118059   7.661   5.177   2.004  1.7874 -0.7758  0.2071
   50MOL   H32218060   7.715   5.290   2.221  1.4766 -0.9673  2.0852
   50MOL   H32318061   7.700   5.133   2.303 -0.6452 -1.4894 -0.7453
   50MOL   H32418062   7.450   5.268   2.182  0.4897  1.3199  1.0007
   50MOL   H32518063   7.459   5.116   2.269  0.3531  0.0548 -1.4317
   50MOL   C32618064   7.522   5.409   2.406 -0.1431  0.1491  0.1073
   50MOL   O32718065   7.567   5.488   2.327  0.0152  0.2311  0.2993
   50MOL   C32818066   7.502   5.458   2.547  0.5761  0.3912 -0.3200
   50MOL   C32918067   7.624   5.443   2.644  0.3156 -0.8615 -0.3825
   50MOL   C33018068   7.765   5.484   2.597 -0.2520 -0.4609 -0.6698
   50MOL   C33118069   0.017   5.473   2.715 -0.4015 -0.2876 -0.1181
   50MOL   C33218070   0.154   5.516   2.662 -0.9800  0.0347 -0.0194
   50MOL   O33318071   0.261   5.545   2.751 -0.5475 -0.9200  0.4225
   50MOL   H33418072   7.417   5.414   2.599  2.4867  1.2479  3.6982
   50MOL   H33518073   7.473   5.563   2.546 -1.6023 -0.1963 -0.7628
   50MOL   H33618074   7.641   5.341   2.680  0.8953  0.1821  2.3478
   50MOL   H33718075   7.590   5.490   2.736  2.1819 -1.5572  0.6682
   50MOL   H33818076   7.755   5.586   2.560  1.1705 -0.7487 -1.9110
   50MOL   H33918077   7.809   5.420   2.520  0.6303 -2.0861  1.1410
   50MOL   H34018078   0.016   5.370   2.749  0.4673 -0.1158  0.4386
   50MOL   H34118079   7.826   5.535   2.797  3.2219  2.8095 -0.7187
   50MOL   H34218080   0.198   5.442   2.595  1.1342 -1.6516  3.0885
   50MOL   H34318081   0.138   5.605   2.601 -0.0430 -0.9104 -1.6739
   50MOL   C34418082   0.342   5.645   2.726 -0.1205 -0.6314 -0.2282
   50MOL   O34518083   0.343   5.721   2.630  0.2257  0.1054  0.4076
   50MOL   C34618084   0.440   5.662   2.843 -0.4225  0.2306  0.1400
   50MOL   C34718085   0.506   5.533   2.892  0.5358 -0.2645  0.5215
   50MOL   C34818086   0.595   5.463   2.786 -0.8825 -0.0472  0.8473
   50MOL   C34918087   0.689   5.356   2.829 -0.3770  0.2264  0.0364
   50MOL   C35018088   0.773   5.296   2.714  0.3590 -0.1290 -0.2836
   50MOL   O35118089   0.681   5.219   2.637  0.1699  0.0437  0.2308
   50MOL   H35218090   0.388   5.715   2.923 -2.1091 -2.6911  1.0766
   50MOL   H35318091   0.516   5.739   2.830 -0.5221  0.2423 -0.3990
   50MOL   H35418092   0.437   5.458   2.930 -0.2290  1.0920  1.8678
   50MOL   H35518093   0.566   5.555   2.980  0.6791  0.9784  0.1245
   50MOL   H35618094   0.648   5.535   2.724  0.0187 -2.3076 -1.0903
   50MOL   H35718095   0.526   5.422   2.714  0.7837 -2.6853  0.6949
   50MOL   H35818096   0.633   5.284   2.887 -0.8933 -0.3239 -1.1306
   50MOL   H35918097   0.746   5.398   2.912 -1.3825 -2.4422  2.1257
   50MOL   H36018098   0.821   5.381   2.667  1.3211 -0.4755  0.0606
   50MOL   H36118099   0.855   5.229   2.740 -0.2545 -0.4474  0.8862
   50MOL   H36218100   0.620   5.280   2.600 -0.6121 -0.7328  0.2183
   51MOL     C118101   6.909   0.772   7.525  0.5863 -0.2070 -0.1657
   51MOL     O218102   6.819   0.762   7.441  0.3809  0.2588 -0.1474
   51MOL     C318103   7.031   0.683   7.529 -0.2659  0.3300  0.1854
   51MOL     C418104   6.990   0.543   7.479 -0.3432 -0.5065 -0.0470
   51MOL     C518105   7.109   0.450   7.466  0.8848 -0.2770  0.7462
   51MOL     C618106   7.073   0.298   7.431 -0.6944  0.2175 -0.5691
   51MOL     C718107   7.199   0.202   7.417  0.2476 -0.3512  0.3575
   51MOL     O818108   7.258   0.175   7.539 -0.0858  0.3488  0.1756
   51MOL     H918109   7.087   0.673   7.622 -0.1400 -0.4914  0.0241
   51MOL    H1018110   7.104   0.719   7.456  1.1453 -0.8046  1.0124
   51MOL    H1118111   6.941   0.555   7.382  2.5597  1.0328 -1.4000
   51MOL    H1218112   6.908   0.502   7.538  0.4106 -1.5806  0.2558
   51MOL    H1318113   7.162   0.453   7.561 -0.2732  1.3509  1.3679
   51MOL    H1418114   7.177   0.493   7.393  0.5812 -0.7664  0.1662
   51MOL    H1518115   7.011   0.286   7.342 -2.6938 -0.9092  0.9575
   51MOL    H1618116   7.020   0.244   7.509  1.7792 -0.6651  0.5741
   51MOL    H1718117   7.172   0.103   7.380 -0.0903  0.4355 -1.5479
   51MOL    H1818118   7.266   0.250   7.346  1.4253  0.2929  1.8816
   51MOL    H1918119   6.917   0.857   7.592 -0.9841  0.4207 -0.7395
   51MOL    C2018120   7.380   0.234   7.566 -0.6427 -0.0249 -0.0278
   51MOL    O2118121   7.438   0.313   7.492 -0.1093  0.6852  0.1344
   51MOL    C2218122   7.448   0.188   7.697  0.0416 -0.5067 -0.4715
   51MOL    C2318123   7.565   0.086   7.674 -0.1689 -0.0946 -0.1858
   51MOL    C2418124   7.508   7.789   7.644 -0.2072 -0.2537  0.5137
   51MOL    C2518125   7.628   7.694   7.642 -0.3833 -1.0456  0.1573
   51MOL    C2618126   7.595   7.562   7.588 -0.4903 -0.3495 -0.3109
   51MOL    O2718127   7.698   7.466   7.602  0.1848  0.8315 -0.5767
   51MOL    H2818128   7.370   0.162   7.768 -1.2276 -0.2747 -1.7513
   51MOL    H2918129   7.488   0.278   7.744 -1.8236  1.0458 -1.7807
   51MOL    H3018130   7.636   0.083   7.758  0.3967  2.7418 -0.5279
   51MOL    H3118131   7.634   0.124   7.599 -0.1612 -0.4990 -0.3853
   51MOL    H3218132   7.445   7.783   7.555  1.0710  0.7695 -0.4742
   51MOL    H3318133   7.444   7.754   7.725 -0.8781  1.2035  0.6313
   51MOL    H3418134   7.670   7.674   7.740 -0.6498  0.2715  0.5535
   51MOL    H3518135   7.702   7.744   7.578 -0.2001  0.7397  1.7128
   51MOL    H3618136   7.507   7.528   7.641 -0.9811 -1.3459 -1.7252
   51MOL    H3718137   7.549   7.578   7.491 -0.7341  0.6116 -0.0389
   51MOL    C3818138   7.672   7.337   7.631 -0.5329 -0.8084  0.8880
   51MOL    O3918139   7.558   7.300   7.651  0.1797 -0.3285  0.1214
   51MOL    C4018140   7.795   7.246   7.621 -0.0477 -0.0852  0.3344
   51MOL    C4118141   0.046   7.265   7.499 -0.6812  0.8695  0.3899
   51MOL    C4218142   0.195   7.240   7.539  0.0886  0.0541  0.3601
   51MOL    C4318143   0.292   7.300   7.440 -0.3075 -0.6215 -0.4696
   51MOL    C4418144   0.428   7.339   7.505  0.1343  0.4812 -0.5635
   51MOL    O4518145   0.424   7.458   7.580 -0.0761 -0.4040 -0.3399
   51MOL    H4618146   7.763   7.142   7.622  1.8787 -0.6983 -0.4314
   51MOL    H4718147   0.006   7.271   7.712 -2.6188  0.7686  1.7100
   51MOL    H4818148   0.035   7.370   7.474 -0.4641  1.2109  1.6774
   51MOL    H4918149   0.010   7.210   7.412  2.0939 -2.1997  1.0858
   51MOL    H5018150   0.225   7.138   7.561 -0.7447  0.0917  1.7540
   51MOL    H5118151   0.210   7.298   7.630 -0.4554 -1.0131  1.1368
   51MOL    H5218152   0.243   7.385   7.391 -0.5505 -0.1096  0.6507
   51MOL    H5318153   0.310   7.221   7.368  2.5792 -2.5591  2.2736
   51MOL    H5418154   0.459   7.255   7.568 -2.0757  1.5214  2.0030
   51MOL    H5518155   0.516   7.337   7.441  0.5179  1.9664 -0.1044
   51MOL    C5618156   0.435   7.572   7.523 -0.6946 -0.6883  0.3445
   51MOL    O5718157   0.467   7.588   7.401 -0.1299 -0.5523 -0.4052
   51MOL    C5818158   0.427   7.695   7.613 -0.2817 -0.4935  0.4014
   51MOL    C5918159   0.282   7.744   7.622 -0.0950 -0.6713 -0.5014
   51MOL    C6018160   0.251   0.022   7.714 -0.5387 -0.5665 -0.1846
   51MOL    C6118161   0.107   0.089   7.688 -0.9096  0.3498 -0.2571
   51MOL    C6218162   0.095   0.228   7.745 -0.0971  0.4135 -0.0514
   51MOL    O6318163   0.037   0.325   7.654 -0.9062  0.6415 -0.6592
   51MOL    H6418164   0.494   7.774   7.580 -2.0061  0.2587 -1.4822
   51MOL    H6518165   0.460   7.661   7.711 -1.6958 -1.8451  0.4342
   51MOL    H6618166   0.226   7.661   7.665 -2.7401  1.1330 -0.3240
   51MOL    H6718167   0.250   7.778   7.523 -2.6120  2.6413  1.3500
   51MOL    H6818168   0.326   0.101   7.720 -1.5392  0.2513  2.2880
   51MOL    H6918169   0.258   7.837   7.819  0.7224  0.2712 -0.0219
   51MOL    H7018170   0.021   0.026   7.710 -0.8630 -0.5538 -2.5079
   51MOL    H7118171   0.093   0.102   7.580 -1.0084  2.2494 -0.0312
   51MOL    H7218172   0.031   0.226   7.834  1.2865 -0.1292  0.9586
   51MOL    H7318173   0.189   0.274   7.775  0.4438 -0.2828 -0.6771
   51MOL    C7418174   7.796   0.416   7.705  0.2243  0.4071 -0.2863
   51MOL    O7518175   7.780   0.437   7.826  0.4989  0.3579 -0.2575
   51MOL    C7618176   7.729   0.501   7.593 -0.0348 -0.2835  0.1126
   51MOL    C7718177   7.829   0.592   7.520 -0.5843 -0.2292  0.6223
   51MOL    C7818178   0.031   0.721   7.596 -0.3511 -0.4280 -0.2499
   51MOL    C7918179   0.108   0.813   7.499 -0.1273  0.5143 -0.0327
   51MOL    C8018180   0.121   0.949   7.569 -0.1363 -0.0800 -0.4324
   51MOL    O8118181   0.185   1.043   7.482  0.0617 -0.3262 -0.4424
   51MOL    H8218182   7.654   0.562   7.644  0.9046 -1.1119  2.5894
   51MOL    H8318183   7.665   0.440   7.530  0.2728 -0.8724  0.3722
   51MOL    H8418184   7.792   0.623   7.423  0.2996  1.7288  0.8636
   51MOL    H8518185   0.073   0.533   7.493  0.8864  1.2889  1.9563
   51MOL    H8618186   0.092   0.681   7.677  0.6915  1.0131 -0.3222
   51MOL    H8718187   7.788   0.769   7.640  1.0238  0.9150  1.0712
   51MOL    H8818188   0.045   0.826   7.410  0.9241 -0.8957 -1.0017
   51MOL    H8918189   0.200   0.769   7.462  0.1617  1.7947 -0.8764
   51MOL    H9018190   0.021   0.985   7.593 -0.4778 -1.4014  0.1996
   51MOL    H9118191   0.177   0.939   7.662 -1.1499 -0.0670  0.1816
   51MOL    C9218192   0.319   1.044   7.467  0.1047 -0.0942  0.0081
   51MOL    O9318193   0.397   0.965   7.514 -0.6637 -0.4075  0.0168
   51MOL    C9418194   0.375   1.162   7.391 -0.0549  1.0082 -0.7107
   51MOL    C9518195   0.339   1.295   7.452  0.7345 -0.2996  0.5408
   51MOL    C9618196   0.400   1.399   7.366 -0.2924 -0.7044  0.2720
   51MOL    C9718197   0.393   1.538   7.417  0.1652  1.0936 -0.2219
   51MOL    C9818198   0.480   1.631   7.341 -0.2097 -0.0889 -0.6326
   51MOL    O9918199   0.470   1.763   7.399  0.9346  0.4998 -0.3482
   51MOL   H10018200   0.323   1.156   7.296 -3.7307 -1.3274  1.3297
   51MOL   H10118201   0.483   1.158   7.378  0.1224  1.8128  0.3726
   51MOL   H10218202   0.378   1.295   7.554  0.3461 -0.6404  0.6886
   51MOL   H10318203   0.234   1.322   7.453  1.0702  1.0663  0.3602
   51MOL   H10418204   0.373   1.403   7.260  1.8221  2.2291 -0.2248
   51MOL   H10518205   0.505   1.368   7.366 -0.5590 -1.9066 -3.2096
   51MOL   H10618206   0.431   1.539   7.519 -2.0412 -0.2722  0.6484
   51MOL   H10718207   0.292   1.578   7.423  0.5528  1.9800  0.5849
   51MOL   H10818208   0.585   1.602   7.345  0.6468  2.8245 -0.9401
   51MOL   H10918209   0.452   1.637   7.236  0.3832  1.0638 -0.7352
   51MOL   C11018210   0.531   1.870   7.337  0.1004 -0.0241  0.5388
   51MOL   O11118211   0.594   1.873   7.233 -0.3125 -0.1523  0.2506
   51MOL   C11218212   0.496   2.005   7.410 -0.3331  0.5184 -0.5045
   51MOL   C11318213   0.348   2.035   7.393 -0.6293  0.0073  0.8300
   51MOL   C11418214   0.296   2.163   7.460 -0.5505 -0.0824 -0.3885
   51MOL   C11518215   0.144   2.168   7.446 -0.0737  0.0990  0.0530
   51MOL   C11618216   0.075   2.282   7.522  0.3366  0.0175  0.7150
   51MOL   O11718217   7.792   2.305   7.473 -0.2013 -0.5997 -0.2836
   51MOL   H11818218   0.551   2.092   7.377  1.7119  0.8678  3.5089
   51MOL   H11918219   0.504   1.997   7.519  1.0039  0.7101 -0.5846
   51MOL   H12018220   0.291   1.952   7.434 -1.7095  0.1633 -0.3523
   51MOL   H12118221   0.331   2.039   7.286  2.3811 -3.0012  0.1617
   51MOL   H12218222   0.330   2.244   7.395 -2.2660 -1.4705 -3.1034
   51MOL   H12318223   0.330   2.168   7.564 -0.0286 -1.4764 -0.4710
   51MOL   H12418224   0.093   2.074   7.471 -0.1745  0.4815  1.2748
   51MOL   H12518225   0.115   2.180   7.341 -2.7933 -0.0700  0.7372
   51MOL   H12618226   0.078   2.261   7.629 -1.0352 -4.7971 -0.0575
   51MOL   H12718227   0.132   2.373   7.506  0.9257 -0.1730  1.7031
   51MOL   C12818228   7.736   2.419   7.511 -0.1249 -0.2541  0.3629
   51MOL   O12918229   7.779   2.495   7.598  0.1396  0.1008  0.3854
   51MOL   C13018230   7.614   2.449   7.424  0.2818  0.2056 -0.0508
   51MOL   C13118231   7.639   2.455   7.268  0.9144 -0.3412  0.4371
   51MOL   C13218232   7.519   2.514   7.179 -0.1685  0.4009  0.1676
   51MOL   C13318233   7.573   2.560   7.048 -0.2382  0.3881  0.6157
   51MOL   C13418234   7.468   2.649   6.976 -0.1040  0.2161 -0.0596
   51MOL   O13518235   7.350   2.591   6.947  0.2742  0.7051  0.6131
   51MOL   H13618236   7.585   2.550   7.452  2.4501  0.6408  0.7579
   51MOL   H13718237   7.527   2.393   7.457  0.0478 -0.0760 -1.1320
   51MOL   H13818238   7.668   2.353   7.242  3.6099  0.5647 -0.2364
   51MOL   H13918239   7.730   2.511   7.247  0.4940  0.8337  1.6540
   51MOL   H14018240   7.460   2.595   7.222  0.0108  0.1089  0.9798
   51MOL   H14118241   7.450   2.431   7.169  1.4571 -1.0042  0.3645
   51MOL   H14218242   7.611   2.472   6.996  1.8153  1.2902  0.5365
   51MOL   H14318243   7.665   2.618   7.051  0.8940 -1.3006 -0.5368
   51MOL   H14418244   7.464   2.733   7.047  1.5247  0.2437  0.0120
   51MOL   H14518245   7.518   2.706   6.897 -2.4615  0.2792 -1.5429
   51MOL   C14618246   7.252   2.680   6.898  0.1619 -0.0179  1.0076
   51MOL   O14718247   7.270   2.802   6.887 -0.4609 -0.1282  0.3897
   51MOL   C14818248   7.118   2.605   6.858  0.2570 -0.7327 -0.3901
   51MOL   C14918249   7.116   2.449   6.844 -0.8682  0.1392 -0.3051
   51MOL   C15018250   7.083   2.394   6.989 -0.1911  0.0332 -0.3107
   51MOL   C15118251   7.074   2.234   6.992  0.0703 -0.0963  0.1673
   51MOL   C15218252   7.072   2.177   7.133 -0.2617  1.1418  0.1575
   51MOL   O15318253   6.945   2.201   7.186 -0.6300  0.9168  0.5721
   51MOL   H15418254   7.078   2.636   6.762 -0.6034 -0.1946  0.1387
   51MOL   H15518255   7.050   2.643   6.934 -0.6584 -2.5845 -0.2606
   51MOL   H15618256   7.219   2.421   6.820 -0.7533  0.8952 -0.7095
   51MOL   H15718257   7.043   2.412   6.773 -0.9386 -1.4586  0.5831
   51MOL   H15818258   6.993   2.442   7.028 -1.1442  0.7957 -3.2969
   51MOL   H15918259   7.157   2.434   7.058 -0.8471 -2.5354  1.9723
   51MOL   H16018260   7.152   2.177   6.941  1.2275  2.3149 -0.8484
   51MOL   H16118261   6.982   2.215   6.935  0.9661 -2.5179 -0.5348
   51MOL   H16218262   7.097   2.071   7.136 -0.2907  1.0955 -1.1496
   51MOL   H16318263   7.148   2.226   7.195 -0.8161  1.0165  0.9473
   51MOL   C16418264   6.858   2.111   7.216 -0.2895 -0.1292 -0.7419
   51MOL   O16518265   6.879   1.989   7.228 -0.0903 -0.0086 -0.5699
   51MOL   C16618266   6.724   2.172   7.233  0.2005 -0.7812 -0.1349
   51MOL   C16718267   6.616   2.071   7.290  0.4807 -0.4164 -0.3347
   51MOL   C16818268   6.469   2.130   7.273 -0.8649 -0.0697 -0.1630
   51MOL   C16918269   6.357   2.053   7.342  0.1753  0.2110 -0.1521
   51MOL   C17018270   6.223   2.123   7.356 -0.7894  0.4623 -0.5044
   51MOL   O17118271   6.166   2.127   7.229 -0.6533  0.0369  0.3394
   51MOL   H17218272   6.690   2.215   7.139 -1.4242  0.8328  1.1668
   51MOL   H17318273   6.723   2.249   7.310  1.7531 -0.3857 -0.4924
   51MOL   H17418274   6.625   2.051   7.397 -1.0583  0.8213  0.0536
   51MOL   H17518275   6.618   1.982   7.226 -1.7067 -0.1374 -0.8362
   51MOL   H17618276   6.440   2.133   7.168 -0.7014  0.0996 -0.2030
   51MOL   H17718277   6.472   2.230   7.318 -1.6636 -0.2147  0.2242
   51MOL   H17818278   6.381   2.024   7.444  0.7386 -2.9734 -1.1523
   51MOL   H17918279   6.345   1.952   7.302 -0.6566  0.7068 -1.2065
   51MOL   H18018280   6.162   2.068   7.428 -0.9577 -0.7283 -1.5504
   51MOL   H18118281   6.246   2.224   7.390  1.9543 -0.5003  0.6704
   51MOL   C18218282   6.043   2.140   7.205  0.0377  1.1076 -0.7063
   51MOL   O18318283   5.958   2.152   7.292 -0.1294  0.0437 -0.0383
   51MOL   C18418284   6.010   2.126   7.051  0.1713  0.8117  0.1955
   51MOL   C18518285   5.895   2.028   7.019  0.0293  0.2075 -0.2063
   51MOL   C18618286   5.757   2.092   7.015 -0.3999  0.4719  0.4042
   51MOL   C18718287   5.645   2.001   6.969 -0.2188 -0.0355 -0.0152
   51MOL   C18818288   5.506   2.039   7.010  0.3380  0.0717 -0.6305
   51MOL   O18918289   5.502   2.025   7.152  0.1483  0.7064 -0.0655
   51MOL   H19018290   6.101   2.108   6.992 -0.1340  1.2668 -0.4249
   51MOL   H19118291   5.976   2.224   7.018  1.4579  1.8198  1.7823
   51MOL   H19218292   5.901   1.947   7.092  0.1909  0.1240 -0.3091
   51MOL   H19318293   5.910   1.976   6.924 -3.1955 -0.3906 -0.4531
   51MOL   H19418294   5.751   2.185   6.958 -0.6441  1.0376  1.3551
   51MOL   H19518295   5.744   2.124   7.118 -2.1354  2.3238 -0.3530
   51MOL   H19618296   5.657   1.898   7.004  1.2281  0.2957  0.5154
   51MOL   H19718297   5.648   1.985   6.861 -0.0808 -0.1508  0.0051
   51MOL   H19818298   5.500   2.143   6.977  0.4534 -0.0266 -0.9619
   51MOL   H19918299   5.431   1.977   6.961  2.9374 -2.3030 -1.7022
   51MOL   C20018300   5.433   2.103   7.236  0.2319 -0.2427  0.2533
   51MOL   O20118301   5.333   2.167   7.199 -0.4979 -0.1504  0.2898
   51MOL   C20218302   5.467   2.077   7.383 -0.1866 -0.1341 -0.8346
   51MOL   C20318303   5.425   2.175   7.485 -0.6504 -0.0796  1.0619
   51MOL   C20418304   5.277   2.172   7.531  0.3119 -0.7108 -0.1521
   51MOL   C20518305   5.230   2.295   7.618  0.2439 -0.0117  0.1513
   51MOL   C20618306   5.238   2.438   7.558 -0.4461 -0.1035  0.5973
   51MOL   O20718307   5.370   2.505   7.579  0.2977  0.1851 -0.0546
   51MOL   H20818308   5.576   2.069   7.392 -0.1187  2.4341  1.4887
   51MOL   H20918309   5.415   1.984   7.406 -3.2112  1.5833 -0.4202
   51MOL   H21018310   5.445   2.274   7.445  0.7706 -0.6320  0.3573
   51MOL   H21118311   5.482   2.162   7.577 -2.1306 -0.4490  1.9558
   51MOL   H21218312   5.258   2.079   7.585  0.5689  0.6744  2.3955
   51MOL   H21318313   5.208   2.177   7.447  0.4231 -0.2016 -0.2132
   51MOL   H21418314   5.280   2.296   7.715 -1.4418  1.6222  1.0393
   51MOL   H21518315   5.125   2.293   7.644 -0.1665  1.0352 -1.3589
   51MOL   H21618316   5.216   2.435   7.451  1.3177  1.3150  0.1872
   51MOL   H21718317   5.149   2.493   7.590 -0.2195  0.4360  0.3131
   51MOL   C21818318   5.379   2.605   7.676 -0.1404 -0.3725 -0.0783
   51MOL   O21918319   5.292   2.625   7.759 -0.1641  0.0515  0.1359
   51MOL   C22018320   5.521   2.666   7.672  0.3421  0.3253 -0.1071
   51MOL   C22118321   5.617   2.558   7.727 -0.0221 -0.6483 -0.2429
   51MOL   C22218322   5.761   2.594   7.708  0.0681 -0.8277  0.8958
   51MOL   C22318323   5.807   2.626   7.570 -0.6921 -0.6525  0.6860
   51MOL   C22418324   5.936   2.563   7.529 -0.2111  0.0752  0.1305
   51MOL   O22518325   5.958   2.606   7.394 -0.2347 -0.1418 -0.0224
   51MOL   H22618326   5.535   2.758   7.728 -0.8542  0.8008 -0.5713
   51MOL   H22718327   5.554   2.690   7.570  0.5101 -0.6968 -0.3065
   51MOL   H22818328   5.603   2.455   7.692  3.3888 -2.4392  3.2724
   51MOL   H22918329   5.598   2.557   7.834 -0.1910  0.4767 -0.2566
   51MOL   H23018330   5.822   2.513   7.747  2.4540 -0.0243 -1.0031
   51MOL   H23118331   5.775   2.675   7.780 -1.4042  0.6822 -0.4806
   51MOL   H23218332   5.832   2.731   7.554 -0.8925 -0.5532  1.0036
   51MOL   H23318333   5.730   2.607   7.495  0.0951 -1.4555  0.0729
   51MOL   H23418334   6.013   2.590   7.602 -0.8977 -1.3551  1.4039
   51MOL   H23518335   5.924   2.455   7.533 -3.2391  0.3511 -0.5627
   51MOL   C23618336   6.073   2.565   7.330 -0.2073  0.0801 -0.1780
   51MOL   O23718337   6.157   2.482   7.370  0.1180 -0.3223  0.0703
   51MOL   C23818338   6.088   2.608   7.181 -0.0596 -0.2003 -0.4695
   51MOL   C23918339   5.978   2.548   7.091  0.0840  0.2949  0.4234
   51MOL   C24018340   6.009   2.547   6.935 -0.1573 -0.1171 -0.1473
   51MOL   C24118341   6.020   2.697   6.883 -0.1363 -0.4933  0.4528
   51MOL   C24218342   6.044   2.689   6.729  0.4495 -0.2249 -0.3369
   51MOL   O24318343   5.919   2.636   6.687  0.0819  0.8237 -0.0080
   51MOL   H24418344   6.189   2.586   7.147  0.6255 -0.9125  1.9322
   51MOL   H24518345   6.084   2.717   7.175 -2.5443 -0.3297 -1.5153
   51MOL   H24618346   5.892   2.611   7.114 -1.6659 -2.2884  1.1095
   51MOL   H24718347   5.945   2.449   7.123  0.8441  0.0060  0.3277
   51MOL   H24818348   5.924   2.493   6.894  0.8225 -0.7890 -1.3042
   51MOL   H24918349   6.088   2.478   6.907 -0.1960 -0.3441  0.2945
   51MOL   H25018350   6.098   2.744   6.943  0.0864 -0.7078  0.3370
   51MOL   H25118351   5.929   2.754   6.897 -0.3471 -1.1127  1.6599
   51MOL   H25218352   6.058   2.787   6.683 -1.3361  1.2716  2.1552
   51MOL   H25318353   6.123   2.621   6.698 -0.5844 -1.4184 -0.4124
   51MOL   C25418354   5.913   2.594   6.557  0.0967 -0.1057 -0.4344
   51MOL   O25518355   6.004   2.595   6.479 -0.1146  0.2832 -0.0496
   51MOL   C25618356   5.764   2.570   6.516 -0.0759  0.4126 -0.4726
   51MOL   C25718357   5.751   2.524   6.366  0.2733  0.8755 -0.1730
   51MOL   C25818358   5.617   2.548   6.311  0.3728  0.1908  0.1473
   51MOL   C25918359   5.506   2.453   6.357  0.0522  0.6113  0.1270
   51MOL   C26018360   5.365   2.491   6.309 -0.6247  0.7354 -0.6310
   51MOL   O26118361   5.276   2.390   6.355 -0.2003  0.0380  0.1633
   51MOL   H26218362   5.709   2.664   6.513 -0.5135  0.1352 -1.3234
   51MOL   H26318363   5.715   2.506   6.589  0.1087  0.6624 -0.1317
   51MOL   H26418364   5.783   2.423   6.340 -0.6276  0.5960 -0.2082
   51MOL   H26518365   5.808   2.593   6.304  0.5307  0.7035 -0.1287
   51MOL   H26618366   5.627   2.551   6.202 -2.4290 -1.5493 -0.2034
   51MOL   H26718367   5.577   2.643   6.344  0.5317  0.5353 -0.6334
   51MOL   H26818368   5.504   2.457   6.466 -0.9670 -1.9188  0.2406
   51MOL   H26918369   5.529   2.349   6.334 -0.8320  0.1143  1.3912
   51MOL   H27018370   5.345   2.591   6.347  0.0170  0.4846  0.3743
   51MOL   H27118371   5.370   2.495   6.200 -1.8852  1.0901 -0.6935
   51MOL   C27218372   5.145   2.392   6.310 -0.1133  0.1294 -0.8469
   51MOL   O27318373   5.097   2.477   6.236 -0.5573 -0.0796  0.7983
   51MOL   C27418374   5.058   2.286   6.370 -0.4590 -0.0842 -0.0959
   51MOL   C27518375   5.001   2.318   6.516 -0.6629 -0.0159  0.0214
   51MOL   C27618376   5.099   2.298   6.632 -0.2996  0.2346  0.2874
   51MOL   C27718377   5.040   2.332   6.763  0.8659 -1.6025 -0.4358
   51MOL   C27818378   5.153   2.307   6.867  1.2053  0.4349 -0.3364
   51MOL   O27918379   5.257   2.403   6.858  0.3323  0.0869 -0.6685
   51MOL   H28018380   5.113   2.193   6.385  1.6462  1.3339  1.2776
   51MOL   H28118381   4.978   2.267   6.299 -0.0416  3.2270 -1.5534
   51MOL   H28218382   4.914   2.257   6.542 -0.5192  0.7367  2.3766
   51MOL   H28318383   4.963   2.419   6.505 -1.1900 -0.5268 -3.4633
   51MOL   H28418384   5.179   2.367   6.607  0.4286 -1.1952 -1.3910
   51MOL   H28518385   5.130   2.194   6.625 -0.3521  0.2084  0.4329
   51MOL   H28618386   4.958   2.263   6.781  0.5602 -0.3648  3.3852
   51MOL   H28718387   5.002   2.434   6.769  3.4550 -0.6558  0.5530
   51MOL   H28818388   5.105   2.317   6.965  2.1463 -0.3721  0.2110
   51MOL   H28918389   5.180   2.203   6.855 -1.1058 -0.2436  0.0343
   51MOL   C29018390   5.386   2.359   6.829  0.2111  0.1367  0.0506
   51MOL   O29118391   5.409   2.249   6.784 -0.1567  0.4150 -0.1184
   51MOL   C29218392   5.492   2.456   6.859 -0.2413 -0.0588  0.5571
   51MOL   C29318393   5.533   2.482   7.010  0.1884  0.0365  0.0600
   51MOL   C29418394   5.447   2.604   7.063  0.5263 -0.3619 -0.2701
   51MOL   C29518395   5.512   2.656   7.190  0.2826  0.1058 -0.0756
   51MOL   C29618396   5.412   2.759   7.240  0.3156  0.2001  0.0721
   51MOL   O29718397   5.468   2.842   7.342  0.1211 -0.0681 -0.2440
   51MOL   H29818398   5.455   2.551   6.820  1.1619 -0.1604 -1.0894
   51MOL   H29918399   5.580   2.431   6.800  0.2999  1.4762  0.6754
   51MOL   H30018400   5.639   2.504   7.018  0.1861  0.2641 -0.5609
   51MOL   H30118401   5.510   2.400   7.079 -1.4187  0.2737 -0.1575
   51MOL   H30218402   5.344   2.576   7.083  0.9502 -0.3368  2.0883
   51MOL   H30318403   5.459   2.688   6.995  0.6244 -0.3491 -0.2374
   51MOL   H30418404   5.609   2.694   7.159 -0.3831  0.4602 -1.7568
   51MOL   H30518405   5.525   2.575   7.262  0.3076 -0.5145 -0.7721
   51MOL   H30618406   5.379   2.821   7.156  0.2396 -0.0373 -0.0732
   51MOL   H30718407   5.326   2.707   7.282  0.6478 -0.0030  0.4957
   51MOL   C30818408   5.545   2.954   7.306  0.6025 -0.0862 -0.8875
   51MOL   O30918409   5.550   3.007   7.197 -0.2783 -0.8021  0.0436
   51MOL   C31018410   5.611   3.018   7.430 -0.1759 -0.4241 -0.6225
   51MOL   C31118411   5.532   3.149   7.462 -0.3170  0.4641 -0.1721
   51MOL   C31218412   5.460   3.139   7.595  0.2583  0.7374  0.2816
   51MOL   C31318413   5.365   3.254   7.633  0.6117 -0.1437  0.2966
   51MOL   C31418414   5.462   3.367   7.669 -0.2115 -0.6087 -0.6382
   51MOL   O31518415   5.393   3.485   7.700 -0.0812  0.0972 -0.3506
   51MOL   H31618416   5.717   3.028   7.406 -0.6680  0.0761 -2.6475
   51MOL   H31718417   5.601   2.947   7.512 -0.8209 -1.0846 -1.2685
   51MOL   H31818418   5.455   3.156   7.386 -0.6438 -3.8286 -0.3455
   51MOL   H31918419   5.609   3.226   7.457  1.0266 -0.7997  0.6666
   51MOL   H32018420   5.523   3.104   7.677 -0.4892 -2.2790 -0.3885
   51MOL   H32118421   5.397   3.052   7.577  2.2855 -0.5559 -0.7685
   51MOL   H32218422   5.306   3.228   7.721 -0.7985 -2.1119 -1.1824
   51MOL   H32318423   5.297   3.272   7.550 -0.0031 -1.8952  0.4052
   51MOL   H32418424   5.522   3.350   7.758  0.3505  0.9384 -0.7104
   51MOL   H32518425   5.527   3.381   7.583 -0.3663 -0.6285 -0.7577
   51MOL   C32618426   5.467   3.587   7.746 -0.2391 -0.0810  0.6685
   51MOL   O32718427   5.581   3.569   7.774 -0.5121 -0.3137 -0.3194
   51MOL   C32818428   5.401   3.718   7.748 -0.5293  0.3770  0.9374
   51MOL   C32918429   5.381   3.791   0.041 -0.4559  0.0251  0.1588
   51MOL   C33018430   5.287   3.914   0.040  0.0237 -0.5222 -0.6277
   51MOL   C33118431   5.306   4.019   7.777  0.1763 -0.5805 -0.2591
   51MOL   C33218432   5.447   4.067   7.757  0.4189 -0.1104  0.3870
   51MOL   O33318433   5.510   4.115   0.030  0.0003 -0.2224 -0.0719
   51MOL   H33418434   5.302   3.712   7.702  0.6189  0.2559 -1.6102
   51MOL   H33518435   5.450   3.784   7.676  0.2962 -2.5396 -1.3097
   51MOL   H33618436   5.474   3.841   0.069 -1.4763  1.8780  0.3344
   51MOL   H33718437   5.356   3.724   0.123  1.5750 -0.0728  0.7171
   51MOL   H33818438   5.290   3.970   0.134  3.7096 -1.3484 -0.1838
   51MOL   H33918439   5.184   3.880   0.026  0.1159 -1.1835  0.2304
   51MOL   H34018440   5.240   4.101   7.806  0.1550 -1.0973  1.1696
   51MOL   H34118441   5.262   3.984   7.683  0.9362 -0.9039 -0.4990
   51MOL   H34218442   5.499   3.978   7.721  0.2495 -0.7829  1.7659
   51MOL   H34318443   5.456   4.152   7.689  0.7972 -0.3428  0.1474
   51MOL   C34418444   5.549   4.242   0.039  0.3373  0.4929  0.9030
   51MOL   O34518445   5.525   4.321   7.795  0.5008  0.3942  0.6392
   51MOL   C34618446   5.605   4.294   0.176  0.5985  1.2435  0.1689
   51MOL   C34718447   5.732   4.379   0.156  0.1182  0.4586 -0.3264
   51MOL   C34818448   5.865   4.299   0.161  0.2636 -0.1103  0.2102
   51MOL   C34918449   5.988   4.393   0.131  0.9496  0.4263  0.4391
   51MOL   C35018450   6.120   4.311   0.128 -0.8418 -0.0527 -0.5560
   51MOL   O35118451   6.167   4.311   0.267 -0.0304  0.2713  0.2425
   51MOL   H35218452   5.628   4.206   0.236  2.7760  1.4703 -0.2888
   51MOL   H35318453   5.535   4.353   0.235 -0.6723 -1.3732  1.3540
   51MOL   H35418454   5.742   4.457   0.231 -1.9833 -0.2192  0.7002
   51MOL   H35518455   5.721   4.429   0.060 -2.8924 -2.1977 -1.4823
   51MOL   H35618456   5.868   4.212   0.095 -2.4058 -1.9360  2.4161
   51MOL   H35718457   5.871   4.260   0.262  0.5907 -0.0903  0.2021
   51MOL   H35818458   5.997   4.476   0.202 -0.5320 -0.1248  1.2774
   51MOL   H35918459   5.979   4.436   0.032 -0.3003 -1.0005 -0.0711
   51MOL   H36018460   6.100   4.208   0.098 -0.2780 -0.1354 -0.6437
   51MOL   H36118461   6.188   4.349   0.052 -0.1170  1.5371  0.8725
   51MOL   H36218462   6.248   4.262   0.271  0.1040  0.4797  0.1436
   52MOL     C118463   1.728   6.997   2.988 -0.1838  0.1566 -0.0934
   52MOL     O218464   1.759   7.055   2.884 -0.4314  0.2994  0.1873
   52MOL     C318465   1.837   6.915   3.065 -0.1575  0.0687 -0.3479
   52MOL     C418466   1.956   6.876   2.975 -0.0924  0.0087 -0.0455
   52MOL     C518467   2.074   6.819   3.055  0.0355  0.3976  0.0793
   52MOL     C618468   2.173   6.934   3.103 -0.6818 -0.5452 -0.6308
   52MOL     C718469   2.294   6.873   3.179 -0.2119 -0.1355  0.2031
   52MOL     O818470   2.397   6.962   3.236 -0.4126  0.4142  0.4794
   52MOL     H918471   1.799   6.825   3.113  1.7150 -2.4268 -3.4049
   52MOL    H1018472   1.862   6.986   3.144  1.1001 -0.5252 -0.2082
   52MOL    H1118473   1.988   6.945   2.896 -0.6601 -0.4617 -0.6941
   52MOL    H1218474   1.921   6.798   2.908  1.0155 -3.2475  3.0100
   52MOL    H1318475   2.133   6.758   2.986 -0.0298 -0.6909  0.9633
   52MOL    H1418476   2.033   6.759   3.136 -1.1203 -0.0910 -0.8531
   52MOL    H1518477   2.120   7.010   3.160  1.0328 -0.1780  0.5133
   52MOL    H1618478   2.204   6.997   3.020 -1.2857  1.0804  0.3726
   52MOL    H1718479   2.268   6.815   3.267  0.3963 -0.2575  0.3037
   52MOL    H1818480   2.349   6.810   3.109 -1.6101  0.9085 -1.9040
   52MOL    H1918481   1.630   7.001   3.037  0.2150  0.1231  0.7032
   52MOL    C2018482   2.522   6.919   3.269 -0.8490  0.5648 -0.8343
   52MOL    O2118483   2.561   6.802   3.280 -0.1677 -0.2626 -0.0035
   52MOL    C2218484   2.617   7.033   3.296 -0.3572 -0.1011 -0.4017
   52MOL    C2318485   2.640   7.078   3.441  0.2467 -0.3236 -0.2658
   52MOL    C2418486   2.528   7.155   3.504 -0.0576  0.4457 -0.1507
   52MOL    C2518487   2.527   7.183   3.660 -0.0519  0.1771 -0.9936
   52MOL    C2618488   2.396   7.249   3.711  0.5199  0.4743  0.8331
   52MOL    O2718489   2.416   7.291   3.848 -0.0388  0.7763  0.7643
   52MOL    H2818490   2.588   7.120   3.238  2.4345  2.0482  1.2943
   52MOL    H2918491   2.716   6.998   3.268 -0.3484 -1.9054  1.7971
   52MOL    H3018492   2.725   7.147   3.438 -1.5838  1.9412 -0.6909
   52MOL    H3118493   2.651   6.984   3.495 -0.1922  1.0492  2.2767
   52MOL    H3218494   2.437   7.099   3.483  0.2131  0.0064 -0.1729
   52MOL    H3318495   2.521   7.250   3.452 -0.1729  0.5266  0.0114
   52MOL    H3418496   2.604   7.259   3.674 -0.2952  0.6650 -2.2003
   52MOL    H3518497   2.561   7.101   3.722  0.8055  1.1593 -0.1476
   52MOL    H3618498   2.378   7.333   3.643  1.7267 -0.2896 -0.4621
   52MOL    H3718499   2.316   7.176   3.701 -0.2117  1.5496 -1.6342
   52MOL    C3818500   2.355   7.401   3.899 -0.9101  0.5763  0.6279
   52MOL    O3918501   2.283   7.469   3.826 -0.4681 -0.3550 -0.4221
   52MOL    C4018502   2.376   7.428   4.045  0.4367  0.1682  0.2880
   52MOL    C4118503   2.360   7.301   4.134  0.0317  0.1473  0.2632
   52MOL    C4218504   2.420   7.326   4.272 -0.0525  0.2249 -0.2462
   52MOL    C4318505   2.411   7.201   4.357  0.8307  0.2232 -0.5982
   52MOL    C4418506   2.280   7.160   4.423  0.5706  0.0041 -0.1946
   52MOL    O4518507   2.282   7.031   4.492  0.0078  0.0960  0.4439
   52MOL    H4618508   2.303   7.504   4.069  1.1069  1.8160 -2.6352
   52MOL    H4718509   2.475   7.465   4.071  0.5534  0.6026 -0.7609
   52MOL    H4818510   2.418   7.215   4.100  0.5966  0.0373  1.4783
   52MOL    H4918511   2.259   7.262   4.135 -0.2897  0.9802  0.4283
   52MOL    H5018512   2.368   7.400   4.333 -1.7264  0.6512 -2.1267
   52MOL    H5118513   2.518   7.372   4.259 -0.1631 -0.3583 -3.6505
   52MOL    H5218514   2.496   7.201   4.425 -0.4519 -0.5146  1.0411
   52MOL    H5318515   2.438   7.110   4.303 -2.8486 -1.9755  1.0726
   52MOL    H5418516   2.250   7.232   4.499 -0.2748 -1.8400  1.2389
   52MOL    H5518517   2.191   7.158   4.359  0.4144 -0.6273  0.0437
   52MOL    C5618518   2.186   6.993   4.575 -0.3907  0.5129  0.1934
   52MOL    O5718519   2.078   7.041   4.595  0.0036 -0.0061 -0.3248
   52MOL    C5818520   2.230   6.871   4.657  0.2712 -1.3159 -0.1179
   52MOL    C5918521   2.285   6.753   4.581  0.0469 -0.8798  0.0600
   52MOL    C6018522   2.409   6.693   4.650  0.3838 -0.6344 -0.5188
   52MOL    C6118523   2.478   6.576   4.587  0.1390  0.1600 -0.4482
   52MOL    C6218524   2.602   6.521   4.668 -0.3277  0.2329 -0.1686
   52MOL    O6318525   2.551   6.454   4.778  0.0357  0.2957 -1.0343
   52MOL    H6418526   2.150   6.835   4.721  0.1123 -0.6269  0.0760
   52MOL    H6518527   2.313   6.900   4.721 -0.4028  2.2840 -0.7422
   52MOL    H6618528   2.303   6.766   4.474  1.8658 -0.6343  0.3728
   52MOL    H6718529   2.199   6.687   4.573  0.8334 -1.8107 -0.7081
   52MOL    H6818530   2.375   6.669   4.750  0.1338  1.6674 -0.0387
   52MOL    H6918531   2.479   6.776   4.653 -0.3862  0.0189 -0.5825
   52MOL    H7018532   2.520   6.608   4.492 -0.3219 -1.4102 -1.2009
   52MOL    H7118533   2.408   6.497   4.560  2.7054 -2.2900 -0.1074
   52MOL    H7218534   2.647   6.450   4.599 -0.8654  0.4755 -0.7695
   52MOL    H7318535   2.666   6.607   4.689 -1.5110  0.6919  1.6325
   52MOL    C7418536   2.618   6.451   4.897 -0.7836 -0.7250 -0.4364
   52MOL    O7518537   2.729   6.503   4.921  0.1310 -0.6144  0.8415
   52MOL    C7618538   2.556   6.372   5.008  0.6955 -0.2981 -0.6691
   52MOL    C7718539   2.562   6.223   4.991 -0.1463  0.4167 -0.7275
   52MOL    C7818540   2.460   6.140   5.075 -0.6565 -0.2963  0.1436
   52MOL    C7918541   2.318   6.180   5.036 -0.1147  0.1420  0.2885
   52MOL    C8018542   2.214   6.091   5.103  0.2510 -0.3686  0.3771
   52MOL    O8118543   2.087   6.149   5.102  0.3500 -0.1304  0.0194
   52MOL    H8218544   2.454   6.412   5.011  1.0500  0.5334  0.4218
   52MOL    H8318545   2.597   6.408   5.102 -3.4317  0.3948  0.9605
   52MOL    H8418546   2.663   6.193   5.020  0.1451  0.8116 -1.3030
   52MOL    H8518547   2.552   6.188   4.889 -2.1880  1.2987 -0.8608
   52MOL    H8618548   2.472   6.144   5.184 -1.2791 -2.2633  0.3029
   52MOL    H8718549   2.478   6.033   5.066 -3.1874 -0.7736  0.5545
   52MOL    H8818550   2.310   6.181   4.927 -4.6586  1.5777  0.5248
   52MOL    H8918551   2.294   6.279   5.075 -1.2344  0.4143 -1.0349
   52MOL    H9018552   2.212   5.995   5.051  0.6231  0.4014 -1.0865
   52MOL    H9118553   2.239   6.062   5.205 -0.2290 -2.7387 -0.1326
   52MOL    C9218554   2.015   6.158   5.208 -0.4744 -0.4338  0.1982
   52MOL    O9318555   2.052   6.125   5.322 -0.1429 -0.1949  0.0351
   52MOL    C9418556   1.882   6.226   5.180  0.6964 -0.8309 -0.1179
   52MOL    C9518557   1.783   6.208   5.297  0.1386 -0.0344 -0.3595
   52MOL    C9618558   1.726   6.064   5.307 -0.7307  0.5326  0.1676
   52MOL    C9718559   1.631   6.048   5.426 -0.2798 -0.6912  0.5252
   52MOL    C9818560   1.597   5.904   5.435  0.6239 -0.1567  0.6992
   52MOL    O9918561   1.477   5.893   5.359 -0.1688 -0.3831  0.5667
   52MOL   H10018562   1.827   6.180   5.098 -1.6538  0.8651  0.4546
   52MOL   H10118563   1.882   6.329   5.145 -1.0245 -1.5192 -2.2153
   52MOL   H10218564   1.699   6.277   5.293  0.2827  0.2413  0.9261
   52MOL   H10318565   1.829   6.229   5.394 -0.2573 -2.1117  0.3108
   52MOL   H10418566   1.810   5.996   5.319 -0.9265  0.1474 -0.6460
   52MOL   H10518567   1.681   6.043   5.210 -2.6918  0.1556  1.1284
   52MOL   H10618568   1.536   6.101   5.421 -1.2869 -2.3554  1.7418
   52MOL   H10718569   1.690   6.078   5.513  0.0245  1.9873 -0.5517
   52MOL   H10818570   1.669   5.828   5.403  0.7118 -0.5243  1.7679
   52MOL   H10918571   1.592   5.889   5.543 -1.0201  2.0159  0.9581
   52MOL   C11018572   1.407   5.782   5.349  1.0250  0.4448  0.3656
   52MOL   O11118573   1.425   5.679   5.412 -0.5031 -0.5037  0.4702
   52MOL   C11218574   1.281   5.802   5.264  0.7072  0.6854  0.0929
   52MOL   C11318575   1.296   5.811   5.113 -1.0791  0.0533  0.8580
   52MOL   C11418576   1.406   5.908   5.058 -0.4096  0.1919  0.0797
   52MOL   C11518577   1.377   6.055   5.080  0.3183  0.4076  0.1014
   52MOL   C11618578   1.474   6.155   5.021 -0.1401 -0.5579 -0.1830
   52MOL   O11718579   1.451   6.167   4.878 -0.2268 -0.4855  0.3464
   52MOL   H11818580   1.231   5.894   5.292  1.5305  0.8764  0.9406
   52MOL   H11918581   1.219   5.716   5.289  2.4320 -0.5249  0.3071
   52MOL   H12018582   1.207   5.834   5.055  0.7481  0.7922 -1.7760
   52MOL   H12118583   1.325   5.716   5.066  1.7185  0.8563  0.8275
   52MOL   H12218584   1.400   5.884   4.952 -2.6730 -0.6526  0.3713
   52MOL   H12318585   1.504   5.875   5.093 -0.2325 -0.8700 -1.3667
   52MOL   H12418586   1.378   6.076   5.187  0.6385  0.2899  0.1223
   52MOL   H12518587   1.277   6.084   5.047 -0.3024  0.3174  1.8792
   52MOL   H12618588   1.463   6.251   5.073  0.6383  1.0255 -2.8689
   52MOL   H12718589   1.575   6.122   5.043 -0.0708 -0.7382 -0.7708
   52MOL   C12818590   1.547   6.223   4.805 -0.1853 -0.7198  0.4801
   52MOL   O12918591   1.644   6.283   4.846  0.5879 -0.1912  0.1038
   52MOL   C13018592   1.510   6.218   4.653 -0.5379 -0.1486 -0.0711
   52MOL   C13118593   1.492   6.080   4.578  0.6887  0.0479 -0.4053
   52MOL   C13218594   1.390   5.981   4.643 -0.3391  0.2788  0.7072
   52MOL   C13318595   1.393   5.849   4.563  0.0628  0.1636 -0.2531
   52MOL   C13418596   1.320   5.735   4.626 -1.3121  0.0124 -0.0275
   52MOL   O13518597   1.181   5.744   4.600  0.5926  0.2409 -0.2100
   52MOL   H13618598   1.578   6.268   4.585  0.0523 -1.8185 -0.7370
   52MOL   H13718599   1.413   6.267   4.643  0.9354  2.3736 -2.3932
   52MOL   H13818600   1.596   6.047   4.584  0.6719  0.0460 -0.1063
   52MOL   H13918601   1.472   6.094   4.472 -1.9172 -0.7509 -0.0599
   52MOL   H14018602   1.291   6.025   4.658  0.5217  2.0096  1.4809
   52MOL   H14118603   1.420   5.966   4.747  0.8053 -2.1783  0.0640
   52MOL   H14218604   1.496   5.815   4.552 -0.6944 -3.2638  2.2302
   52MOL   H14318605   1.356   5.875   4.464 -0.5611 -0.7689 -0.2752
   52MOL   H14418606   1.350   5.637   4.586 -4.0152  0.1918 -2.7013
   52MOL   H14518607   1.339   5.730   4.733 -1.2390  1.4587  0.0274
   52MOL   C14618608   1.096   5.688   4.684 -0.3109  0.4843 -0.1756
   52MOL   O14718609   1.125   5.607   4.769  0.0147 -0.1860 -0.0789
   52MOL   C14818610   0.965   5.762   4.674 -0.5244 -0.0685 -0.3783
   52MOL   C14918611   0.876   5.711   4.562  0.3655  0.1318  0.8173
   52MOL   C15018612   0.745   5.785   4.568  0.1486  0.7306  0.3937
   52MOL   C15118613   0.653   5.715   4.464  0.7822  0.1933 -0.0809
   52MOL   C15218614   0.528   5.808   4.438  0.1644  0.2336  0.2325
   52MOL   O15318615   0.445   5.719   4.357 -0.4548 -0.2322 -0.6480
   52MOL   H15418616   0.980   5.868   4.656  1.5927 -0.4758 -1.1589
   52MOL   H15518617   0.914   5.731   4.765 -2.0291 -1.2112 -1.5857
   52MOL   H15618618   0.868   5.603   4.558  0.8959  0.1015  0.5276
   52MOL   H15718619   0.922   5.731   4.465  1.0809  2.8223  1.6559
   52MOL   H15818620   0.758   5.891   4.545  0.1859  0.4409 -0.9702
   52MOL   H15918621   0.716   5.780   4.673  1.4550  1.1668  0.7876
   52MOL   H16018622   0.613   5.622   4.504 -2.0742  0.8049 -1.3851
   52MOL   H16118623   0.700   5.699   4.367  0.5184 -2.2413  0.1640
   52MOL   H16218624   0.485   5.843   4.531  1.0922  0.0335  0.7435
   52MOL   H16318625   0.566   5.895   4.385  0.2814  0.6671  1.0211
   52MOL   C16418626   0.322   5.749   4.326 -0.5633  0.7033 -0.1515
   52MOL   O16518627   0.266   5.847   4.373  0.2185 -0.0376  0.3775
   52MOL   C16618628   0.260   5.643   4.240  0.1194  0.1035  0.5575
   52MOL   C16718629   0.228   5.505   4.323 -0.2521  0.2488 -0.3364
   52MOL   C16818630   0.180   5.400   4.221 -0.1139  0.3379  0.0480
   52MOL   C16918631   0.161   5.263   4.284 -0.2288  0.6819 -0.6390
   52MOL   C17018632   0.035   5.265   4.372  0.0442 -0.1488  0.3548
   52MOL   O17118633   7.841   5.136   4.412  0.2298 -0.4330  0.4105
   52MOL   H17218634   0.325   5.629   4.154 -0.5059 -0.7815  0.2136
   52MOL   H17318635   0.162   5.673   4.204  1.6656  3.6271 -0.9057
   52MOL   H17418636   0.149   5.525   4.395  0.7374 -3.8755  2.0354
   52MOL   H17518637   0.313   5.462   4.375 -0.5386  0.7491  0.5538
   52MOL   H17618638   0.260   5.379   4.149 -1.7825  1.3666 -2.1724
   52MOL   H17718639   0.094   5.427   4.161  0.6600  0.7616 -0.8800
   52MOL   H17818640   0.250   5.233   4.340  0.6813 -1.0988 -2.9686
   52MOL   H17918641   0.141   5.184   4.212 -1.2423 -0.6496  1.0572
   52MOL   H18018642   0.055   5.328   4.458  2.0999  1.7953 -1.4746
   52MOL   H18118643   7.794   5.304   4.317 -0.0805 -1.3745 -0.3568
   52MOL   C18218644   7.737   5.118   4.500  0.0346  0.3146  0.6052
   52MOL   O18318645   7.670   5.207   4.559 -0.3166  0.4529  0.5638
   52MOL   C18418646   7.690   4.974   4.504  1.0363 -0.3878 -0.6243
   52MOL   C18518647   7.783   4.879   4.573  0.4599 -0.0246  0.6674
   52MOL   C18618648   0.070   4.850   4.498  0.8090  0.1478  0.1051
   52MOL   C18718649   0.145   4.720   4.542  0.4780  0.0853 -0.1308
   52MOL   C18818650   0.277   4.684   4.476 -0.2037 -0.0243 -0.1825
   52MOL   O18918651   0.333   4.570   4.540  0.9179 -0.6689  0.0451
   52MOL   H19018652   7.670   4.939   4.403  0.4094  1.0445 -1.0028
   52MOL   H19118653   7.593   4.983   4.552  0.9877 -1.2073 -0.5645
   52MOL   H19218654   7.730   4.787   4.596 -1.2657  0.1825 -2.3080
   52MOL   H19318655   7.806   4.915   4.674  0.4714  1.6775  0.0742
   52MOL   H19418656   0.139   4.933   4.513  1.0403  0.2801 -1.5716
   52MOL   H19518657   0.041   4.850   4.393  0.9281 -0.6215  0.0765
   52MOL   H19618658   0.077   4.638   4.521 -1.6489  2.0609 -1.2303
   52MOL   H19718659   0.160   4.718   4.650 -2.4298 -1.9162  0.2855
   52MOL   H19818660   0.265   4.659   4.371  0.5651 -1.1553 -0.0052
   52MOL   H19918661   0.361   4.752   4.497 -0.0039 -0.3038 -0.0696
   52MOL   C20018662   0.322   4.451   4.498 -0.1619  0.0624  0.5680
   52MOL   O20118663   0.262   4.412   4.395  0.0155  0.4269 -0.6013
   52MOL   C20218664   0.395   4.345   4.583  0.3028  0.5433  0.5795
   52MOL   C20318665   0.539   4.316   4.548  0.3229  0.5523 -0.1873
   52MOL   C20418666   0.591   4.189   4.617  0.1409 -0.1783 -0.1845
   52MOL   C20518667   0.535   4.060   4.563  0.2272 -0.2983 -0.0028
   52MOL   C20618668   0.614   3.947   4.626  0.1240  0.0477  1.0514
   52MOL   O20718669   0.591   3.944   4.765  0.4312 -0.1571  0.3323
   52MOL   H20818670   0.331   4.257   4.574  0.9036  0.1459  0.1099
   52MOL   H20918671   0.385   4.375   4.687 -1.3611 -1.1559  0.9523
   52MOL   H21018672   0.605   4.403   4.560  1.0371 -0.1304  0.8878
   52MOL   H21118673   0.546   4.294   4.442 -1.0018  0.5577 -0.2808
   52MOL   H21218674   0.585   4.200   4.725  1.8607 -0.8243 -0.0102
   52MOL   H21318675   0.696   4.192   4.589  0.2692  1.4678  0.4087
   52MOL   H21418676   0.521   4.052   4.456  0.3249  0.3524 -0.0648
   52MOL   H21518677   0.438   4.060   4.611  0.8338  2.0098  1.3100
   52MOL   H21618678   0.603   3.852   4.574 -1.6124 -0.8159  2.9480
   52MOL   H21718679   0.720   3.971   4.613  0.3569 -1.2623  0.4854
   52MOL   C21818680   0.612   3.822   4.827  0.1104 -0.1645 -0.2263
   52MOL   O21918681   0.622   3.711   4.776  0.0789 -0.3444  0.1644
   52MOL   C22018682   0.613   3.833   4.977  0.1711 -0.3203 -0.4624
   52MOL   C22118683   0.587   3.697   5.054  0.0472 -0.1495  0.5491
   52MOL   C22218684   0.437   3.652   5.050  0.0243  0.1826 -0.7415
   52MOL   C22318685   0.401   3.529   5.142 -0.2963 -0.0232 -0.3199
   52MOL   C22418686   0.253   3.483   5.125  0.2818  0.1163 -0.3781
   52MOL   O22518687   0.225   3.362   5.189  0.1487 -0.1094  0.1832
   52MOL   H22618688   0.531   3.901   5.004  0.8418  0.2564  0.1553
   52MOL   H22718689   0.703   3.876   5.020 -1.2710  2.0149  0.3453
   52MOL   H22818690   0.621   3.715   5.156  0.4016  1.5062  0.1436
   52MOL   H22918691   0.642   3.613   5.011 -0.0614 -0.7781  1.6141
   52MOL   H23018692   0.412   3.632   4.946 -0.1974 -2.7445 -0.1807
   52MOL   H23118693   0.372   3.733   5.083  1.8609  1.1066  0.7116
   52MOL   H23218694   0.432   3.547   5.245  0.6992 -0.0534 -0.6148
   52MOL   H23318695   0.469   3.450   5.108  1.9000  0.9112  1.7610
   52MOL   H23418696   0.189   3.564   5.160 -1.6934 -0.1087 -3.2912
   52MOL   H23518697   0.228   3.487   5.019  1.0278  0.4773 -0.5396
   52MOL   C23618698   0.197   3.360   5.320  0.7701 -0.2047  0.1270
   52MOL   O23718699   0.202   3.456   5.398 -0.1875  0.0834 -0.1714
   52MOL   C23818700   0.149   3.224   5.366 -0.3366 -1.0113 -0.2601
   52MOL   C23918701   0.248   3.164   5.476 -0.3062 -0.0797  0.3411
   52MOL   C24018702   0.398   3.142   5.447 -0.4052  0.0611 -0.2170
   52MOL   C24118703   0.493   3.267   5.459  0.8270 -0.4117  0.2242
   52MOL   C24218704   0.637   3.222   5.438  0.5365  0.2965  0.4040
   52MOL   O24318705   0.671   3.123   5.535 -0.2680 -0.2419 -0.1628
   52MOL   H24418706   0.151   3.152   5.284  1.3347 -1.4123  0.1180
   52MOL   H24518707   0.047   3.233   5.405  0.2325  2.3360  0.6115
   52MOL   H24618708   0.213   3.070   5.519  0.4002  0.9942  3.4199
   52MOL   H24718709   0.243   3.218   5.571  1.1156  0.7694 -0.0517
   52MOL   H24818710   0.412   3.105   5.346  0.4014 -0.4715  0.0874
   52MOL   H24918711   0.440   3.063   5.508  2.2241 -1.1671 -3.4777
   52MOL   H25018712   0.491   3.310   5.559  0.8108  1.6181 -0.6255
   52MOL   H25118713   0.455   3.347   5.395  0.2734 -1.9259 -1.3956
   52MOL   H25218714   0.655   3.182   5.338 -0.7038 -0.0931  0.3296
   52MOL   H25318715   0.701   3.310   5.446 -1.4475  1.8975 -0.7714
   52MOL   C25418716   0.732   3.147   5.649  0.0529 -0.1745 -0.2526
   52MOL   O25518717   0.778   3.256   5.680 -0.2525  0.0630  0.6120
   52MOL   C25618718   0.742   3.029   5.746  0.4537 -0.3535 -0.1950
   52MOL   C25718719   0.616   3.012   5.839 -0.3073  0.7285  1.0321
   52MOL   C25818720   0.662   2.978   5.981  0.4200  0.1465  0.5052
   52MOL   C25918721   0.536   2.955   6.076  0.0161  0.2394 -0.2843
   52MOL   C26018722   0.570   2.873   6.201 -0.5307 -0.1681 -0.4629
   52MOL   O26118723   0.570   2.737   6.155  0.2464 -0.2859  0.4094
   52MOL   H26218724   0.828   3.056   5.808  0.8672 -2.3210  0.1369
   52MOL   H26318725   0.766   2.937   5.693 -1.2713 -0.4262 -0.8624
   52MOL   H26418726   0.553   2.934   5.797  0.5832  0.1501  0.7602
   52MOL   H26518727   0.550   3.098   5.833  1.0280  1.7102  0.3363
   52MOL   H26618728   0.736   3.049   6.018 -0.2305  0.0123  2.1089
   52MOL   H26718729   0.717   2.884   5.984  1.5318  0.7772  0.0591
   52MOL   H26818730   0.455   2.900   6.027  1.4437 -1.0003 -1.2931
   52MOL   H26918731   0.505   3.055   6.107  2.2885  0.2567  2.0746
   52MOL   H27018732   0.671   2.904   6.230 -0.5876 -2.1942  2.0413
   52MOL   H27118733   0.509   2.907   6.284  0.9643  2.1463 -0.2579
   52MOL   C27218734   0.655   2.639   6.200  0.3844 -0.0927 -0.4802
   52MOL   O27318735   0.736   2.651   6.290  0.0762  0.0939 -0.7678
   52MOL   C27418736   0.639   2.507   6.112  0.6973  0.1834 -0.3340
   52MOL   C27518737   0.703   2.380   6.175 -0.4688 -0.5088 -0.6497
   52MOL   C27618738   0.774   2.288   6.060 -0.1527 -0.5514  0.6308
   52MOL   C27718739   0.839   2.165   6.119  0.1505  0.7105 -0.0288
   52MOL   C27818740   0.926   2.087   6.016 -0.1988  0.0283  0.1529
   52MOL   O27918741   0.854   2.047   5.896  0.0127 -0.0594  0.5566
   52MOL   H28018742   0.672   2.527   6.010  3.5106 -4.5529 -0.4700
   52MOL   H28118743   0.531   2.493   6.099  0.1812  1.8962  1.8140
   52MOL   H28218744   0.625   2.321   6.221 -0.2376 -0.8129 -0.6410
   52MOL   H28318745   0.767   2.400   6.260 -0.4674  0.9628 -0.9834
   52MOL   H28418746   0.843   2.344   5.997 -2.1058 -1.3843 -2.3878
   52MOL   H28518747   0.706   2.253   5.983  0.4691 -2.4941  0.9227
   52MOL   H28618748   0.764   2.100   6.163 -1.9484  3.4440  0.5581
   52MOL   H28718749   0.907   2.192   6.200 -1.2515 -2.5199  2.3118
   52MOL   H28818750   0.986   2.167   5.973  0.3212 -1.3326 -1.6992
   52MOL   H28918751   0.986   2.009   6.064  0.7222 -0.1329 -1.2403
   52MOL   C29018752   0.896   1.936   5.826 -0.5108 -0.3104  0.8697
   52MOL   O29118753   0.989   1.866   5.850  0.4217  0.1467  0.7257
   52MOL   C29218754   0.792   1.885   5.718 -0.6799  0.3056  0.6382
   52MOL   C29318755   0.735   1.989   5.632  0.1246 -0.4331  0.2675
   52MOL   C29418756   0.831   2.068   5.538 -0.1776 -0.4751  0.7595
   52MOL   C29518757   0.763   2.163   5.438  0.0202  0.0845 -0.1730
   52MOL   C29618758   0.866   2.234   5.351 -0.2538  0.3200  0.1376
   52MOL   O29718759   0.958   2.147   5.283  0.2820  0.2514  0.4477
   52MOL   H29818760   0.721   1.815   5.764  0.7649 -2.7499 -1.5582
   52MOL   H29918761   0.838   1.817   5.646 -3.0132  0.5206 -1.1432
   52MOL   H30018762   0.675   2.055   5.696 -2.4339 -0.4175 -2.0198
   52MOL   H30118763   0.646   1.953   5.579 -0.9554  2.7173 -0.2095
   52MOL   H30218764   0.906   2.012   5.482 -1.1051 -0.8317 -0.1237
   52MOL   H30318765   0.904   2.126   5.596  1.2037  1.0398 -2.3562
   52MOL   H30418766   0.707   2.240   5.491  0.0692 -0.9213  1.3499
   52MOL   H30518767   0.692   2.122   5.366  1.0270  0.0099 -1.1413
   52MOL   H30618768   0.821   2.302   5.280 -0.3631 -0.9134 -0.9879
   52MOL   H30718769   0.929   2.283   5.425  1.6711 -3.1833  0.9736
   52MOL   C30818770   1.043   2.205   5.194  0.4923  0.9942 -0.3458
   52MOL   O30918771   1.062   2.329   5.171 -0.3680 -0.0455 -0.7648
   52MOL   C31018772   1.138   2.110   5.121 -0.0042  0.1757  0.6126
   52MOL   C31118773   1.178   2.164   4.979  0.2197  0.3169 -0.3360
   52MOL   C31218774   1.073   2.120   4.877 -0.1472 -0.5136  0.3546
   52MOL   C31318775   1.114   2.156   4.740  0.5082 -0.0443  0.5433
   52MOL   C31418776   1.027   2.102   4.627  0.6052 -0.4676 -0.9441
   52MOL   O31518777   0.898   2.155   4.635 -0.1426  0.3907  0.5600
   52MOL   H31618778   1.078   2.022   5.101 -0.7690  0.5856  1.0849
   52MOL   H31718779   1.217   2.073   5.187 -0.4458  2.0916  2.2892
   52MOL   H31818780   1.278   2.131   4.950  0.0520  1.1006 -1.8356
   52MOL   H31918781   1.196   2.271   4.981  2.9880 -0.1054 -0.2011
   52MOL   H32018782   0.979   2.173   4.894  0.0399 -0.2345  0.5037
   52MOL   H32118783   1.069   2.011   4.886  1.0925 -0.7055 -1.2587
   52MOL   H32218784   1.213   2.111   4.729  1.0630  1.7252 -2.2721
   52MOL   H32318785   1.133   2.263   4.740 -3.3267  0.7383 -1.8616
   52MOL   H32418786   1.073   2.111   4.528 -0.8228  0.2539 -1.5722
   52MOL   H32518787   1.015   1.994   4.627  1.1743 -0.5661  2.3348
   52MOL   C32618788   0.796   2.088   4.689  0.7038 -0.7272  0.1398
   52MOL   O32718789   0.797   1.965   4.711 -0.2451 -0.3792 -0.8299
   52MOL   C32818790   0.674   2.178   4.698  0.4115  0.9862  0.3756
   52MOL   C32918791   0.549   2.116   4.635 -0.6976 -0.0590 -0.3966
   52MOL   C33018792   0.415   2.188   4.671  0.2409 -0.4485  0.0189
   52MOL   C33118793   0.292   2.139   4.603 -0.6638 -0.0369 -0.3200
   52MOL   C33218794   0.176   2.238   4.627  0.2109 -0.5333 -0.1917
   52MOL   O33318795   0.070   2.174   4.554 -0.2217 -0.3187  0.2533
   52MOL   H33418796   0.710   2.272   4.655  3.4386  0.8320  2.3780
   52MOL   H33518797   0.646   2.209   4.799  0.6728  3.4195 -0.2458
   52MOL   H33618798   0.539   2.014   4.673  1.5751 -0.3773 -0.5850
   52MOL   H33718799   0.567   2.114   4.528  0.0165 -1.0081 -0.2636
   52MOL   H33818800   0.425   2.292   4.638  1.3299 -1.2148 -2.1655
   52MOL   H33918801   0.413   2.185   4.780  2.6876 -2.5496  0.0611
   52MOL   H34018802   0.266   2.037   4.631 -0.5066 -0.1616 -0.6256
   52MOL   H34118803   0.318   2.139   4.497 -0.3280 -1.9217 -0.2536
   52MOL   H34218804   0.155   2.235   4.734 -0.3713  1.3106 -0.2413
   52MOL   H34318805   0.198   2.336   4.586 -2.9024 -0.5331 -1.9644
   52MOL   C34418806   7.791   2.221   4.549  0.1130 -0.1846 -0.6066
   52MOL   O34518807   7.754   2.335   4.576  0.1204  0.1351 -0.2587
   52MOL   C34618808   7.688   2.122   4.500  0.1932  0.6616  1.0839
   52MOL   C34718809   7.556   2.175   4.447 -0.6568  0.1915 -0.1430
   52MOL   C34818810   7.474   2.068   4.380  0.1750 -0.0592 -0.2890
   52MOL   C34918811   7.371   2.004   4.468  0.3590  0.3376 -0.5189
   52MOL   C35018812   7.307   1.887   4.390 -0.0775 -0.0168 -0.3656
   52MOL   O35118813   7.206   1.824   4.470  0.2791 -0.1350 -0.0457
   52MOL   H35218814   7.666   2.058   4.585  0.6458 -0.2054  0.5550
   52MOL   H35318815   7.736   2.048   4.436  0.7601 -1.0433  3.4015
   52MOL   H35418816   7.560   2.248   4.365  0.4853  0.8406  0.4666
   52MOL   H35518817   7.499   2.215   4.531  0.2500  1.1428  0.0377
   52MOL   H35618818   7.539   1.994   4.333  0.2314 -0.4859  0.4452
   52MOL   H35718819   7.426   2.112   4.293  0.8268 -1.6848 -1.5063
   52MOL   H35818820   7.302   2.083   4.497  1.4603  0.9864  0.3893
   52MOL   H35918821   7.423   1.987   4.562 -0.2830  2.2289  0.1954
   52MOL   H36018822   7.269   1.902   4.289 -1.9055 -2.2502 -0.0644
   52MOL   H36118823   7.378   1.807   4.372 -0.6667 -0.4030 -1.0140
   52MOL   H36218824   7.192   1.733   4.446 -4.0238  0.1489  1.0103
   53MOL     C118825   0.454   4.093   2.400  0.2754  0.1845 -0.4187
   53MOL     O218826   0.446   4.043   2.510  0.8485  0.1496  0.0545
   53MOL     C318827   0.337   4.085   2.304  0.3115 -0.4647  0.2492
   53MOL     C418828   0.195   4.066   2.358 -0.0523 -0.7361  0.1602
   53MOL     C518829   0.139   3.931   2.396  0.2949  0.1310 -0.7914
   53MOL     C618830   7.839   3.916   2.450 -0.1958 -0.4080 -0.5107
   53MOL     C718831   7.791   3.771   2.458 -0.0454  0.4465  0.3893
   53MOL     O818832   7.788   3.712   2.331  0.1860 -0.0446 -0.5726
   53MOL     H918833   0.344   4.000   2.236  2.4864  0.5768 -0.8643
   53MOL    H1018834   0.337   4.177   2.246 -0.2951  0.2086  1.2919
   53MOL    H1118835   0.129   4.116   2.286  1.0240  0.0614 -0.2967
   53MOL    H1218836   0.197   4.125   2.449 -0.8526  2.1668 -1.6142
   53MOL    H1318837   0.215   3.883   2.458 -0.3812  0.9870  0.7210
   53MOL    H1418838   0.157   3.875   2.304 -0.4594 -0.3106 -0.6739
   53MOL    H1518839   7.763   3.957   2.383  0.2316  0.0206 -0.7345
   53MOL    H1618840   7.820   3.959   2.548 -3.2118  1.1838 -1.7294
   53MOL    H1718841   0.023   3.716   2.514  2.2092  0.8510 -2.1505
   53MOL    H1818842   7.695   3.762   2.508  0.1940 -1.1094  0.6044
   53MOL    H1918843   0.540   4.152   2.367  0.4857 -0.8506 -1.7622
   53MOL    C2018844   7.674   3.713   2.262  0.3737  0.3669  0.5512
   53MOL    O2118845   7.568   3.751   2.311 -0.4524 -0.3744  0.5309
   53MOL    C2218846   7.681   3.662   2.121 -0.6528 -0.4253  0.1410
   53MOL    C2318847   7.769   3.537   2.106  0.1623  0.1595 -0.5064
   53MOL    C2418848   0.072   3.567   2.058 -0.3171 -0.0163  0.3893
   53MOL    C2518849   0.172   3.445   2.068  0.0160 -0.2779 -0.0399
   53MOL    C2618850   0.311   3.487   2.018 -0.2402 -0.0580 -0.0244
   53MOL    O2718851   0.299   3.556   1.895  0.6914 -0.3434 -0.1877
   53MOL    H2818852   7.724   3.740   2.059 -0.3709 -1.7760 -1.4053
   53MOL    H2918853   7.579   3.644   2.086 -0.4852  0.4407 -0.7980
   53MOL    H3018854   7.718   3.464   2.044  0.1737 -0.8510  0.6612
   53MOL    H3118855   7.780   3.488   2.203 -2.3794 -1.6401 -1.0654
   53MOL    H3218856   0.120   3.648   2.113  1.3910 -0.3207 -0.6062
   53MOL    H3318857   0.062   3.600   1.955 -2.4048  3.2116  1.5586
   53MOL    H3418858   0.141   3.369   1.997 -0.6110 -0.6626  0.6345
   53MOL    H3518859   0.167   3.398   2.166  3.1450 -1.1768 -0.2616
   53MOL    H3618860   0.368   3.550   2.087 -0.4074  0.3506 -0.2540
   53MOL    H3718861   0.373   3.399   2.001 -1.6442 -0.8124 -1.3433
   53MOL    C3818862   0.347   3.678   1.882 -0.3952  0.2201  0.4649
   53MOL    O3918863   0.425   3.736   1.961  0.1335  0.2375  0.2249
   53MOL    C4018864   0.321   3.744   1.745  0.3697 -0.7065 -0.3442
   53MOL    C4118865   0.426   3.713   1.637 -0.3803  0.0475 -0.0431
   53MOL    C4218866   0.571   3.770   1.657 -0.2069  0.5952  0.5729
   53MOL    C4318867   0.665   3.734   1.546 -0.6083 -0.1760  0.5462
   53MOL    C4418868   0.814   3.737   1.574 -0.5389  0.1994  0.7533
   53MOL    O4518869   0.855   3.638   1.669 -0.4804 -0.3667  0.1460
   53MOL    H4618870   0.313   3.852   1.757  1.4295 -0.7176  0.6109
   53MOL    H4718871   0.226   3.703   1.711 -0.2678  0.0546  0.4706
   53MOL    H4818872   0.390   3.766   1.549  1.1597  0.9947 -0.1291
   53MOL    H4918873   0.423   3.608   1.608 -1.0435  0.4023 -1.2589
   53MOL    H5018874   0.607   3.739   1.755 -1.3419 -0.9649  0.5238
   53MOL    H5118875   0.557   3.878   1.660  1.6395  0.8747 -0.3660
   53MOL    H5218876   0.643   3.792   1.457 -0.9158 -0.0626  0.6943
   53MOL    H5318877   0.640   3.632   1.517  0.6572  0.0725 -1.4967
   53MOL    H5418878   0.869   3.719   1.482 -1.5605  1.9892 -0.2265
   53MOL    H5518879   0.841   3.835   1.615 -0.9356  0.7672 -0.3220
   53MOL    C5618880   0.979   3.644   1.725 -0.1807 -0.2018 -0.1447
   53MOL    O5718881   1.051   3.744   1.731  0.2822 -0.3296  0.3723
   53MOL    C5818882   1.022   3.516   1.794 -0.2811 -0.2624 -0.0011
   53MOL    C5918883   1.167   3.492   1.770  0.5707  0.0442 -0.4032
   53MOL    C6018884   1.197   3.425   1.634 -0.0279  0.4767 -0.5865
   53MOL    C6118885   1.348   3.384   1.620  0.4773  0.0224  0.0984
   53MOL    C6218886   1.390   3.303   1.497  0.3131 -0.0187  0.7864
   53MOL    O6318887   1.331   3.179   1.481  0.0020  0.1036 -0.2561
   53MOL    H6418888   0.961   3.446   1.736 -1.1839  0.4439  0.0900
   53MOL    H6518889   0.991   3.503   1.897 -0.2506 -0.4459 -0.0151
   53MOL    H6618890   1.210   3.415   1.834 -0.3008 -0.1403 -0.0304
   53MOL    H6718891   1.223   3.583   1.792  1.6035 -0.9898  1.2796
   53MOL    H6818892   1.159   3.494   1.558 -0.4864  0.3124 -0.5109
   53MOL    H6918893   1.137   3.336   1.617  1.5226 -0.4583 -1.1992
   53MOL    H7018894   1.367   3.323   1.708  1.0997 -0.5065 -0.3896
   53MOL    H7118895   1.415   3.470   1.623  0.6315  0.0097 -1.8506
   53MOL    H7218896   1.392   3.368   1.409  0.3823 -2.1307 -0.7969
   53MOL    H7318897   1.495   3.272   1.501  0.2863 -0.3128 -0.5340
   53MOL    C7418898   1.247   3.153   1.377 -0.4478  0.0811  1.2362
   53MOL    O7518899   1.220   3.229   1.285  0.1866 -0.1077  0.1676
   53MOL    C7618900   1.186   3.014   1.376  0.4300  0.1562  0.2012
   53MOL    C7718901   1.036   3.005   1.406 -0.2614 -0.2002  0.3607
   53MOL    C7818902   0.933   2.986   1.289  0.0649 -0.1032  0.1943
   53MOL    C7918903   0.801   2.937   1.342 -0.1186  0.1461  0.9181
   53MOL    C8018904   0.696   2.984   1.247 -0.8310 -0.1850 -0.0737
   53MOL    O8118905   0.567   2.981   1.305 -0.2312  0.2282 -0.7731
   53MOL    H8218906   1.241   2.962   1.455 -1.1318 -1.2835  0.3725
   53MOL    H8318907   1.210   2.964   1.282  1.4290 -2.3012  1.7198
   53MOL    H8418908   1.011   3.100   1.455  0.5044 -0.1086  0.5702
   53MOL    H8518909   1.017   2.931   1.484  1.2142 -0.3313  0.6027
   53MOL    H8618910   0.972   2.917   1.215  0.0467 -2.5981  2.4270
   53MOL    H8718911   0.929   3.075   1.226  0.3326 -0.8515 -0.8876
   53MOL    H8818912   0.777   2.971   1.442 -2.7436 -2.7550  1.3668
   53MOL    H8918913   0.812   2.828   1.343  1.8746  0.3186  0.3508
   53MOL    H9018914   0.713   3.087   1.218  0.2385 -0.8761 -2.0156
   53MOL    H9118915   0.704   2.928   1.154 -1.0268 -1.2679  0.5538
   53MOL    C9218916   0.465   3.020   1.236 -0.7878 -0.4728  0.1461
   53MOL    O9318917   0.470   3.076   1.124 -0.3490  0.5088 -0.4970
   53MOL    C9418918   0.339   2.989   1.309  0.3403 -0.7711 -0.7196
   53MOL    C9518919   0.219   3.075   1.268  0.0329  0.1079  0.0072
   53MOL    C9618920   0.087   2.998   1.279 -0.0939 -0.1457  0.0904
   53MOL    C9718921   0.040   2.961   1.422  0.1058 -0.1442 -0.7862
   53MOL    C9818922   7.750   2.881   1.410  0.4128 -0.2455 -0.9836
   53MOL    O9918923   7.695   2.840   1.534  0.3992 -0.0271 -0.5302
   53MOL   H10018924   0.345   3.017   1.414 -1.7834  0.0133 -0.7774
   53MOL   H10118925   0.325   2.881   1.309 -1.1310 -0.5890 -1.1127
   53MOL   H10218926   0.236   3.115   1.168  1.6915 -0.8290 -0.1034
   53MOL   H10318927   0.213   3.167   1.325 -4.3563  0.1213 -0.2461
   53MOL   H10418928   0.072   2.914   1.212 -1.9579 -0.5059  0.9302
   53MOL   H10518929   0.020   3.077   1.245  1.1074  1.7719  1.9998
   53MOL   H10618930   0.027   3.056   1.475  0.2887  1.2070 -3.1283
   53MOL   H10718931   0.115   2.901   1.473 -0.5371 -1.0026 -0.8329
   53MOL   H10818932   7.668   2.937   1.365 -0.3325  0.4608  1.1602
   53MOL   H10918933   7.778   2.794   1.352 -1.0863 -0.8691 -0.7837
   53MOL   C11018934   7.713   2.709   1.578 -0.5848  0.0558  0.0340
   53MOL   O11118935   7.776   2.622   1.517 -0.1170 -0.0021  0.6791
   53MOL   C11218936   7.645   2.685   1.705  0.1216 -0.2330 -0.6347
   53MOL   C11318937   7.501   2.724   1.697 -0.1889  0.2027  0.0281
   53MOL   C11418938   7.422   2.690   1.821 -0.5405  0.6352 -0.4291
   53MOL   C11518939   7.298   2.778   1.827  0.0285  0.6340 -0.3930
   53MOL   C11618940   7.317   2.920   1.872 -0.2860  0.5910 -0.2484
   53MOL   O11718941   7.197   2.997   1.856 -0.0905 -0.6256 -0.6830
   53MOL   H11818942   7.703   2.740   1.778  0.6204  1.1295 -2.0386
   53MOL   H11918943   7.661   2.579   1.725 -3.8577 -0.5354  1.4499
   53MOL   H12018944   7.464   2.657   1.619 -1.1641 -0.7284  1.2638
   53MOL   H12118945   7.505   2.833   1.688  1.6886  0.2396  1.2449
   53MOL   H12218946   7.479   2.705   1.912  0.5549 -2.0916 -0.6116
   53MOL   H12318947   7.400   2.583   1.818 -1.0987  0.6673  1.6749
   53MOL   H12418948   7.238   2.729   1.904 -0.1330  0.3080 -0.7225
   53MOL   H12518949   7.244   2.783   1.732 -0.8658  0.2897  0.0905
   53MOL   H12618950   7.339   2.913   1.978  0.9014  1.1286 -0.4488
   53MOL   H12718951   7.397   2.971   1.817 -0.6725  0.9129 -0.5156
   53MOL   C12818952   7.199   3.134   1.870  0.3655  0.2419  0.0394
   53MOL   O12918953   7.295   3.205   1.891  0.1889  0.1168 -0.5090
   53MOL   C13018954   7.058   3.192   1.861 -0.4202 -0.2094  0.5641
   53MOL   C13118955   6.989   3.193   1.993 -0.4397 -0.6785 -0.0580
   53MOL   C13218956   7.053   3.304   2.088  0.8172  0.1488 -0.3693
   53MOL   C13318957   6.956   3.332   2.207  0.9723  0.3524 -0.3963
   53MOL   C13418958   7.019   3.388   2.331 -0.7429  0.4369  0.0605
   53MOL   O13518959   7.085   3.510   2.307  0.4013  0.4764  0.9090
   53MOL   H13618960   7.008   3.129   1.787  3.1935 -2.5995  0.0409
   53MOL   H13718961   7.059   3.293   1.819 -0.8851 -1.1151 -1.6676
   53MOL   H13818962   6.994   3.092   2.036 -0.0801 -0.2308  0.9800
   53MOL   H13918963   6.882   3.206   1.977 -0.4640 -1.2494 -0.3696
   53MOL   H14018964   7.071   3.392   2.026 -2.7322  0.9659 -0.3646
   53MOL   H14118965   7.153   3.270   2.116  1.2369 -1.3495 -3.4604
   53MOL   H14218966   6.912   3.235   2.230  1.5071  0.3235  0.5332
   53MOL   H14318967   6.879   3.394   2.160  1.0427  0.8168  0.0914
   53MOL   H14418968   6.940   3.410   2.403 -0.1824  1.0044  0.5061
   53MOL   H14518969   7.088   3.319   2.378 -0.3017  1.0092  0.2599
   53MOL   C14618970   7.173   3.550   2.402 -0.5259  0.9231 -0.0329
   53MOL   O14718971   7.185   3.503   2.519 -0.6960  0.1862  0.0436
   53MOL   C14818972   7.263   3.667   2.360  0.4596 -0.5781  0.1566
   53MOL   C14918973   7.188   3.782   2.292  0.0881 -0.9483 -0.5859
   53MOL   C15018974   7.106   3.862   2.399  0.0694  0.3550  0.1955
   53MOL   C15118975   7.017   3.964   2.334 -0.4979  0.3510 -1.0204
   53MOL   C15218976   7.097   4.086   2.287 -0.0053  0.0188  0.1339
   53MOL   O15318977   7.003   4.187   2.256 -0.0153 -0.3157  0.2046
   53MOL   H15418978   7.326   3.627   2.281  0.6212 -1.1999  0.5972
   53MOL   H15518979   7.317   3.707   2.446 -0.1665 -0.5153  0.5247
   53MOL   H15618980   7.106   3.760   2.224 -0.9155 -1.3096  0.7203
   53MOL   H15718981   7.261   3.845   2.242 -0.3068  0.7115  0.8737
   53MOL   H15818982   7.166   3.905   2.479 -0.5262  2.5076 -0.4620
   53MOL   H15918983   7.042   3.801   2.462  1.7093 -2.1938 -0.5538
   53MOL   H16018984   6.941   3.990   2.407 -0.0713 -4.9716  1.5573
   53MOL   H16118985   6.961   3.917   2.253 -1.8996  0.5336 -0.1742
   53MOL   H16218986   7.161   4.126   2.366  0.9008 -0.0485 -0.5536
   53MOL   H16318987   7.155   4.063   2.197  0.0881  0.7200  0.0115
   53MOL   C16418988   7.039   4.310   2.234 -0.3838  0.8728  0.0656
   53MOL   O16518989   7.155   4.354   2.238 -0.0886  1.0532  0.4299
   53MOL   C16618990   6.924   4.391   2.181 -0.0071 -0.1450  0.3672
   53MOL   C16718991   6.843   4.326   2.067  0.1421  0.7832 -0.4514
   53MOL   C16818992   6.924   4.270   1.957  0.2181 -1.2024 -0.3041
   53MOL   C16918993   6.842   4.208   1.841 -0.7103  0.0575  0.0182
   53MOL   C17018994   6.917   4.163   1.715  0.3072  0.3537  0.1855
   53MOL   O17118995   6.949   4.267   1.627 -0.3142 -0.0773  0.1378
   53MOL   H17218996   6.978   4.481   2.149  0.6505 -1.5990 -2.8581
   53MOL   H17318997   6.852   4.417   2.258 -2.0092  1.2461 -1.9266
   53MOL   H17418998   6.787   4.404   2.016 -1.2759  0.5240  0.6704
   53MOL   H17518999   6.776   4.251   2.110 -0.3436  1.6132  0.2696
   53MOL   H17619000   7.017   4.219   1.978  1.8603  1.6310 -0.4249
   53MOL   H17719001   6.981   4.357   1.923  1.0690 -0.9367  1.7308
   53MOL   H17819002   6.768   4.281   1.807  0.4490  0.4791 -1.6568
   53MOL   H17919003   6.792   4.118   1.878 -0.4164  0.0658  0.4349
   53MOL   H18019004   7.007   4.110   1.747 -0.2078 -1.7404 -1.7443
   53MOL   H18119005   6.862   4.089   1.657 -0.5933  2.7192 -2.1097
   53MOL   C18219006   6.907   4.281   1.499  0.6092 -0.2372  0.0238
   53MOL   O18319007   6.824   4.222   1.434  0.6097 -0.2040 -0.0805
   53MOL   C18419008   6.976   4.410   1.430 -0.0567 -0.9199 -0.2322
   53MOL   C18519009   6.969   4.535   1.529 -0.1269 -0.3289 -0.3560
   53MOL   C18619010   7.066   4.539   1.652  0.1685  0.1064  0.1818
   53MOL   C18719011   7.138   4.674   1.662  0.6887 -0.0513 -0.4728
   53MOL   C18819012   7.235   4.685   1.775 -0.0941 -0.1064 -0.3712
   53MOL   O18919013   7.300   4.811   1.784 -0.1471  0.5044  0.3603
   53MOL   H19019014   6.924   4.436   1.338  2.4775 -1.3423 -1.8383
   53MOL   H19119015   7.078   4.386   1.399  0.6822  1.2743  0.3794
   53MOL   H19219016   6.865   4.555   1.552  0.3630  0.4524  1.3199
   53MOL   H19319017   6.992   4.621   1.465 -0.8786  0.0765 -0.0923
   53MOL   H19419018   7.135   4.455   1.644  0.1305 -0.3301  3.6291
   53MOL   H19519019   7.015   4.522   1.747  1.1998 -0.7539  0.5847
   53MOL   H19619020   7.062   4.751   1.666  0.1218 -0.5195 -1.9047
   53MOL   H19719021   7.197   4.684   1.571  1.5568 -0.2383  0.0634
   53MOL   H19819022   7.185   4.654   1.867  0.3499  1.0187  0.2568
   53MOL   H19919023   7.305   4.604   1.754  0.0859 -0.2342  0.6865
   53MOL   C20019024   7.422   4.825   1.726  0.0669  0.0689  0.3058
   53MOL   O20119025   7.475   4.749   1.646  0.7784 -0.1607  0.0106
   53MOL   C20219026   7.499   4.959   1.777 -0.5281  0.4195  0.6183
   53MOL   C20319027   7.598   5.017   1.675 -0.1727  0.2623  0.1376
   53MOL   C20419028   7.736   4.943   1.680 -1.0649  0.3979  0.7187
   53MOL   C20519029   7.837   4.987   1.570  0.6617 -0.2541  0.3368
   53MOL   C20619030   7.787   4.959   1.424 -0.6116 -0.0826  0.3824
   53MOL   O20719031   0.046   4.996   1.325  0.3398 -0.4014 -0.6850
   53MOL   H20819032   7.550   4.929   1.869 -3.3418 -1.5372  1.5916
   53MOL   H20919033   7.421   5.029   1.805  0.2798  1.1992  0.9607
   53MOL   H21019034   7.614   5.121   1.703  0.3599  0.3880 -0.6332
   53MOL   H21119035   7.555   5.040   1.578 -0.5048  1.9305  0.6660
   53MOL   H21219036   7.730   4.834   1.677 -0.1410  0.3954 -1.5969
   53MOL   H21319037   7.792   4.977   1.768 -0.8380  1.8990 -0.0012
   53MOL   H21419038   0.082   4.928   1.593 -0.5933 -1.3100  2.6039
   53MOL   H21519039   0.008   5.095   1.571  0.4438 -0.2250  0.8209
   53MOL   H21619040   7.761   4.854   1.419 -0.3580 -0.1403  0.2404
   53MOL   H21719041   7.692   5.006   1.400 -0.4623 -0.5116 -1.1149
   53MOL   C21819042   0.007   4.979   1.200  0.1374 -0.0987  0.4034
   53MOL   O21919043   7.748   4.936   1.159  0.7312 -0.1036 -0.4034
   53MOL   C22019044   0.120   5.012   1.104 -0.1143  0.4720 -0.1533
   53MOL   C22119045   0.153   4.900   1.009  0.5330 -0.6572 -0.2551
   53MOL   C22219046   0.242   4.789   1.080  0.7067 -0.1337 -0.4173
   53MOL   C22319047   0.258   4.676   0.980 -0.5288  0.1592 -0.2084
   53MOL   C22419048   0.361   4.572   1.026  0.0910 -0.2292  0.7947
   53MOL   O22519049   0.493   4.608   0.985 -0.0621 -0.1816  0.1108
   53MOL   H22619050   0.206   5.046   1.162 -0.7259 -2.0864  2.4215
   53MOL   H22719051   0.076   5.094   1.048 -0.0288 -0.2677 -1.3126
   53MOL   H22819052   0.197   4.932   0.915 -0.7705  1.5670 -0.1465
   53MOL   H22919053   0.059   4.853   0.982  1.2066 -2.7090  0.8985
   53MOL   H23019054   0.181   4.753   1.163  0.4768  1.0665 -0.0450
   53MOL   H23119055   0.336   4.837   1.105  0.8048  0.4252 -1.8362
   53MOL   H23219056   0.276   4.693   0.874 -0.1511 -1.9125 -0.4800
   53MOL   H23319057   0.167   4.617   0.987  1.2097 -2.4873  0.5655
   53MOL   H23419058   0.365   4.555   1.134  1.6829 -1.1420  0.6110
   53MOL   H23519059   0.338   4.476   0.980 -4.0195  1.0272  0.0874
   53MOL   C23619060   0.578   4.695   1.061  0.0658 -0.3011 -0.4162
   53MOL   O23719061   0.553   4.728   1.179 -0.6520 -0.0286 -0.0664
   53MOL   C23819062   0.706   4.724   0.991  0.5488  0.0978  0.4788
   53MOL   C23919063   0.761   4.870   1.023  0.8340 -0.8861 -0.3583
   53MOL   C24019064   0.681   4.985   0.969  0.4023  0.3685 -0.6613
   53MOL   C24119065   0.753   5.118   0.999  0.1025  0.1217 -0.5238
   53MOL   C24219066   0.659   5.237   0.988  0.2036  0.0765  0.3156
   53MOL   O24319067   0.543   5.216   1.079 -0.1835  0.2910  0.4756
   53MOL   H24419068   0.699   4.695   0.886  2.0428 -1.0366  0.6745
   53MOL   H24519069   0.785   4.658   1.027 -0.3095 -1.1079  0.2033
   53MOL   H24619070   0.864   4.876   0.987  2.6862 -2.4938  4.3505
   53MOL   H24719071   0.761   4.876   1.131  1.8641  0.0089 -0.4036
   53MOL   H24819072   0.581   4.986   1.014  0.6415  0.3314 -0.1275
   53MOL   H24919073   0.677   4.975   0.860  1.1385  1.7289 -0.8272
   53MOL   H25019074   0.840   5.141   0.937  0.9224  0.1198  0.6107
   53MOL   H25119075   0.792   5.122   1.100  0.0071 -2.7676 -0.3483
   53MOL   H25219076   0.723   5.325   0.993  0.5092 -0.2233  1.9628
   53MOL   H25319077   0.628   5.238   0.883  0.8465  1.1689  0.1324
   53MOL   C25419078   0.508   5.327   1.155 -0.2512  0.6638  0.2831
   53MOL   O25519079   0.554   5.440   1.156  0.1704 -0.0056 -0.7088
   53MOL   C25619080   0.399   5.288   1.252  0.0660  0.2326  0.5920
   53MOL   C25719081   0.446   5.174   1.345 -0.1424  0.2585 -0.2990
   53MOL   C25819082   0.344   5.150   1.464 -0.0368 -0.1672  0.3037
   53MOL   C25919083   0.372   5.029   1.538  0.6031 -0.6378  1.1822
   53MOL   C26019084   0.335   4.908   1.451  0.0723  0.1163  0.5472
   53MOL   O26119085   0.346   4.793   1.537 -0.3500  0.6644 -0.0441
   53MOL   H26219086   0.319   5.246   1.191  1.3137 -3.0002  1.0919
   53MOL   H26319087   0.367   5.381   1.299 -2.0459  0.0231 -0.3570
   53MOL   H26419088   0.538   5.209   1.392  0.5050 -0.8089 -0.7458
   53MOL   H26519089   0.464   5.081   1.290  0.1927 -0.8022  1.5676
   53MOL   H26619090   0.243   5.144   1.422 -0.8517 -0.8662  2.3442
   53MOL   H26719091   0.345   5.233   1.535  0.2230  2.9196 -3.1210
   53MOL   H26819092   0.305   5.038   1.624  0.0859 -1.2463  0.8487
   53MOL   H26919093   0.478   5.036   1.563  0.9908  1.6863 -0.9601
   53MOL   H27019094   0.233   4.915   1.412  0.7025 -1.7924 -1.5819
   53MOL   H27119095   0.400   4.892   1.365  0.1307 -0.9017  0.7722
   53MOL   C27219096   0.307   4.677   1.488  0.5343 -0.8099 -0.2603
   53MOL   O27319097   0.246   4.665   1.385 -0.0016 -0.0829  0.4046
   53MOL   C27419098   0.319   4.564   1.584 -0.2562 -0.9865  0.1046
   53MOL   C27519099   0.191   4.508   1.647 -0.2309  1.1022  0.3982
   53MOL   C27619100   0.140   4.595   1.758  0.0945 -0.1761 -0.6723
   53MOL   C27719101   0.012   4.531   1.814  0.3628 -0.5736  0.5184
   53MOL   C27819102   7.767   4.631   1.893  0.1950 -0.4845  0.0491
   53MOL   O27919103   7.662   4.558   1.958  0.1426  0.6712  0.4453
   53MOL   H28019104   0.385   4.580   1.670 -0.7245 -0.1278  0.3105
   53MOL   H28119105   0.371   4.493   1.520 -1.3374  0.4429 -2.4447
   53MOL   H28219106   0.197   4.408   1.691  1.2001  1.0976  0.2227
   53MOL   H28319107   0.118   4.496   1.567  0.7810 -0.6750 -0.2816
   53MOL   H28419108   0.115   4.693   1.717 -1.8992 -0.7798 -0.9586
   53MOL   H28519109   0.218   4.614   1.831 -0.7636 -0.9321  0.4748
   53MOL   H28619110   0.038   4.438   1.865  0.5166 -1.4712 -1.1539
   53MOL   H28719111   7.780   4.505   1.740 -0.4633  4.0159 -0.3646
   53MOL   H28819112   7.822   4.700   1.956  1.1781  1.2167 -2.5904
   53MOL   H28919113   7.721   4.701   1.823  2.3100  2.2619  1.3452
   53MOL   C29019114   7.566   4.629   2.028 -0.3324 -0.2478  0.1980
   53MOL   O29119115   7.563   4.747   2.041  0.0703  0.0515  0.6554
   53MOL   C29219116   7.462   4.535   2.091 -0.0040 -0.1759 -0.5150
   53MOL   C29319117   7.401   4.423   1.998  0.1311 -0.5128  0.6179
   53MOL   C29419118   7.451   4.288   2.046  0.2280  0.1811  0.3686
   53MOL   C29519119   7.400   4.159   1.984 -0.5839 -0.0613  0.3699
   53MOL   C29619120   7.445   4.029   2.052 -0.5469 -0.1584 -0.1016
   53MOL   O29719121   7.585   4.006   2.012  0.2637  0.1256 -0.7625
   53MOL   H29819122   7.379   4.594   2.129  0.3250  0.0997 -0.2159
   53MOL   H29919123   7.504   4.497   2.184 -0.2964 -1.4740 -0.9119
   53MOL   H30019124   7.433   4.430   1.893 -1.8080  0.1199  0.0581
   53MOL   H30119125   7.293   4.424   2.006 -0.1079 -1.1027 -1.9573
   53MOL   H30219126   7.429   4.280   2.153 -0.9681 -1.4238  0.0226
   53MOL   H30319127   7.560   4.292   2.048  0.2120  0.5105  0.6702
   53MOL   H30419128   7.419   4.160   1.877  2.8360  2.7719  0.9026
   53MOL   H30519129   7.292   4.160   1.998 -0.8550  1.6403 -1.6906
   53MOL   H30619130   7.432   4.024   2.160 -1.9298  1.2191 -0.1862
   53MOL   H30719131   7.393   3.946   2.003  2.8683 -0.8528 -2.7592
   53MOL   C30819132   7.677   4.049   2.084 -0.1906 -0.1037  0.1438
   53MOL   O30919133   7.668   4.106   2.193  0.1501  0.1108  0.7506
   53MOL   C31019134   7.812   4.001   2.036 -0.1180  0.2461 -0.1777
   53MOL   C31119135   0.035   4.108   1.964 -0.5836 -0.1707 -0.2713
   53MOL   C31219136   0.161   4.059   1.904 -0.4426  0.3463  0.2666
   53MOL   C31319137   0.246   4.161   1.826  1.2017  0.2498 -0.2670
   53MOL   C31419138   0.384   4.117   1.774 -0.9363  1.1782  0.5461
   53MOL   O31519139   0.475   4.069   1.873 -0.2703  0.0381  0.2081
   53MOL   H31619140   7.797   3.912   1.974 -0.1492 -0.1504  0.3986
   53MOL   H31719141   0.029   3.979   2.123  0.6262  2.9162 -0.0126
   53MOL   H31819142   0.059   4.186   2.037  1.9633  0.0339 -1.2696
   53MOL   H31919143   7.820   4.158   1.888  1.0356  1.0347 -0.7531
   53MOL   H32019144   0.143   3.980   1.832  1.5242  0.7736 -0.7427
   53MOL   H32119145   0.227   4.020   1.982 -0.0822 -0.1241 -0.2677
   53MOL   H32219146   0.258   4.250   1.887 -2.7910  1.8803 -1.6631
   53MOL   H32319147   0.198   4.206   1.739 -2.8078 -0.3485  1.5032
   53MOL   H32419148   0.368   4.045   1.693  1.4673 -0.6541  1.6111
   53MOL   H32519149   0.419   4.209   1.728 -3.3557  0.8579 -2.0253
   53MOL   C32619150   0.608   4.069   1.842  0.4254 -0.3932  0.8362
   53MOL   O32719151   0.652   4.089   1.726 -1.0447  0.0725 -0.9920
   53MOL   C32819152   0.697   4.048   1.963  0.0634  0.6181 -0.4947
   53MOL   C32919153   0.784   3.923   1.953 -0.1078  0.3035  0.5493
   53MOL   C33019154   0.852   3.893   2.093 -0.4260  0.6215 -0.0792
   53MOL   C33119155   0.930   3.765   2.085 -0.2013 -0.2148 -0.4147
   53MOL   C33219156   1.017   3.745   2.208  0.0329  0.2263  0.0820
   53MOL   O33319157   1.110   3.641   2.196 -0.1447 -0.1892  0.3397
   53MOL   H33419158   0.623   4.021   2.038 -0.2737  2.5868 -0.0809
   53MOL   H33519159   0.756   4.134   1.995 -0.8711  0.9988  0.2432
   53MOL   H33619160   0.859   3.924   1.874 -1.8751 -1.1614 -1.1996
   53MOL   H33719161   0.713   3.845   1.926  3.0356 -2.0081 -1.4510
   53MOL   H33819162   0.783   3.875   2.176 -0.4468 -0.1940 -0.2693
   53MOL   H33919163   0.909   3.981   2.122  1.7863 -0.9359  0.4468
   53MOL   H34019164   0.983   3.745   1.992 -0.7463 -0.6780 -0.6340
   53MOL   H34119165   0.858   3.683   2.075 -0.6352  0.0352  0.4978
   53MOL   H34219166   1.079   3.835   2.213 -1.4810  1.4661 -2.2920
   53MOL   H34319167   0.970   3.736   2.306  2.4588  1.0654  1.3646
   53MOL   C34419168   1.136   3.559   2.302  0.5909  0.7641  0.5069
   53MOL   O34519169   1.110   3.585   2.419 -0.7476 -0.0846 -0.1289
   53MOL   C34619170   1.186   3.427   2.262 -0.6878  0.3778 -0.8667
   53MOL   C34719171   1.295   3.425   2.157 -0.3519 -0.7993  1.0633
   53MOL   C34819172   1.338   3.286   2.104  0.5829 -0.5909 -0.4400
   53MOL   C34919173   1.431   3.217   2.204  0.0861  0.4837 -0.0899
   53MOL   C35019174   1.460   3.067   2.183  0.2846 -0.5245  0.3192
   53MOL   O35119175   1.343   2.982   2.200 -0.2238  0.0030  0.2248
   53MOL   H35219176   1.097   3.369   2.240 -0.5265 -0.8733  1.4950
   53MOL   H35319177   1.225   3.377   2.351 -1.3471 -0.6247 -1.1391
   53MOL   H35419178   1.381   3.476   2.201  0.4839 -0.7073 -0.6460
   53MOL   H35519179   1.261   3.484   2.072 -0.8776 -1.4531  0.8149
   53MOL   H35619180   1.390   3.283   2.009  1.4906 -0.2932  0.0391
   53MOL   H35719181   1.246   3.227   2.095  0.4492 -0.3302 -0.7843
   53MOL   H35819182   1.396   3.231   2.306  0.3763 -0.3417  0.1293
   53MOL   H35919183   1.528   3.266   2.197  1.6974 -2.4606  0.5534
   53MOL   H36019184   1.491   3.052   2.079  1.5747  1.2769  0.4167
   53MOL   H36119185   1.548   3.043   2.243  1.6196  0.5572 -1.1425
   53MOL   H36219186   1.272   3.000   2.141 -2.2239 -0.7601  2.2964
   54MOL     C119187   6.331   0.681   4.551 -0.7435  0.6743 -0.2870
   54MOL     O219188   6.296   0.587   4.483  0.0433  0.2108  0.4212
   54MOL     C319189   6.262   0.819   4.547 -0.5477  0.3726  0.0841
   54MOL     C419190   6.293   0.892   4.416 -0.1974  1.1223 -0.8282
   54MOL     C519191   6.440   0.938   4.410  0.1503 -0.3064 -0.4090
   54MOL     C619192   6.483   1.081   4.450 -0.4199  0.7315  0.8350
   54MOL     C719193   6.628   1.107   4.422 -0.3184  0.5430 -0.4747
   54MOL     O819194   6.650   1.243   4.394  0.2207 -0.2836  0.5100
   54MOL     H919195   6.305   0.877   4.628 -1.3896  1.8638 -0.5249
   54MOL    H1019196   6.156   0.806   4.568 -0.5740  1.1330  0.4137
   54MOL    H1119197   6.236   0.984   4.402  2.1649  2.2868 -3.4382
   54MOL    H1219198   6.271   0.824   4.333 -0.3467  0.6818 -0.4255
   54MOL    H1319199   6.460   0.956   4.305 -0.6803 -0.9622 -0.6850
   54MOL    H1419200   6.505   0.863   4.456  0.8550  0.9840  0.7322
   54MOL    H1519201   6.447   1.090   4.552  0.0017  1.2435  0.9428
   54MOL    H1619202   6.419   1.147   4.392 -1.0563  0.9042  1.7304
   54MOL    H1719203   6.691   1.089   4.510 -0.2054 -1.3480 -0.9332
   54MOL    H1819204   6.672   1.048   4.342 -0.2771  1.5249 -1.1864
   54MOL    H1919205   6.413   0.661   4.620 -0.4780 -1.0944 -1.0754
   54MOL    C2019206   6.773   1.294   4.389 -0.2228  0.1139 -0.4950
   54MOL    O2119207   6.876   1.230   4.413  0.2223  0.2807  0.0757
   54MOL    C2219208   6.781   1.442   4.356  0.0861  0.5703 -0.2807
   54MOL    C2319209   6.857   1.522   4.466  0.2556  0.2415 -0.1022
   54MOL    C2419210   6.763   1.624   4.534  1.0842 -0.0892 -0.0631
   54MOL    C2519211   6.851   1.698   4.633 -0.1374 -0.6728 -0.1305
   54MOL    C2619212   6.797   1.827   4.678  0.2488 -0.2410  0.1597
   54MOL    O2719213   6.664   1.810   4.717  0.3397 -0.5525 -0.0114
   54MOL    H2819214   6.689   1.486   4.319  0.1685 -0.6833 -2.0345
   54MOL    H2919215   6.838   1.435   4.263 -2.1139  3.6447 -1.9470
   54MOL    H3019216   6.942   1.576   4.424 -0.1098  1.8435  1.1459
   54MOL    H3119217   6.902   1.459   4.542 -0.8828  0.7516  1.0136
   54MOL    H3219218   6.670   1.588   4.578  1.5795  1.2442  2.1642
   54MOL    H3319219   6.730   1.696   4.459 -0.8997  0.6265  1.4378
   54MOL    H3419220   6.952   1.714   4.595 -0.8829 -1.6230 -2.6376
   54MOL    H3519221   6.851   1.637   4.723 -3.0002 -2.9802 -1.5920
   54MOL    H3619222   6.856   1.876   4.756  1.1697  0.7149 -1.1080
   54MOL    H3719223   6.790   1.909   4.606 -1.5247 -1.5554 -1.2047
   54MOL    C3819224   6.599   1.877   4.807 -1.1129  0.2604 -0.0441
   54MOL    O3919225   6.648   1.972   4.868  0.2467  0.1659 -0.4707
   54MOL    C4019226   6.457   1.825   4.828 -0.5242 -0.0450  0.1459
   54MOL    C4119227   6.379   1.920   4.913 -0.1779 -0.5086 -0.1424
   54MOL    C4219228   6.221   1.902   4.910 -0.0513 -0.5021  0.3217
   54MOL    C4319229   6.183   1.762   4.958 -0.8308 -0.2174 -0.1609
   54MOL    C4419230   6.231   1.747   5.106  0.3241  0.4605 -0.3578
   54MOL    O4519231   6.195   1.618   5.162 -0.1330  0.3600 -0.1908
   54MOL    H4619232   6.460   1.733   4.886  1.1779 -0.9589 -1.3541
   54MOL    H4719233   6.401   1.801   4.737 -0.1445 -1.3141  0.2415
   54MOL    H4819234   6.397   2.014   4.860 -0.8522 -0.2530  0.0729
   54MOL    H4919235   6.426   1.918   5.011 -4.3514  0.9170  2.0221
   54MOL    H5019236   6.179   1.911   4.809 -1.5792  0.3570  1.0210
   54MOL    H5119237   6.180   1.978   4.976 -3.3739 -1.8178 -0.1193
   54MOL    H5219238   6.226   1.684   4.895 -0.1508 -0.5308  0.6825
   54MOL    H5319239   6.076   1.740   4.947 -1.2734  1.8488 -0.2149
   54MOL    H5419240   6.335   1.773   5.121  0.2455  0.0351  1.0101
   54MOL    H5519241   6.171   1.816   5.166 -0.0914  0.0977 -0.3452
   54MOL    C5619242   6.294   1.537   5.206  0.5621  0.0872 -0.1738
   54MOL    O5719243   6.410   1.542   5.191  0.0087  0.2801 -0.3385
   54MOL    C5819244   6.228   1.431   5.297 -0.2412 -0.0977 -0.5935
   54MOL    C5919245   6.327   1.362   5.392 -0.1775  0.1510 -0.1503
   54MOL    C6019246   6.344   1.428   5.532 -0.0019  1.1937  0.0184
   54MOL    C6119247   6.476   1.386   5.604  0.1066  0.4187  0.0396
   54MOL    C6219248   6.596   1.458   5.559  0.7650  0.7426 -0.6609
   54MOL    O6319249   6.712   1.428   5.633 -0.1766 -0.0384 -0.0551
   54MOL    H6419250   6.204   1.350   5.228 -0.2855  0.7409 -1.5812
   54MOL    H6519251   6.142   1.476   5.345  1.1145  2.3799 -0.3655
   54MOL    H6619252   6.420   1.351   5.336 -0.3212 -1.8111 -0.0185
   54MOL    H6719253   6.288   1.264   5.416 -0.8185 -0.1838 -2.4238
   54MOL    H6819254   6.256   1.418   5.595  0.6249  3.1697  1.2563
   54MOL    H6919255   6.354   1.537   5.532  1.0400  1.0977  0.0396
   54MOL    H7019256   6.486   1.279   5.582  0.1674  0.7245 -1.4496
   54MOL    H7119257   6.460   1.413   5.708  1.0439 -1.1729  0.6128
   54MOL    H7219258   6.607   1.445   5.451  0.4883  1.4712 -0.7803
   54MOL    H7319259   6.579   1.564   5.579 -1.3417  0.4790 -0.8591
   54MOL    C7419260   6.795   1.334   5.592  0.0404 -1.0820 -0.3003
   54MOL    O7519261   6.772   1.259   5.492  0.4350  0.2957 -0.1141
   54MOL    C7619262   6.914   1.312   5.678 -0.0295  0.1980 -0.8379
   54MOL    C7719263   6.892   1.187   5.767 -0.5071  0.2959 -0.5733
   54MOL    C7819264   7.010   1.150   5.857 -0.1940 -0.1903  0.5227
   54MOL    C7919265   6.991   1.032   5.952 -0.2114  0.3949 -1.0054
   54MOL    C8019266   7.119   0.978   6.020 -0.0298 -0.4459  0.2740
   54MOL    O8119267   7.213   0.959   5.917 -0.8573 -0.1834  0.4722
   54MOL    H8219268   6.940   1.400   5.737  1.6931 -0.1072 -1.1104
   54MOL    H8319269   6.993   1.287   5.607  0.2308 -1.3630 -0.0081
   54MOL    H8419270   6.882   1.097   5.706  0.4561 -1.0408  1.2060
   54MOL    H8519271   6.795   1.200   5.816 -0.5224  1.4856 -0.8939
   54MOL    H8619272   7.031   1.241   5.914  2.0010 -0.5192  0.2721
   54MOL    H8719273   7.093   1.147   5.787  0.1326 -0.3526  0.9211
   54MOL    H8819274   6.955   0.944   5.899 -2.8782 -0.0808  1.4804
   54MOL    H8919275   6.909   1.057   6.020  0.7932  0.3635  0.2377
   54MOL    H9019276   7.138   1.050   6.099 -0.7589  1.3599 -1.1496
   54MOL    H9119277   7.099   0.880   6.063 -2.1313 -1.0465 -1.9726
   54MOL    C9219278   7.304   0.865   5.921 -1.1108 -0.6672  0.4350
   54MOL    O9319279   7.320   0.792   6.015 -0.1469 -0.3964 -0.1531
   54MOL    C9419280   7.398   0.860   5.795 -0.1519 -0.4417 -0.1407
   54MOL    C9519281   7.461   1.000   5.785  0.7597  0.1166  0.6094
   54MOL    C9619282   7.429   1.066   5.648  0.2342 -0.5305 -0.4474
   54MOL    C9719283   7.515   1.190   5.618  0.0380 -0.1042  0.1313
   54MOL    C9819284   7.464   1.262   5.491 -0.4973 -0.0990  0.5710
   54MOL    O9919285   7.554   1.376   5.462 -0.1024  0.2688  0.0365
   54MOL   H10019286   7.336   0.833   5.709  1.6861 -1.5300 -1.1327
   54MOL   H10119287   7.475   0.784   5.802 -0.1442 -0.3314  1.1475
   54MOL   H10219288   7.567   0.980   5.792  0.8724  0.1820 -0.7659
   54MOL   H10319289   7.434   1.067   5.868  0.8724  0.1394  0.6269
   54MOL   H10419290   7.325   1.096   5.642  0.8046  1.7258  0.3726
   54MOL   H10519291   7.438   0.990   5.570  1.2399  0.6753 -1.5317
   54MOL   H10619292   7.620   1.161   5.613  0.0337 -0.7823  2.8337
   54MOL   H10719293   7.519   1.259   5.702 -1.7228 -1.5178  1.4228
   54MOL   H10819294   7.467   1.195   5.405 -2.3837  0.5375 -0.0072
   54MOL   H10919295   7.365   1.304   5.508  0.0505  1.2850  0.3829
   54MOL   C11019296   7.651   1.373   5.365 -0.2841 -0.6894  1.0608
   54MOL   O11119297   7.675   1.280   5.288 -0.7163 -0.0272  0.0268
   54MOL   C11219298   7.723   1.512   5.361  0.2393 -0.6862 -1.3905
   54MOL   C11319299   7.821   1.528   5.241  0.0675  0.0489 -0.5118
   54MOL   C11419300   0.114   1.458   5.267 -0.7077 -0.7600  0.2615
   54MOL   C11519301   0.209   1.464   5.142  0.0433 -0.2925 -0.5868
   54MOL   C11619302   0.351   1.407   5.186 -0.1784  0.2176  0.5662
   54MOL   O11719303   0.364   1.278   5.139  0.1074 -0.4083  0.0662
   54MOL   H11819304   7.778   1.532   5.453 -0.7215 -1.2009 -0.7020
   54MOL   H11919305   7.644   1.587   5.355  1.8044  1.2591  1.5287
   54MOL   H12019306   7.831   1.632   5.211  0.8326 -0.6381 -2.7224
   54MOL   H12119307   7.776   1.485   5.152  1.2567 -1.6180 -0.3464
   54MOL   H12219308   0.095   1.359   5.309 -3.4885 -0.2354  0.2965
   54MOL   H12319309   0.157   1.509   5.354 -2.1492 -0.1486  0.6321
   54MOL   H12419310   0.214   1.567   5.107 -2.1248 -0.1891 -0.6257
   54MOL   H12519311   0.169   1.413   5.053 -1.2972 -2.2252  1.0714
   54MOL   H12619312   0.429   1.470   5.142  0.0285  0.4871  1.3090
   54MOL   H12719313   0.377   1.405   5.292  2.0917  0.1690  0.0404
   54MOL   C12819314   0.407   1.252   5.013  0.0750  0.1280  0.1986
   54MOL   O12919315   0.446   1.334   4.927  0.4103  0.5716 -0.4435
   54MOL   C13019316   0.398   1.106   4.982 -0.5863  0.1957 -0.7986
   54MOL   C13119317   0.255   1.067   4.934  0.6688 -0.0054 -0.8351
   54MOL   C13219318   0.229   0.912   4.925  0.0930 -0.2800 -0.1650
   54MOL   C13319319   0.115   0.884   4.820  0.1509  0.7253 -0.7009
   54MOL   C13419320   0.100   0.736   4.790 -0.5405  0.4841 -0.5650
   54MOL   O13519321   7.827   0.727   4.704 -0.0804 -0.1282 -0.3840
   54MOL   H13619322   0.439   1.039   5.058 -0.8472  0.9595  0.0225
   54MOL   H13719323   0.467   1.094   4.897 -0.8456  2.5370 -1.3877
   54MOL   H13819324   0.228   1.112   4.839 -0.9509 -1.1833 -0.9543
   54MOL   H13919325   0.189   1.108   5.011  1.0674 -0.2618 -0.3506
   54MOL   H14019326   0.207   0.858   5.018 -0.7284  2.3800  1.2477
   54MOL   H14119327   0.307   0.854   4.875  1.7931  0.1023  1.9655
   54MOL   H14219328   0.133   0.930   4.723  0.8790 -1.3564 -1.5642
   54MOL   H14319329   0.023   0.934   4.853 -0.1666  0.3069 -0.9586
   54MOL   H14419330   0.185   0.685   4.744 -0.6718  1.3941 -1.8223
   54MOL   H14519331   0.081   0.680   4.882 -0.0620  2.4390  0.7558
   54MOL   C14619332   7.758   0.611   4.692 -0.3388 -0.3586 -0.4986
   54MOL   O14719333   7.781   0.509   4.757 -0.0170  0.1992  0.2213
   54MOL   C14819334   7.648   0.621   4.591 -0.0362  0.2301  0.1451
   54MOL   C14919335   7.525   0.705   4.641  0.9810  0.2559  0.0496
   54MOL   C15019336   7.422   0.725   4.526  0.4630  0.4754  0.2105
   54MOL   C15119337   7.282   0.771   4.574 -0.3079  0.1190 -0.7915
   54MOL   C15219338   7.181   0.776   4.464 -0.7016 -0.6550  0.1527
   54MOL   O15319339   7.210   0.885   4.376 -0.4283  0.2635  0.1440
   54MOL   H15419340   7.614   0.523   4.556 -0.6488  0.1745  0.8802
   54MOL   H15519341   7.696   0.669   4.506 -0.4577  0.5944  0.1073
   54MOL   H15619342   7.549   0.806   4.675 -0.1744  0.0017  1.6551
   54MOL   H15719343   7.485   0.658   4.731  2.0656  1.8275  1.3799
   54MOL   H15819344   7.402   0.641   4.459 -1.1110  1.8725 -1.1283
   54MOL   H15919345   7.459   0.797   4.453 -2.9019  0.2101 -1.8551
   54MOL   H16019346   7.290   0.861   4.635 -2.8034  0.3698 -0.7699
   54MOL   H16119347   7.237   0.687   4.627 -0.3026  0.5597 -0.0814
   54MOL   H16219348   7.190   0.675   4.423 -0.2352  0.1005 -1.6446
   54MOL   H16319349   7.077   0.785   4.493 -0.9445 -0.7280 -0.6818
   54MOL   C16419350   7.234   0.861   4.239 -0.3176  0.4116 -0.2820
   54MOL   O16519351   7.218   0.749   4.182  0.3719 -0.1560  0.4443
   54MOL   C16619352   7.295   0.983   4.172 -0.3361 -0.4135  0.1080
   54MOL   C16719353   7.316   0.974   4.018  0.3243 -0.3800 -0.1831
   54MOL   C16819354   7.339   1.114   3.959 -1.1352  0.1139  0.7299
   54MOL   C16919355   7.342   1.105   3.801 -0.5382 -0.0626 -0.1262
   54MOL   C17019356   7.328   1.243   3.734  1.0034  0.1236  0.4703
   54MOL   O17119357   7.316   1.222   3.593 -0.3087 -0.1942  0.5768
   54MOL   H17219358   7.395   0.982   4.217  0.0603 -1.9308 -0.7671
   54MOL   H17319359   7.217   1.057   4.188  0.1916  0.2474 -0.3197
   54MOL   H17419360   7.223   0.933   3.977 -0.7074 -0.0924  1.7678
   54MOL   H17519361   7.391   0.899   3.995  1.1964  0.5108 -0.2547
   54MOL   H17619362   7.437   1.148   3.995 -1.4250  0.0662  1.5767
   54MOL   H17719363   7.258   1.181   3.988  0.6696  2.0493  1.4120
   54MOL   H17819364   7.252   1.053   3.768 -0.9775  0.2225  0.6079
   54MOL   H17919365   7.425   1.049   3.758  0.4279  1.5977 -0.4836
   54MOL   H18019366   7.237   1.284   3.779  0.7937 -2.2817  2.3800
   54MOL   H18119367   7.417   1.299   3.761  2.3519 -2.0951  0.7833
   54MOL   C18219368   7.429   1.243   3.517  0.4828  0.0297  0.4932
   54MOL   O18319369   7.541   1.255   3.564 -0.2998  0.0964  0.3613
   54MOL   C18419370   7.402   1.232   3.363  0.6661 -1.0563 -0.3522
   54MOL   C18519371   7.521   1.297   3.283  0.0770 -0.1921  0.1334
   54MOL   C18619372   7.483   1.353   3.143 -0.3783  0.0687  0.0837
   54MOL   C18719373   7.400   1.482   3.158  0.5280 -0.5356  0.2326
   54MOL   C18819374   7.394   1.568   3.037  0.0852 -0.2443  0.2613
   54MOL   O18919375   7.296   1.665   3.057  0.2449  0.6585  0.1265
   54MOL   H19019376   7.309   1.282   3.336  1.5499  0.7288 -0.1563
   54MOL   H19119377   7.393   1.125   3.341  1.3267 -1.7104  2.3930
   54MOL   H19219378   7.599   1.221   3.272  0.8121  0.4709  0.6727
   54MOL   H19319379   7.576   1.374   3.337  0.4916 -0.1467 -0.3465
   54MOL   H19419380   7.432   1.271   3.093 -0.9763  0.5910 -0.1692
   54MOL   H19519381   7.567   1.374   3.078 -1.2689  0.8039 -0.8489
   54MOL   H19619382   7.442   1.542   3.238 -1.2967 -2.2733  2.6014
   54MOL   H19719383   7.303   1.453   3.200  1.3493 -0.5286  2.1771
   54MOL   H19819384   7.494   1.610   3.023  0.6051 -2.0949 -1.7876
   54MOL   H19919385   7.392   1.510   2.944  0.0450  2.5395 -1.5294
   54MOL   C20019386   7.230   1.722   2.955  0.1152  0.1993  0.0937
   54MOL   O20119387   7.255   1.701   2.841 -0.2584 -0.2849 -0.7043
   54MOL   C20219388   7.112   1.804   3.000  0.2168 -0.2709  0.0190
   54MOL   C20319389   7.134   1.923   3.093  0.3795 -0.3012  0.2726
   54MOL   C20419390   7.008   2.018   3.118 -0.0803  0.0042  0.5005
   54MOL   C20519391   7.068   2.151   3.174  0.2882 -0.7398  0.3748
   54MOL   C20619392   6.953   2.261   3.184  0.0858  0.3978 -1.2940
   54MOL   O20719393   7.004   2.373   3.247  0.0263  0.3172 -0.3931
   54MOL   H20819394   7.031   1.742   3.039  1.2830 -2.4480 -1.1647
   54MOL   H20919395   7.067   1.846   2.911  2.6361  2.5513  0.0482
   54MOL   H21019396   7.215   1.976   3.043 -0.2356  0.7658  0.3919
   54MOL   H21119397   7.182   1.885   3.183  1.0808  1.1551  0.5310
   54MOL   H21219398   6.941   1.973   3.192 -0.7096 -0.9599 -0.6469
   54MOL   H21319399   6.957   2.025   3.022  2.3382 -0.0201 -0.8183
   54MOL   H21419400   7.138   2.190   3.100 -0.5787  1.1645  0.5234
   54MOL   H21519401   7.120   2.138   3.269 -1.1385 -0.3398  1.2261
   54MOL   H21619402   6.913   2.289   3.087  1.6690  0.5783 -1.9139
   54MOL   H21719403   6.868   2.228   3.244  2.0080 -1.0102  0.7484
   54MOL   C21819404   7.068   2.472   3.180  0.0916 -0.3851  0.4319
   54MOL   O21919405   7.100   2.475   3.065 -0.3699  0.3983  0.4006
   54MOL   C22019406   7.098   2.592   3.271  0.0494  0.3204  0.0828
   54MOL   C22119407   7.134   2.719   3.191 -0.4909 -0.1105 -0.1049
   54MOL   C22219408   7.243   2.798   3.267 -0.1330  0.4253  0.1567
   54MOL   C22319409   7.288   2.917   3.183  0.5360  0.1012  0.1484
   54MOL   C22419410   7.377   3.011   3.269  0.4738  0.1288  0.8527
   54MOL   O22519411   7.394   3.141   3.207  0.2978  0.1122  0.2584
   54MOL   H22619412   7.186   2.550   3.319  2.3307  2.0767 -2.3862
   54MOL   H22719413   7.030   2.589   3.356  0.8217 -4.0595  0.6719
   54MOL   H22819414   7.043   2.779   3.193  0.2031  0.9792 -0.4966
   54MOL   H22919415   7.161   2.710   3.085  2.4060  1.9994  0.3907
   54MOL   H23019416   7.314   2.720   3.294 -1.1058 -0.9351 -1.1170
   54MOL   H23119417   7.198   2.830   3.361  0.4232 -1.6615  1.1520
   54MOL   H23219418   7.209   2.973   3.133  0.9454 -0.3657 -1.0148
   54MOL   H23319419   7.340   2.882   3.094  1.3363 -2.4711  1.5789
   54MOL   H23419420   7.352   3.013   3.375  0.9306 -0.7369  0.9787
   54MOL   H23519421   7.479   2.977   3.250  0.5340  1.7663 -2.1314
   54MOL   C23619422   7.321   3.246   3.240  0.2130 -0.3325  0.4387
   54MOL   O23719423   7.232   3.238   3.327  0.5039  0.1732 -0.3205
   54MOL   C23819424   7.354   3.376   3.171 -0.2430  0.1558 -0.2159
   54MOL   C23919425   7.384   3.370   3.020  0.4663 -0.6068  0.1123
   54MOL   C24019426   7.273   3.317   2.924 -0.4451  0.0552 -0.0033
   54MOL   C24119427   7.327   3.279   2.781  0.2999 -0.0183  0.8858
   54MOL   C24219428   7.220   3.242   2.675  0.6010  0.1246  0.2188
   54MOL   O24319429   7.140   3.131   2.721  0.4709 -0.2402  0.0655
   54MOL   H24419430   7.435   3.426   3.224  1.4259 -1.3313 -1.3500
   54MOL   H24519431   7.265   3.437   3.187  0.2810  0.8631  0.0046
   54MOL   H24619432   7.476   3.312   3.012 -0.2976 -2.4059  3.5585
   54MOL   H24719433   7.397   3.475   2.992  1.3540 -0.6841  0.2090
   54MOL   H24819434   7.195   3.392   2.913  1.1794  2.0096  1.4002
   54MOL   H24919435   7.223   3.229   2.965  0.4239 -0.9308 -1.0110
   54MOL   H25019436   7.395   3.194   2.779 -0.4749 -0.6429  0.6404
   54MOL   H25119437   7.372   3.371   2.744  0.0542 -0.4972 -0.6120
   54MOL   H25219438   7.153   3.325   2.651 -0.6650 -0.4284  1.7043
   54MOL   H25319439   7.270   3.209   2.585 -0.0022 -0.0911 -0.0408
   54MOL   C25419440   7.029   3.098   2.645  0.7958  0.0118  0.4694
   54MOL   O25519441   6.990   3.155   2.543  0.0771  0.3229 -0.3221
   54MOL   C25619442   6.941   2.984   2.698  0.2299 -0.1754 -0.3161
   54MOL   C25719443   7.020   2.877   2.785 -0.5133 -0.4539 -0.3494
   54MOL   C25819444   7.134   2.811   2.711 -0.4009  0.1789  0.3630
   54MOL   C25919445   7.222   2.721   2.799 -0.5117  0.3133 -0.0943
   54MOL   C26019446   7.326   2.641   2.720 -0.0075  0.4529  0.0078
   54MOL   O26119447   7.266   2.613   2.594  0.0588 -0.6701  0.2095
   54MOL   H26219448   6.890   2.941   2.612 -0.6428 -0.0740  0.1471
   54MOL   H26319449   6.858   3.038   2.743  0.6862 -0.1377  0.4951
   54MOL   H26419450   6.946   2.804   2.818 -0.5690 -0.0798  0.3505
   54MOL   H26519451   7.055   2.929   2.874 -2.2707 -0.4303  0.3518
   54MOL   H26619452   7.192   2.892   2.666 -1.5594  1.5849  1.3145
   54MOL   H26719453   7.080   2.753   2.637 -2.8974  3.1124 -0.2298
   54MOL   H26819454   7.152   2.649   2.841 -1.7109 -0.4783 -3.2802
   54MOL   H26919455   7.281   2.768   2.878 -0.0854  1.9415 -1.3584
   54MOL   H27019456   7.400   2.718   2.702 -1.4429  2.1373  1.1832
   54MOL   H27119457   7.365   2.550   2.767  0.5941  1.0835  0.7344
   54MOL   C27219458   7.327   2.561   2.491  0.0459  0.0202  1.1287
   54MOL   O27319459   7.447   2.529   2.491  0.0130  0.1594  0.4453
   54MOL   C27419460   7.240   2.561   2.368  0.1381  0.6385  0.2850
   54MOL   C27519461   7.313   2.552   2.231  0.0004 -0.3848  0.1279
   54MOL   C27619462   7.380   2.411   2.207 -0.7719  0.0736 -0.7178
   54MOL   C27719463   7.410   2.380   2.062 -0.7359  0.3269  0.1643
   54MOL   C27819464   7.513   2.270   2.031  0.0460 -0.2623 -0.5831
   54MOL   O27919465   7.525   2.234   1.895 -0.6882  0.6847 -0.7163
   54MOL   H28019466   7.174   2.645   2.388 -1.2061 -0.6575  1.4294
   54MOL   H28119467   7.179   2.471   2.378  0.1150  0.7707  1.3834
   54MOL   H28219468   7.385   2.633   2.235  0.4993 -0.8627  1.0891
   54MOL   H28319469   7.246   2.563   2.146  1.9372 -0.6345 -1.4900
   54MOL   H28419470   7.315   2.337   2.252 -0.4656  0.3774  0.2455
   54MOL   H28519471   7.468   2.389   2.268 -0.4377  1.2886 -0.7361
   54MOL   H28619472   7.455   2.474   2.032 -0.5129 -0.4387 -2.0204
   54MOL   H28719473   7.315   2.369   2.008 -1.7841  1.9604  1.6205
   54MOL   H28819474   7.609   2.305   2.069  0.3271 -0.6652 -0.9307
   54MOL   H28919475   7.487   2.179   2.085 -1.3569 -0.2411 -1.2047
   54MOL   C29019476   7.620   2.276   1.820  0.2328  0.6235  0.3923
   54MOL   O29119477   7.717   2.354   1.848  0.5924  0.8262 -0.2277
   54MOL   C29219478   7.614   2.217   1.681  0.8863 -0.3750 -0.3829
   54MOL   C29319479   7.527   2.307   1.590 -0.2430 -0.0899  0.6893
   54MOL   C29419480   7.370   2.310   1.612 -0.4362 -0.7200  0.0441
   54MOL   C29519481   7.301   2.175   1.599  0.8546 -0.0576 -0.2451
   54MOL   C29619482   7.156   2.183   1.639 -0.3038  0.5845 -0.2262
   54MOL   O29719483   7.154   2.201   1.781 -0.2561  0.0725  0.6282
   54MOL   H29819484   7.565   2.120   1.687  0.2378 -0.1822 -2.2406
   54MOL   H29919485   7.717   2.203   1.649  1.1781 -0.4053  0.5554
   54MOL   H30019486   7.538   2.279   1.486  1.2341 -0.8865  1.0519
   54MOL   H30119487   7.572   2.406   1.582 -0.0621 -0.2159  0.1309
   54MOL   H30219488   7.332   2.391   1.550 -1.2117  0.8655  2.5420
   54MOL   H30319489   7.356   2.346   1.714  0.5280 -1.1034  0.3200
   54MOL   H30419490   7.347   2.096   1.659  1.8406  1.2021  0.6633
   54MOL   H30519491   7.321   2.152   1.494 -0.2491 -2.0708 -0.0366
   54MOL   H30619492   7.099   2.267   1.599 -0.2138  1.1086  0.7344
   54MOL   H30719493   7.095   2.099   1.606 -1.4375  1.3436 -0.1165
   54MOL   C30819494   7.127   2.100   1.858  0.3460 -0.8782  0.2242
   54MOL   O30919495   7.133   1.980   1.825 -0.0799  0.3912 -0.1343
   54MOL   C31019496   7.069   2.137   1.995  0.0667  0.9661 -0.2811
   54MOL   C31119497   7.009   2.272   2.014  0.1047 -0.7853  0.1434
   54MOL   C31219498   6.934   2.295   2.143  0.1590  0.5514  0.0322
   54MOL   C31319499   6.871   2.437   2.159  0.1628  0.0647  0.3293
   54MOL   C31419500   6.809   2.470   2.296 -0.7247  0.3825  0.0207
   54MOL   O31519501   6.746   2.594   2.280  0.5205  0.1542 -0.4004
   54MOL   H31619502   7.138   2.113   2.076 -1.3782 -0.6774  0.5096
   54MOL   H31719503   6.991   2.062   2.012  2.1789 -0.8900  1.5747
   54MOL   H31819504   6.943   2.296   1.931 -0.3476 -0.8138  0.4895
   54MOL   H31919505   7.083   2.350   1.998  0.7453 -1.5930 -0.9566
   54MOL   H32019506   6.998   2.280   2.230  0.7789  1.1977 -0.3054
   54MOL   H32119507   6.847   2.230   2.150  0.0828  0.7693  1.1333
   54MOL   H32219508   6.787   2.439   2.090  0.5837  0.0239 -0.1857
   54MOL   H32319509   6.930   2.521   2.122  0.3327 -0.6274 -0.9894
   54MOL   H32419510   6.747   2.387   2.329  2.1973 -0.8867  2.4453
   54MOL   H32519511   6.883   2.485   2.374 -0.0741  0.3599 -0.5860
   54MOL   C32619512   6.660   2.641   2.377 -0.4847  0.3091 -0.6360
   54MOL   O32719513   6.636   2.573   2.477 -0.2330  0.2877  0.2885
   54MOL   C32819514   6.599   2.778   2.350 -0.7238  0.0683  0.5610
   54MOL   C32919515   6.677   2.884   2.425 -0.0330  0.7567  0.3578
   54MOL   C33019516   6.612   3.023   2.417  0.0156  0.2787 -0.1644
   54MOL   C33119517   6.602   3.069   2.276 -0.6892 -0.1562 -0.1555
   54MOL   C33219518   6.583   3.220   2.267 -0.2479  0.2543  0.5342
   54MOL   O33319519   6.461   3.245   2.326 -0.1753 -0.2401 -0.2615
   54MOL   H33419520   6.493   2.783   2.376 -0.9313 -0.6246 -0.1344
   54MOL   H33519521   6.588   2.802   2.244 -1.7345 -2.4865  0.0504
   54MOL   H33619522   6.781   2.887   2.392 -0.3333 -0.0606 -0.7058
   54MOL   H33719523   6.674   2.835   2.522 -1.1654 -2.1265 -1.0703
   54MOL   H33819524   6.680   3.084   2.476 -0.9781 -0.6081  1.9702
   54MOL   H33919525   6.516   3.034   2.467 -0.4574 -1.9817 -0.4916
   54MOL   H34019526   6.524   3.012   2.226 -1.5919 -0.2881  1.4005
   54MOL   H34119527   6.698   3.047   2.228 -0.9385  0.0936 -0.7781
   54MOL   H34219528   6.664   3.278   2.311  1.2068 -0.2681 -1.3682
   54MOL   H34319529   6.578   3.249   2.163  1.7429  2.8961  1.1300
   54MOL   C34419530   6.386   3.351   2.289 -0.2594 -0.4262  0.1680
   54MOL   O34519531   6.419   3.436   2.209 -0.0689  0.6383 -0.2500
   54MOL   C34619532   6.255   3.350   2.360  0.2919 -0.1065 -0.0686
   54MOL   C34719533   6.146   3.292   2.268 -0.1048 -0.2453  0.2506
   54MOL   C34819534   6.168   3.142   2.241 -0.4377 -0.4527  0.8540
   54MOL   C34919535   6.172   3.075   2.380 -0.3442  0.1518 -0.5370
   54MOL   C35019536   6.208   2.929   2.376  0.3068 -0.1840 -0.1751
   54MOL   O35119537   6.213   2.869   2.498  0.2029 -0.2044 -0.7298
   54MOL   H35219538   6.229   3.455   2.374 -0.1455 -0.4322  1.6844
   54MOL   H35319539   6.261   3.324   2.466 -2.0756  1.6269  0.5443
   54MOL   H35419540   6.158   3.340   2.171 -0.9643 -0.3392  0.0865
   54MOL   H35519541   6.041   3.302   2.298 -0.4993 -0.0351 -1.1567
   54MOL   H35619542   6.266   3.121   2.199 -0.6724  1.3193 -0.6740
   54MOL   H35719543   6.094   3.102   2.172 -0.3998  1.1776 -0.1710
   54MOL   H35819544   6.071   3.084   2.419 -0.5058 -0.8372 -0.7230
   54MOL   H35919545   6.247   3.124   2.442  0.9270 -2.4553  0.0250
   54MOL   H36019546   6.122   2.890   2.322 -1.3261  2.6813  0.2572
   54MOL   H36119547   6.296   2.909   2.314  1.5098 -1.9813  2.0376
   54MOL   H36219548   6.239   2.778   2.492  2.3638  0.1535  1.9163
   55MOL     C119549   0.975   2.358   6.644 -0.2899 -0.6252  0.3665
   55MOL     O219550   1.099   2.376   6.632  0.1917 -0.5649  0.3847
   55MOL     C319551   0.921   2.248   6.741  0.5322 -0.2250 -0.4155
   55MOL     C419552   1.028   2.138   6.794 -0.1361 -0.4142  0.1590
   55MOL     C519553   1.091   2.171   6.931 -0.0073  0.2846  0.2531
   55MOL     C619554   1.163   2.058   6.999 -0.2403 -0.0530 -0.6129
   55MOL     C719555   1.218   2.089   7.139  0.3485 -0.2952 -0.2094
   55MOL     O819556   1.108   2.058   7.236  0.0342 -0.0445  0.9872
   55MOL     H919557   0.839   2.198   6.691  1.9646 -1.1605 -1.8689
   55MOL    H1019558   0.876   2.299   6.826  0.5973 -0.7390 -0.0711
   55MOL    H1119559   1.105   2.137   6.717 -2.3400 -0.0626 -2.0717
   55MOL    H1219560   0.970   2.046   6.791 -0.5215 -0.2245  1.4429
   55MOL    H1319561   1.010   2.194   7.000  0.3654  0.2075  0.7163
   55MOL    H1419562   1.158   2.256   6.934  0.4400 -0.1339  3.4852
   55MOL    H1519563   1.254   2.039   6.942  0.6027  1.0703  0.3494
   55MOL    H1619564   1.099   1.970   7.003 -0.0355 -0.1003  4.8607
   55MOL    H1719565   1.299   2.019   7.158 -0.8464 -2.0171 -1.3099
   55MOL    H1819566   1.269   2.185   7.148 -2.1081  1.0636 -0.0196
   55MOL    H1919567   0.902   2.417   6.588  2.1593 -0.2156 -2.5175
   55MOL    C2019568   1.084   2.148   7.331 -0.2770 -0.1669 -0.6816
   55MOL    O2119569   1.158   2.243   7.369  0.8290  0.3942  0.1393
   55MOL    C2219570   0.956   2.118   7.401  0.1865 -0.7184 -0.4026
   55MOL    C2319571   0.872   2.246   7.422 -0.1323 -0.3731 -0.3785
   55MOL    C2419572   0.784   2.270   7.296 -0.8801 -0.2258  0.1329
   55MOL    C2519573   0.672   2.385   7.328 -0.6374 -0.2356  0.0534
   55MOL    C2619574   0.587   2.429   7.205 -0.2291  0.4228  0.6243
   55MOL    O2719575   0.673   2.495   7.115 -0.4252  0.5588  0.4738
   55MOL    H2819576   0.980   2.077   7.499  0.3449  0.9631  0.2777
   55MOL    H2919577   0.916   2.034   7.346 -0.0478 -2.3390  2.1825
   55MOL    H3019578   0.924   2.336   7.456  1.0663 -0.9034 -0.7834
   55MOL    H3119579   0.800   2.227   7.501  1.5898  0.0564  1.3423
   55MOL    H3219580   0.740   2.176   7.261 -2.4569  1.1154 -1.6662
   55MOL    H3319581   0.846   2.304   7.214 -4.0677  2.1214 -1.4297
   55MOL    H3419582   0.729   2.461   7.382 -1.1543 -0.2474  0.6277
   55MOL    H3519583   0.597   2.355   7.402 -1.4381  3.6888  0.9312
   55MOL    H3619584   0.540   2.339   7.167  0.1350 -0.3541  1.9819
   55MOL    H3719585   0.511   2.502   7.235  0.0599  1.1328 -0.3323
   55MOL    C3819586   0.660   2.484   6.983 -0.0583 -0.6486  0.3703
   55MOL    O3919587   0.579   2.409   6.935 -0.1474  0.2392  0.8807
   55MOL    C4019588   0.751   2.568   6.890  0.6379  0.3834  0.1526
   55MOL    C4119589   0.680   2.678   6.810 -0.4126 -0.0127 -0.1857
   55MOL    C4219590   0.735   2.714   6.672  0.4240  0.5406 -0.3399
   55MOL    C4319591   0.876   2.758   6.686 -0.1476 -0.2879  0.4733
   55MOL    C4419592   0.944   2.797   6.553  0.6226 -0.2929 -1.0163
   55MOL    O4519593   0.953   2.688   6.464 -0.3971  0.2606  0.0002
   55MOL    H4619594   0.793   2.496   6.819  0.4865 -0.2780  0.7279
   55MOL    H4719595   0.838   2.603   6.946  1.8766  0.0672 -1.5206
   55MOL    H4819596   0.682   2.767   6.874 -2.7658  0.5679 -0.8648
   55MOL    H4919597   0.576   2.652   6.793 -0.5367 -0.1871  0.7957
   55MOL    H5019598   0.687   2.801   6.627 -0.7712  1.0102  1.7764
   55MOL    H5119599   0.732   2.634   6.599 -0.9162 -1.8374  2.2234
   55MOL    H5219600   0.942   2.694   6.744  0.5367 -1.4333 -1.5054
   55MOL    H5319601   0.872   2.856   6.734 -0.8448  0.5911 -1.3055
   55MOL    H5419602   0.903   2.888   6.508 -1.5721 -0.5601  0.3587
   55MOL    H5519603   1.045   2.825   6.581  0.1751 -0.8008  1.1876
   55MOL    C5619604   1.044   2.705   6.362  0.0072  0.2945  1.2218
   55MOL    O5719605   1.126   2.798   6.354 -0.1106  0.1194 -0.1204
   55MOL    C5819606   1.044   2.593   6.254  0.0806  0.4130 -0.7987
   55MOL    C5919607   1.157   2.491   6.271 -0.5396  0.5420  0.1446
   55MOL    C6019608   1.290   2.522   6.183  0.3547 -0.7030  0.5956
   55MOL    C6119609   1.413   2.438   6.236 -0.2395  0.1083  0.0466
   55MOL    C6219610   1.546   2.464   6.176 -0.1096  0.1781  0.1091
   55MOL    O6319611   1.639   2.360   6.216 -0.2695 -0.0080 -0.2366
   55MOL    H6419612   1.049   2.631   6.152  0.9716  0.9013 -0.5753
   55MOL    H6519613   0.948   2.542   6.266 -0.1747  0.8213 -1.1193
   55MOL    H6619614   1.112   2.392   6.259  0.4141  0.0400  0.6553
   55MOL    H6719615   1.184   2.484   6.376 -0.8333  0.7714  0.2379
   55MOL    H6819616   1.310   2.629   6.185 -0.9466 -0.4486  0.3666
   55MOL    H6919617   1.271   2.493   6.080 -2.8254  1.8434  0.3724
   55MOL    H7019618   1.384   2.334   6.218 -1.5505  0.6954 -1.3659
   55MOL    H7119619   1.423   2.452   6.344  1.2460 -0.4179 -0.0077
   55MOL    H7219620   1.543   2.456   6.067  1.3709 -2.9522  0.2447
   55MOL    H7319621   1.585   2.562   6.203  1.7409 -0.7461  0.8623
   55MOL    C7419622   1.742   2.326   6.138 -0.3379  0.2305  0.4228
   55MOL    O7519623   1.762   2.390   6.031  0.5497  0.5610 -0.7478
   55MOL    C7619624   1.830   2.208   6.191 -0.4186  0.0949  0.3287
   55MOL    C7719625   1.934   2.232   6.304  0.0715  0.2622  0.1719
   55MOL    C7819626   2.064   2.313   6.264  0.1857  0.9534 -0.9700
   55MOL    C7919627   2.151   2.319   6.386 -0.4744  0.1061 -0.2538
   55MOL    C8019628   2.293   2.379   6.361  0.8007 -0.0947 -0.5201
   55MOL    O8119629   2.279   2.519   6.356  0.7376 -0.1529  0.1775
   55MOL    H8219630   1.884   2.189   6.099 -0.4734  1.0900  0.0814
   55MOL    H8319631   1.769   2.119   6.198  1.8906 -1.9121 -3.5608
   55MOL    H8419632   1.979   2.138   6.336 -0.9843 -0.1125  0.5476
   55MOL    H8519633   1.898   2.276   6.397  1.1437 -0.1844  0.8074
   55MOL    H8619634   2.044   2.408   6.215 -1.9473  0.4603 -1.0671
   55MOL    H8719635   2.108   2.246   6.190 -2.3126  0.6592 -2.2347
   55MOL    H8819636   2.178   2.226   6.435 -0.9383 -0.1365 -0.4592
   55MOL    H8919637   2.108   2.383   6.463 -0.7675 -1.2843  0.7546
   55MOL    H9019638   2.366   2.343   6.434  1.8662 -0.6335 -1.8382
   55MOL    H9119639   2.326   2.338   6.265 -0.0823  0.9988 -1.2917
   55MOL    C9219640   2.387   2.595   6.350  0.9112 -0.5311 -0.2605
   55MOL    O9319641   2.500   2.558   6.338 -0.4468 -0.6184  0.1122
   55MOL    C9419642   2.355   2.744   6.354  0.0621 -0.1280 -0.3779
   55MOL    C9519643   2.468   2.840   6.379  0.3717 -0.1680  0.1770
   55MOL    C9619644   2.412   2.988   6.396  0.0861 -0.0340  0.1281
   55MOL    C9719645   2.511   3.102   6.376 -0.1112  0.4198  0.5421
   55MOL    C9819646   2.630   3.088   6.476 -0.3913 -0.3490  0.2203
   55MOL    O9919647   2.742   3.165   6.445  0.3032 -0.5739 -0.0184
   55MOL   H10019648   2.283   2.770   6.431 -0.0610  0.5114 -0.7030
   55MOL   H10119649   2.313   2.777   6.259  1.4571  1.4728 -0.4502
   55MOL   H10219650   2.532   2.825   6.292  1.8878 -3.8740  1.7958
   55MOL   H10319651   2.538   2.804   6.455  0.9306 -1.0496 -0.7355
   55MOL   H10419652   2.370   2.996   6.496  1.2002  1.8066  0.4619
   55MOL   H10519653   2.323   2.995   6.332  0.6321 -1.2223 -0.7818
   55MOL   H10619654   2.470   3.203   6.379  1.4960  1.0718  3.9956
   55MOL   H10719655   2.546   3.087   6.274 -2.4151  0.1045 -0.2259
   55MOL   H10819656   2.589   3.113   6.574  0.7166  4.3819 -0.3968
   55MOL   H10919657   2.656   2.983   6.480 -3.2798 -1.0443  2.2643
   55MOL   C11019658   2.855   3.114   6.412 -0.1422 -0.0909 -0.1939
   55MOL   O11119659   2.879   2.993   6.416 -0.6675  0.3711  0.2503
   55MOL   C11219660   2.963   3.207   6.364 -0.1499  0.6576 -1.2685
   55MOL   C11319661   3.104   3.143   6.347  0.2778  0.1640 -0.1309
   55MOL   C11419662   3.178   3.102   6.474  0.0170  0.1190  0.0572
   55MOL   C11519663   3.204   3.221   6.572 -0.1608 -0.2152  0.9789
   55MOL   C11619664   3.314   3.189   6.669  0.0807 -0.9858 -0.0681
   55MOL   O11719665   3.436   3.168   6.602 -0.2857  0.0010 -0.1711
   55MOL   H11819666   2.968   3.295   6.428  1.5359 -0.2211 -0.1520
   55MOL   H11919667   2.930   3.246   6.268 -0.0224 -0.4483 -1.7635
   55MOL   H12019668   3.168   3.208   6.287 -0.8895  0.6526 -0.8821
   55MOL   H12119669   3.091   3.057   6.282 -2.1150 -1.4421  2.3642
   55MOL   H12219670   3.271   3.059   6.436 -0.1497  0.2143 -0.4664
   55MOL   H12319671   3.138   3.010   6.516 -1.6129  1.0421  0.5708
   55MOL   H12419672   3.113   3.258   6.619 -1.2316 -0.9780 -0.4500
   55MOL   H12519673   3.236   3.302   6.508 -1.0085 -0.8000 -0.2206
   55MOL   H12619674   3.323   3.269   6.742  2.2995  0.4790 -1.8529
   55MOL   H12719675   3.292   3.100   6.727  2.2463 -0.8203  1.0449
   55MOL   C12819676   3.501   3.275   6.562 -0.4003 -0.5896 -0.2439
   55MOL   O12919677   3.461   3.386   6.588  0.1847 -0.2368 -0.3353
   55MOL   C13019678   3.635   3.253   6.501  0.2763 -0.2565  0.4302
   55MOL   C13119679   3.676   3.346   6.386  0.5146 -0.0987 -0.2104
   55MOL   C13219680   3.810   3.318   6.324 -0.5864  0.2709  0.1012
   55MOL   C13319681   3.918   3.346   6.425 -0.2704  0.0788  0.3705
   55MOL   C13419682   4.055   3.330   6.354  0.3104  1.0888  0.6342
   55MOL   O13519683   4.169   3.379   6.431  0.7113 -0.1176  0.1503
   55MOL   H13619684   3.632   3.147   6.474 -0.5169 -0.3296  0.7943
   55MOL   H13719685   3.713   3.251   6.577  1.4720 -1.8790 -0.7768
   55MOL   H13819686   3.669   3.451   6.414  0.4149 -0.5685  1.5399
   55MOL   H13919687   3.595   3.325   6.316 -0.4749  0.1206  0.8614
   55MOL   H14019688   3.824   3.392   6.244 -0.8827  0.6787  0.4209
   55MOL   H14119689   3.819   3.214   6.295 -3.9751 -0.3585  1.0001
   55MOL   H14219690   3.919   3.270   6.504  1.5980 -0.2773  0.0306
   55MOL   H14319691   3.909   3.442   6.475  2.0299  1.1379 -1.1862
   55MOL   H14419692   4.068   3.225   6.328 -1.8048  1.1288 -0.7006
   55MOL   H14519693   4.067   3.383   6.260 -1.4303 -1.4912 -1.1049
   55MOL   C14619694   4.295   3.333   6.400 -0.1606 -0.1345 -0.5386
   55MOL   O14719695   4.317   3.263   6.304  0.1994  0.1914 -0.0117
   55MOL   C14819696   4.397   3.387   6.495 -0.0496 -0.3138  0.1135
   55MOL   C14919697   4.416   3.545   6.488 -0.5653 -0.1146  0.2095
   55MOL   C15019698   4.453   3.595   6.346 -0.2045 -0.3872 -0.0457
   55MOL   C15119699   4.496   3.737   6.345  0.8492 -0.3541 -0.2896
   55MOL   C15219700   4.411   3.835   6.261  0.2941 -0.1626 -0.1255
   55MOL   O15319701   4.449   3.821   6.126  0.9065  0.4422 -0.3722
   55MOL   H15419702   4.493   3.335   6.486  0.6763  1.0614 -0.1948
   55MOL   H15519703   4.365   3.357   6.595 -0.8018  0.8290  0.2133
   55MOL   H15619704   4.494   3.565   6.562 -1.0266 -0.0635  0.6895
   55MOL   H15719705   4.321   3.583   6.526  0.5880  1.9461  1.0741
   55MOL   H15819706   4.370   3.577   6.278 -0.4039  2.3767 -0.5969
   55MOL   H15919707   4.537   3.541   6.300  1.6487  0.6334  2.0585
   55MOL   H16019708   4.601   3.755   6.321  0.6945 -1.9204 -2.3064
   55MOL   H16119709   4.477   3.773   6.446 -2.2884  0.6132 -1.1573
   55MOL   H16219710   4.309   3.797   6.272 -0.1290  0.9676 -0.1147
   55MOL   H16319711   4.412   3.938   6.297 -0.1828  0.5066 -1.9892
   55MOL   C16419712   4.374   3.878   6.023 -0.2786 -0.1923 -0.1385
   55MOL   O16519713   4.289   3.962   6.044  0.4549 -0.2445  0.0513
   55MOL   C16619714   4.408   3.834   5.881  0.1341  0.2763  0.5433
   55MOL   C16719715   4.431   3.957   5.784 -0.9063  0.2291 -0.4504
   55MOL   C16819716   4.543   4.057   5.836 -0.2836 -0.2934 -0.0226
   55MOL   C16919717   4.569   4.171   5.731  0.0986 -0.2315  0.0442
   55MOL   C17019718   4.675   4.269   5.772 -0.8798 -0.6507 -0.4330
   55MOL   O17119719   4.639   4.346   5.891 -0.0633 -0.4692  0.2534
   55MOL   H17219720   4.329   3.772   5.838 -1.4031  0.4939  2.9333
   55MOL   H17319721   4.490   3.763   5.883  2.3617  2.8275  2.4755
   55MOL   H17419722   4.340   4.014   5.767 -1.4819 -0.9366 -1.3812
   55MOL   H17519723   4.467   3.910   5.693 -0.4062  0.6225 -0.4566
   55MOL   H17619724   4.635   4.000   5.850  0.8535  2.3101  3.5521
   55MOL   H17719725   4.525   4.095   5.936  2.1357 -0.3113  0.4450
   55MOL   H17819726   4.485   4.228   5.691  0.0600 -1.0176 -1.0243
   55MOL   H17919727   4.604   4.126   5.638 -0.3415  0.8440 -0.6459
   55MOL   H18019728   4.767   4.218   5.802 -0.5449  0.2324  0.0666
   55MOL   H18119729   4.693   4.326   5.681 -0.1688 -2.4913 -1.4799
   55MOL   C18219730   4.658   4.480   5.894  0.6026 -0.4557 -0.3174
   55MOL   O18319731   4.706   4.549   5.805 -0.0290  0.4409 -0.6800
   55MOL   C18419732   4.596   4.543   6.020 -0.6855  0.0682 -0.7699
   55MOL   C18519733   4.466   4.606   5.994 -0.3144  0.3555  0.1640
   55MOL   C18619734   4.376   4.653   6.113 -0.1159  0.1453  0.5552
   55MOL   C18719735   4.353   4.797   6.112 -0.4979 -0.9391 -0.3188
   55MOL   C18819736   4.240   4.832   6.212 -0.2805 -0.1015 -0.1539
   55MOL   O18919737   4.134   4.747   6.188  0.2691  0.9581  0.4016
   55MOL   H19019738   4.671   4.613   6.058 -1.1960  1.5684 -2.4551
   55MOL   H19119739   4.585   4.474   6.103  0.2477 -0.3963 -1.0297
   55MOL   H19219740   4.402   4.535   5.942 -1.3355  1.3055  0.0931
   55MOL   H19319741   4.481   4.687   5.923 -0.9112  0.1639 -0.1820
   55MOL   H19419742   4.413   4.619   6.210  3.3835  2.1391 -0.0027
   55MOL   H19519743   4.283   4.596   6.108 -0.4060  0.6337  0.3450
   55MOL   H19619744   4.339   4.824   6.008  1.7709 -4.8726 -1.7285
   55MOL   H19719745   4.449   4.845   6.135 -1.4318 -0.0882  1.9953
   55MOL   H19819746   4.275   4.810   6.313 -0.3517 -0.2074 -0.1531
   55MOL   H19919747   4.220   4.939   6.217  1.7099  0.3001 -0.4875
   55MOL   C20019748   4.037   4.742   6.275 -0.0125  0.3411 -0.6208
   55MOL   O20119749   4.031   4.806   6.383  0.0876  0.5370 -0.1777
   55MOL   C20219750   3.936   4.646   6.227 -0.1967 -0.0252  0.1976
   55MOL   C20319751   3.815   4.712   6.155 -0.1118 -0.0783 -0.2266
   55MOL   C20419752   3.706   4.606   6.135  0.0244  0.0583 -0.4141
   55MOL   C20519753   3.751   4.512   6.016  0.1048  0.4918 -0.7614
   55MOL   C20619754   3.663   4.388   5.996  0.2981  0.2947  0.4644
   55MOL   O20719755   3.658   4.304   6.114  0.0779 -0.6160  0.2090
   55MOL   H20819756   3.894   4.589   6.310 -1.9736 -0.4059 -0.9405
   55MOL   H20919757   3.992   4.574   6.167  1.8088  1.6647 -0.0057
   55MOL   H21019758   3.864   4.766   6.074  0.4149 -1.8461 -1.0901
   55MOL   H21119759   3.778   4.792   6.220  0.6919  0.7688 -0.7873
   55MOL   H21219760   3.621   4.667   6.106  0.7953  0.1988 -2.5056
   55MOL   H21319761   3.671   4.546   6.219 -1.8471  1.8409  0.1105
   55MOL   H21419762   3.846   4.466   6.043 -0.3026 -0.3947 -0.8351
   55MOL   H21519763   3.778   4.572   5.929  0.5501 -1.1393 -1.7535
   55MOL   H21619764   3.561   4.415   5.971  0.4914  0.2643 -0.3981
   55MOL   H21719765   3.705   4.324   5.919  0.1319  0.3008  0.3703
   55MOL   C21819766   3.539   4.228   6.144 -0.4902 -0.1870  0.2713
   55MOL   O21919767   3.460   4.193   6.051 -0.3360 -0.1070  0.6931
   55MOL   C22019768   3.532   4.171   6.285  0.2116 -0.3195 -0.2474
   55MOL   C22119769   3.534   4.285   6.388  0.1099 -0.2018 -0.1571
   55MOL   C22219770   3.553   4.219   6.529  0.3088 -0.4516 -0.2040
   55MOL   C22319771   3.566   4.317   6.651  0.8311  0.1650  0.6065
   55MOL   C22419772   3.437   4.406   6.655  0.8670  0.3052 -0.1518
   55MOL   O22519773   3.315   4.328   6.677 -0.4993 -0.3465 -0.0074
   55MOL   H22619774   3.612   4.099   6.301  2.8640  2.8883  1.5747
   55MOL   H22719775   3.443   4.108   6.285 -0.5404  0.7310  0.5905
   55MOL   H22819776   3.439   4.338   6.388 -1.0761 -2.2881 -0.0386
   55MOL   H22919777   3.610   4.361   6.368 -1.1576  1.2903  0.5521
   55MOL   H23019778   3.645   4.163   6.508 -0.3396 -1.7853  0.4087
   55MOL   H23119779   3.477   4.142   6.542  1.1382 -1.5310 -1.6128
   55MOL   H23219780   3.656   4.374   6.628  1.7582 -0.9238  1.4688
   55MOL   H23319781   3.571   4.261   6.745  0.3970  0.5965  0.8875
   55MOL   H23419782   3.432   4.490   6.724 -1.3057  1.3950 -1.5744
   55MOL   H23519783   3.426   4.452   6.557  1.2175 -0.7116 -0.6825
   55MOL   C23619784   3.267   4.305   6.798 -0.3876  0.1450 -1.4007
   55MOL   O23719785   3.318   4.346   6.898 -0.1884  0.5416 -0.4070
   55MOL   C23819786   3.148   4.211   6.794  0.7165 -0.1179  0.9719
   55MOL   C23919787   3.175   4.080   6.726 -0.0709  0.5898  0.4617
   55MOL   C24019788   3.075   3.967   6.765 -0.1035 -0.3764  0.0911
   55MOL   C24119789   2.933   3.991   6.719  0.1486  0.1192  0.0541
   55MOL   C24219790   2.911   3.970   6.562 -0.1766 -0.5434 -0.0690
   55MOL   O24319791   2.781   3.976   6.515  0.0214  0.6131 -0.3357
   55MOL   H24419792   3.062   4.263   6.752 -0.3432 -0.3002  2.8582
   55MOL   H24519793   3.121   4.177   6.894 -4.1277 -0.1120 -0.1808
   55MOL   H24619794   3.278   4.057   6.751  0.0785  0.6461 -0.0979
   55MOL   H24719795   3.176   4.089   6.618 -1.1146 -0.0460  0.3925
   55MOL   H24819796   3.074   3.963   6.874 -0.4016  0.7141  0.1354
   55MOL   H24919797   3.111   3.877   6.715  1.4132  0.7842 -0.9654
   55MOL   H25019798   2.913   4.091   6.757 -0.6154  0.0649 -0.1991
   55MOL   H25119799   2.872   3.913   6.765 -0.0469 -0.2529 -0.8294
   55MOL   H25219800   2.972   4.040   6.506  3.2821 -3.9716 -0.7541
   55MOL   H25319801   2.959   3.875   6.544  0.1770 -1.4949  5.1756
   55MOL   C25419802   2.742   3.928   6.397  0.1592  0.7622 -0.1445
   55MOL   O25519803   2.819   3.893   6.311 -0.2365 -0.6020  0.0459
   55MOL   C25619804   2.596   3.927   6.366  0.7385  0.2072 -0.4511
   55MOL   C25719805   2.515   3.820   6.441 -0.3139  0.3284  0.1118
   55MOL   C25819806   2.502   3.842   6.594 -0.3890  0.1409  0.5354
   55MOL   C25919807   2.421   3.722   6.659  0.1734  0.4260 -0.3934
   55MOL   C26019808   2.502   3.587   6.673 -0.3522  0.1032  0.1197
   55MOL   O26119809   2.620   3.602   6.742  0.2289 -0.5557  0.0184
   55MOL   H26219810   2.589   3.919   6.257  2.0073 -1.6449 -0.4166
   55MOL   H26319811   2.561   4.029   6.380 -3.7590 -1.3159  0.0206
   55MOL   H26419812   2.574   3.729   6.426 -1.8939 -1.1480  2.4236
   55MOL   H26519813   2.417   3.804   6.397 -0.6410 -2.0679  1.5637
   55MOL   H26619814   2.461   3.942   6.605  0.9148  1.1066 -2.6850
   55MOL   H26719815   2.602   3.846   6.637 -0.2819  2.3626  0.1215
   55MOL   H26819816   2.329   3.710   6.602  0.7863  0.3724 -1.3859
   55MOL   H26919817   2.396   3.754   6.760  2.8372 -1.0894  0.7849
   55MOL   H27019818   2.427   3.535   6.733  0.6526 -0.1473  1.1787
   55MOL   H27119819   2.515   3.537   6.577 -1.8538  2.5294 -1.3846
   55MOL   C27219820   2.722   3.519   6.707  0.0959  0.3294  0.1229
   55MOL   O27319821   2.717   3.421   6.631  0.1715 -0.1388 -0.2119
   55MOL   C27419822   2.849   3.546   6.783 -0.2605 -0.4343 -0.0156
   55MOL   C27519823   2.950   3.428   6.783  0.4245 -0.4779  0.7995
   55MOL   C27619824   3.073   3.466   6.864 -0.0715 -0.1586  0.2665
   55MOL   C27719825   3.172   3.566   6.802 -0.0588  0.2779  0.5808
   55MOL   C27819826   3.257   3.616   6.918 -0.6598 -0.1473 -0.1921
   55MOL   O27919827   3.320   3.503   6.989 -0.0326 -0.7655  0.0015
   55MOL   H28019828   2.837   3.579   6.886 -0.0821  1.7682 -0.6732
   55MOL   H28119829   2.898   3.625   6.727  0.1002  0.4960  1.5902
   55MOL   H28219830   2.971   3.406   6.679 -3.3510  2.6471 -0.7754
   55MOL   H28319831   2.905   3.336   6.819  1.0001 -0.8466  0.5728
   55MOL   H28419832   3.126   3.372   6.876  1.3957  0.5077 -0.7740
   55MOL   H28519833   3.046   3.500   6.964  1.6771 -0.0699  0.7330
   55MOL   H28619834   3.128   3.647   6.745 -0.6768  0.4310  1.2718
   55MOL   H28719835   3.229   3.501   6.735  2.1064  0.6771  1.9992
   55MOL   H28819836   3.334   3.687   6.888 -0.0176 -0.4725  0.6682
   55MOL   H28919837   3.195   3.663   6.994  1.9370 -0.0589  1.9555
   55MOL   C29019838   3.417   3.535   7.075  0.1362 -0.0188  0.2440
   55MOL   O29119839   3.444   3.644   7.118 -0.3397 -0.6080  0.1906
   55MOL   C29219840   3.481   3.415   7.139 -0.4156 -0.0081  0.0726
   55MOL   C29319841   3.588   3.343   7.055  0.0643  0.8746  0.0748
   55MOL   C29419842   3.692   3.433   6.980 -0.0258  0.7120 -1.2149
   55MOL   C29519843   3.780   3.517   7.071  0.9606  0.0492  0.3550
   55MOL   C29619844   3.869   3.440   7.171  0.0223  0.2952  0.1420
   55MOL   O29719845   3.793   3.372   7.278  0.1813 -0.6861  0.0079
   55MOL   H29819846   3.413   3.338   7.173 -4.5514  2.4558 -2.1738
   55MOL   H29919847   3.534   3.453   7.226  1.0064 -1.6875 -0.0316
   55MOL   H30019848   3.543   3.273   6.985 -2.2178  2.1773  0.2103
   55MOL   H30119849   3.636   3.270   7.121  0.2531  0.2545 -0.7450
   55MOL   H30219850   3.642   3.501   6.911 -1.4652  0.4740 -0.4211
   55MOL   H30319851   3.752   3.365   6.921  0.5645  1.8965 -1.9937
   55MOL   H30419852   3.705   3.572   7.128  1.2329  0.2255  0.5427
   55MOL   H30519853   3.839   3.585   7.010  0.4994  0.6527  0.5662
   55MOL   H30619854   3.918   3.357   7.119  0.6299  0.9354 -0.3212
   55MOL   H30719855   3.950   3.501   7.212 -1.1430 -0.5372  3.7956
   55MOL   C30819856   3.741   3.439   7.383 -0.1842  0.4617 -0.1178
   55MOL   O30919857   3.751   3.555   7.404 -0.1197  0.5173  0.7654
   55MOL   C31019858   3.660   3.349   7.479  0.0986  0.3872 -0.7084
   55MOL   C31119859   3.665   3.396   7.629 -0.4469 -0.2771 -0.5172
   55MOL   C31219860   3.586   3.290   7.712 -0.0332 -0.7169  0.3538
   55MOL   C31319861   3.597   3.328   0.009  0.7935  0.0826 -0.5195
   55MOL   C31419862   3.475   3.274   0.096 -0.1483 -0.6634 -0.5233
   55MOL   O31519863   3.474   3.340   0.220 -0.6216 -0.6204 -0.1840
   55MOL   H31619864   3.694   3.249   7.452 -1.3101  0.1490 -1.6853
   55MOL   H31719865   3.555   3.351   7.451 -0.0843  1.6998  0.0588
   55MOL   H31819866   3.632   3.500   7.630  0.3580  0.0503 -3.7217
   55MOL   H31919867   3.768   3.407   7.663 -0.6851 -2.4658  1.0147
   55MOL   H32019868   3.649   3.203   7.697  0.9679 -0.0398  0.5532
   55MOL   H32119869   3.489   3.273   7.666  1.1922 -1.7469 -1.9662
   55MOL   H32219870   3.594   3.436   0.027  1.9827  0.1638 -0.7902
   55MOL   H32319871   3.685   3.290   0.060  1.5130  2.1407 -0.1473
   55MOL   H32419872   3.382   3.275   0.039  0.5979 -0.1350 -1.7404
   55MOL   H32519873   3.498   3.170   0.120 -0.5428 -0.4400  0.9015
   55MOL   C32619874   3.369   3.313   0.309  0.5002 -0.6054 -0.3131
   55MOL   O32719875   3.270   3.249   0.274 -0.0742 -0.7256  0.1875
   55MOL   C32819876   3.394   3.375   0.443 -0.1488  0.7144  0.1660
   55MOL   C32919877   3.428   3.526   0.451  0.0651  0.4432 -0.2485
   55MOL   C33019878   3.510   3.552   0.579  0.5682  0.2503 -0.0885
   55MOL   C33119879   3.515   3.699   0.612 -0.1618 -0.4244 -0.2371
   55MOL   C33219880   3.571   3.729   0.750 -0.8215  0.0619  0.3142
   55MOL   O33319881   3.533   3.854   0.809  0.5948  0.0869 -0.7116
   55MOL   H33419882   3.461   3.311   0.500  1.1995  1.6107 -0.3747
   55MOL   H33519883   3.297   3.372   0.493  0.3051 -1.6347  0.9815
   55MOL   H33619884   3.337   3.587   0.445 -2.1470 -2.4600  2.3304
   55MOL   H33719885   3.489   3.552   0.365 -0.8651 -0.5694 -1.2360
   55MOL   H33819886   3.607   3.503   0.577  1.1785  1.2009  3.1278
   55MOL   H33919887   3.452   3.496   0.653  0.1306  1.0812  0.1988
   55MOL   H34019888   3.410   3.729   0.616 -0.6157 -2.0622  0.5406
   55MOL   H34119889   3.551   3.761   0.530  0.1686 -0.1096  0.1419
   55MOL   H34219890   3.555   3.652   0.825 -0.5708 -2.5795 -2.2912
   55MOL   H34319891   3.679   3.719   0.736 -0.9706 -1.0964 -0.0027
   55MOL   C34419892   3.623   3.908   0.901  0.4437  0.2923 -0.1603
   55MOL   O34519893   3.730   3.856   0.927  0.0974 -0.3817 -0.1096
   55MOL   C34619894   3.569   4.039   0.967 -0.3229  0.9152  0.2585
   55MOL   C34719895   3.549   4.167   0.886 -0.6249  0.2318  0.3153
   55MOL   C34819896   3.518   4.295   0.954 -0.0078 -0.5905  0.1678
   55MOL   C34919897   3.395   4.289   1.036 -0.3849  0.9174  0.0540
   55MOL   C35019898   3.351   4.427   1.095  0.4059  0.6343  0.7951
   55MOL   O35119899   3.224   4.420   1.155 -0.0795  0.8469  0.0154
   55MOL   H35219900   3.636   4.047   1.052  0.2787 -1.5056  0.0393
   55MOL   H35319901   3.469   4.016   1.003 -1.0435  3.3282 -0.1086
   55MOL   H35419902   3.460   4.139   0.829  1.9804 -1.9707 -2.8933
   55MOL   H35519903   3.634   4.165   0.818 -0.5194 -2.2084  0.4794
   55MOL   H35619904   3.504   4.371   0.877 -0.6966 -0.2450  0.6389
   55MOL   H35719905   3.600   4.334   1.014 -0.1811 -0.4417  0.3072
   55MOL   H35819906   3.402   4.220   1.120  0.3405  0.2982 -0.5105
   55MOL   H35919907   3.307   4.246   0.987  0.2313 -0.4356  0.1275
   55MOL   H36019908   3.420   4.466   1.169 -0.7465  0.1890  2.1294
   55MOL   H36119909   3.345   4.501   1.015 -1.5529  0.3792  0.6751
   55MOL   H36219910   3.234   4.363   1.231  2.2808  0.9546 -0.2048
   56MOL     C119911   4.043   3.026   6.543  0.4750 -0.6790 -0.1301
   56MOL     O219912   4.058   2.997   6.420 -0.2331  0.0092  0.3028
   56MOL     C319913   4.149   2.995   6.651 -0.0933  0.5704  0.1725
   56MOL     C419914   4.257   2.914   6.595  0.2198  0.2158 -0.4511
   56MOL     C519915   4.370   2.995   6.534 -0.2217 -0.5445  0.1635
   56MOL     C619916   4.505   2.928   6.534  0.5498  0.3158  0.1768
   56MOL     C719917   4.504   2.804   6.444 -0.6542  0.3068 -0.7895
   56MOL     O819918   4.628   2.737   6.450 -0.0070  0.3268 -0.3439
   56MOL     H919919   4.095   2.927   6.716  1.0672  0.0559  0.5981
   56MOL    H1019920   4.177   3.088   6.699  2.1675  0.0130 -0.0071
   56MOL    H1119921   4.225   2.837   6.524 -1.6401  1.5331 -1.0594
   56MOL    H1219922   4.308   2.862   6.676 -0.9516  1.8007  1.3292
   56MOL    H1319923   4.385   3.090   6.586 -0.3593  0.3778 -1.4307
   56MOL    H1419924   4.350   3.037   6.435  1.8714  1.0789  0.3892
   56MOL    H1519925   4.534   2.900   6.635  1.0759  2.6957  0.7336
   56MOL    H1619926   4.576   3.009   6.513  0.7071  0.6280  1.8941
   56MOL    H1719927   4.443   2.720   6.478 -0.2478  0.3187 -0.0234
   56MOL    H1819928   4.474   2.846   6.348  1.8794  2.1271 -0.8253
   56MOL    H1919929   3.959   3.080   6.586 -0.1893 -1.6852 -0.1541
   56MOL    C2019930   4.731   2.792   6.379  0.6898  0.5321  0.2217
   56MOL    O2119931   4.723   2.903   6.320 -0.7580  0.4815 -0.2680
   56MOL    C2219932   4.855   2.711   6.369 -0.1241  0.1432 -0.6714
   56MOL    C2319933   4.975   2.795   6.407 -0.1447  0.3797  0.3021
   56MOL    C2419934   4.993   2.833   6.555  0.2613 -0.0112 -0.2956
   56MOL    C2519935   5.035   2.710   6.640 -0.5157 -0.2610 -0.0351
   56MOL    C2619936   5.062   2.746   6.790 -0.0498  0.0004 -0.7201
   56MOL    O2719937   5.135   2.858   6.801  0.2086  0.1546  0.1298
   56MOL    H2819938   4.868   2.660   6.273 -1.5533 -1.9876  0.2210
   56MOL    H2919939   4.845   2.638   6.449 -2.7078  0.7506 -0.3944
   56MOL    H3019940   4.982   2.890   6.352  0.0555 -0.0959 -0.5040
   56MOL    H3119941   5.057   2.743   6.357  1.2760  1.8974  0.9968
   56MOL    H3219942   4.900   2.873   6.594  0.4663  0.6945 -0.5137
   56MOL    H3319943   5.062   2.918   6.554  0.0691  0.1412 -1.0128
   56MOL    H3419944   5.122   2.651   6.611 -1.1509 -1.8628  1.2212
   56MOL    H3519945   4.956   2.635   6.640 -1.2193  0.4731 -0.6680
   56MOL    H3619946   4.970   2.759   6.847  0.0972 -0.7041 -0.3105
   56MOL    H3719947   5.114   2.664   6.840 -0.3106  0.1056 -0.2709
   56MOL    C3819948   5.178   2.904   6.925  0.0637 -0.3525  0.7773
   56MOL    O3919949   5.169   2.842   7.027  0.0642 -0.0070  0.6792
   56MOL    C4019950   5.256   3.042   6.909  0.6763  0.3051 -0.3913
   56MOL    C4119951   5.258   3.142   7.023  0.0740  0.1704  1.2709
   56MOL    C4219952   5.125   3.204   7.064 -0.0854 -0.2621 -0.1000
   56MOL    C4319953   5.154   3.325   7.151 -0.0797  0.1969 -0.0226
   56MOL    C4419954   5.026   3.375   7.221 -0.4746 -0.0734 -0.0496
   56MOL    O4519955   5.067   3.496   7.286 -0.4644 -0.2900  0.0704
   56MOL    H4619956   5.229   3.103   6.823  0.6906 -1.1316 -1.4283
   56MOL    H4719957   5.360   3.010   6.898  0.9791  1.3800 -0.7487
   56MOL    H4819958   5.326   3.223   6.993  0.0369 -0.3869 -0.4036
   56MOL    H4919959   5.301   3.095   7.111  0.2514  1.6141  1.9807
   56MOL    H5019960   5.058   3.126   7.101  0.4248 -0.3977  0.5454
   56MOL    H5119961   5.073   3.245   6.977  0.9369  1.8228  0.2647
   56MOL    H5219962   5.196   3.405   7.089  1.3442  0.1369  0.8496
   56MOL    H5319963   5.227   3.310   7.230 -1.0666 -0.3831  0.7892
   56MOL    H5419964   4.943   3.408   7.157  0.6764  3.7625  0.3396
   56MOL    H5519965   4.989   3.303   7.294 -3.0284  2.8985  1.6891
   56MOL    C5619966   4.974   3.556   7.357  0.7812  0.1496  0.4606
   56MOL    O5719967   4.867   3.503   7.393 -0.7669  0.2845 -0.0572
   56MOL    C5819968   5.025   3.690   7.403 -0.4942  0.3302  0.0776
   56MOL    C5919969   4.920   3.777   7.477  0.8812  0.2364  0.0800
   56MOL    C6019970   4.978   3.897   7.561 -0.3932  0.3384  0.7129
   56MOL    C6119971   4.870   3.967   7.648  0.5769  0.8097  0.0370
   56MOL    C6219972   4.915   4.064   7.756 -0.0203  0.0545 -0.0535
   56MOL    O6319973   4.834   4.065   0.031 -0.0230  0.0728  0.0826
   56MOL    H6419974   5.051   3.734   7.307 -1.1452  0.1704 -0.1742
   56MOL    H6519975   5.125   3.686   7.447  0.7256 -1.9539 -2.7687
   56MOL    H6619976   4.857   3.708   7.533  2.1152 -1.8285 -1.0327
   56MOL    H6719977   4.846   3.829   7.416  0.5824 -0.2887 -0.0058
   56MOL    H6819978   5.019   3.979   7.502 -3.1318 -0.1399 -1.9999
   56MOL    H6919979   5.061   3.857   7.620  2.3995  1.1255 -2.5007
   56MOL    H7019980   4.810   3.887   7.692 -0.1035  2.1397  1.5846
   56MOL    H7119981   4.800   4.013   7.579  1.1561 -1.4953 -2.1374
   56MOL    H7219982   5.019   4.035   7.773 -0.7223 -1.7649  1.3883
   56MOL    H7319983   4.906   4.158   7.701  1.5210  0.3607  0.1970
   56MOL    C7419984   4.872   4.139   0.126 -0.3313  0.5336  0.1087
   56MOL    O7519985   4.980   4.194   0.128 -0.4413  0.9012  0.4516
   56MOL    C7619986   4.774   4.154   0.230 -0.6340 -0.3087  0.4245
   56MOL    C7719987   4.660   4.240   0.189  0.0790  0.3398  0.7631
   56MOL    C7819988   4.712   4.375   0.147  0.7934  0.0992 -0.0633
   56MOL    C7919989   4.600   4.472   0.141  0.2144 -0.1567  0.4137
   56MOL    C8019990   4.633   4.614   0.084 -0.4563  0.1332  0.4221
   56MOL    O8119991   4.746   4.673   0.154  0.4259  0.4544  0.1500
   56MOL    H8219992   4.835   4.204   0.305  0.1165 -0.5948  0.0041
   56MOL    H8319993   4.726   4.066   0.273 -2.4729  0.0016 -0.9216
   56MOL    H8419994   4.587   4.246   0.270 -1.6765  0.1760 -0.7686
   56MOL    H8519995   4.609   4.191   0.106  1.6180  0.1051 -0.0563
   56MOL    H8619996   4.757   4.384   0.048 -0.1760  1.2764 -0.4041
   56MOL    H8719997   4.785   4.421   0.213 -0.7418  0.5819  1.3169
   56MOL    H8819998   4.542   4.483   0.233  1.1019  0.5401  0.8990
   56MOL    H8919999   4.523   4.436   0.072  0.2881 -0.5066  0.5166
   56MOL    H9020000   4.661   4.603   7.824  0.1400  0.6116  0.5260
   56MOL    H9120001   4.550   4.684   0.095  1.0525  1.7046  2.1024
   56MOL    C9220002   4.808   4.779   0.095 -0.1270  0.6069 -0.2867
   56MOL    O9320003   4.759   4.837   7.844 -0.7491  0.0861 -0.1324
   56MOL    C9420004   4.933   4.820   0.160 -0.6391  0.0905 -0.4149
   56MOL    C9520005   5.040   4.707   0.167  0.7669 -0.2115  0.8640
   56MOL    C9620006   5.085   4.638   0.041  0.4141  0.1395 -0.2547
   56MOL    C9720007   5.178   4.513   0.068 -0.0071 -0.0327  0.1523
   56MOL    C9820008   5.170   4.411   7.806  0.7056  0.6442  0.3764
   56MOL    O9920009   5.216   4.470   7.682 -0.5879 -0.4661  0.0724
   56MOL   H10020010   4.894   4.855   0.255 -0.1945 -3.9210  1.3112
   56MOL   H10120011   4.974   4.909   0.113  1.0469  0.9064  2.4760
   56MOL   H10220012   5.016   4.635   0.245 -0.2950 -0.6197  0.1745
   56MOL   H10320013   5.125   4.764   0.205 -1.2559  2.6498  1.2402
   56MOL   H10420014   5.139   4.700   7.814 -1.6295  1.3601 -0.7801
   56MOL   H10520015   4.995   4.600   7.838  0.7861 -0.2368 -0.6736
   56MOL   H10620016   5.146   4.473   0.163  2.2473  0.4463  1.1470
   56MOL   H10720017   5.280   4.541   0.092 -0.5220  1.4992  0.5954
   56MOL   H10820018   5.216   4.315   7.831 -1.2869 -0.1216  1.2061
   56MOL   H10920019   5.063   4.393   7.791  0.1150  3.6838  0.7263
   56MOL   C11020020   5.181   4.407   7.571  0.3876 -0.2161  1.4412
   56MOL   O11120021   5.120   4.299   7.570  0.6673  0.0935  0.2455
   56MOL   C11220022   5.231   4.470   7.442 -0.1932 -0.2729 -0.2583
   56MOL   C11320023   5.138   4.479   7.329  0.3841 -0.3614 -0.9897
   56MOL   C11420024   5.216   4.517   7.197 -0.3151 -0.1394 -0.2367
   56MOL   C11520025   5.153   4.483   7.058  0.2605 -0.4484 -0.2994
   56MOL   C11620026   5.257   4.487   6.948 -0.1520 -0.8254 -0.4813
   56MOL   O11720027   5.308   4.620   6.930 -0.1617  0.3031 -1.1498
   56MOL   H11820028   5.318   4.414   7.408 -0.0237  0.5475 -1.2060
   56MOL   H11920029   5.272   4.569   7.465  1.1005 -0.8542 -0.0126
   56MOL   H12020030   5.066   4.561   7.330 -0.0062 -0.7057 -0.4125
   56MOL   H12120031   5.090   4.381   7.326  1.2198 -0.9913  3.0497
   56MOL   H12220032   5.313   4.467   7.199 -0.0434  0.3794 -0.4117
   56MOL   H12320033   5.242   4.621   7.216 -0.8913  0.0450 -0.4363
   56MOL   H12420034   5.075   4.552   7.026  1.5189  0.7444 -0.8378
   56MOL   H12520035   5.111   4.383   7.063 -1.7823  0.4120  0.5773
   56MOL   H12620036   5.333   4.410   6.962  0.2872 -0.0557  1.5532
   56MOL   H12720037   5.198   4.454   6.862  0.3095 -3.0717  0.0138
   56MOL   C12820038   5.439   4.631   6.911 -0.3646  0.6285  1.0114
   56MOL   O12920039   5.505   4.547   6.856  0.5166 -0.1594  0.2791
   56MOL   C13020040   5.494   4.767   6.950  0.6692  0.2959 -0.2748
   56MOL   C13120041   5.639   4.758   6.969  0.2769 -0.5540 -0.5400
   56MOL   C13220042   5.721   4.775   6.843  0.5230  0.4161 -0.0493
   56MOL   C13320043   5.866   4.804   6.869  0.6560 -0.0301  0.4758
   56MOL   C13420044   5.887   4.953   6.911 -0.2144 -0.0790  0.3057
   56MOL   O13520045   5.846   5.042   6.803 -0.4006  0.4428 -0.2595
   56MOL   H13620046   5.450   4.791   7.047 -0.8819 -1.9392 -0.3729
   56MOL   H13720047   5.459   4.832   6.870 -1.9753  1.1895  1.5390
   56MOL   H13820048   5.656   4.664   7.020  0.0208  0.5910  1.7248
   56MOL   H13920049   5.667   4.835   7.041  0.8430 -1.6127  0.3684
   56MOL   H14020050   5.681   4.851   6.776  0.4598  1.7833  1.4931
   56MOL   H14120051   5.716   4.675   6.800  2.3153  0.6288 -0.7968
   56MOL   H14220052   5.919   4.793   6.774 -0.6545  2.2134 -0.5540
   56MOL   H14320053   5.901   4.738   6.948  0.3192 -1.0615 -0.2290
   56MOL   H14420054   5.829   4.964   7.003 -1.5354  1.1172 -0.6606
   56MOL   H14520055   5.986   4.977   6.950 -1.2353  2.7931  1.2307
   56MOL   C14620056   5.821   5.167   6.825 -0.4404  0.1304  0.2798
   56MOL   O14720057   5.866   5.234   6.914  0.4458  0.4605  0.0398
   56MOL   C14820058   5.726   5.230   6.721 -0.0705 -0.5354 -0.2043
   56MOL   C14920059   5.591   5.159   6.687  0.1548 -0.6813  0.0945
   56MOL   C15020060   5.496   5.153   6.811  0.8219  0.1030  0.4544
   56MOL   C15120061   5.364   5.085   6.766  0.4443 -0.2099  0.0424
   56MOL   C15220062   5.267   5.061   6.894  0.3085  0.6731 -0.2746
   56MOL   O15320063   5.161   4.971   6.867  0.3972 -0.5758  0.4755
   56MOL   H15420064   5.781   5.254   6.630  0.5974 -2.8235 -0.4349
   56MOL   H15520065   5.703   5.326   6.766  0.6585 -0.4209 -0.0790
   56MOL   H15620066   5.609   5.055   6.661 -1.5177 -0.4522 -2.0945
   56MOL   H15720067   5.529   5.207   6.611  0.4122 -1.0044 -0.3198
   56MOL   H15820068   5.488   5.253   6.853  4.2417  1.2268 -1.3081
   56MOL   H15920069   5.537   5.086   6.886 -0.2157 -0.5250  0.4733
   56MOL   H16020070   5.376   4.993   6.710 -0.2296 -0.3024  0.0542
   56MOL   H16120071   5.312   5.159   6.705  0.1562  0.2279  0.8024
   56MOL   H16220072   5.332   5.019   6.971  0.8584  1.3958 -0.3257
   56MOL   H16320073   5.229   5.152   6.941  0.0051  1.0454 -1.2223
   56MOL   C16420074   5.093   4.926   6.968  0.3232 -0.0549 -0.0662
   56MOL   O16520075   5.113   4.965   7.084  0.0430  0.3745  0.1051
   56MOL   C16620076   4.986   4.826   6.932  0.3312 -0.8640  0.3785
   56MOL   C16720077   4.882   4.893   6.841 -0.1255 -0.2362 -0.7631
   56MOL   C16820078   4.794   4.997   6.921 -0.3990  0.2388  0.0572
   56MOL   C16920079   4.675   5.047   6.851  0.0140  0.1748  0.2706
   56MOL   C17020080   4.580   5.145   6.932 -0.1660  0.5156 -0.8563
   56MOL   O17120081   4.514   5.072   7.039  0.6164 -0.8904  0.6943
   56MOL   H17220082   4.934   4.791   7.021  1.3970  0.5597  1.6139
   56MOL   H17320083   5.028   4.737   6.886  1.3408 -0.6823  0.9238
   56MOL   H17420084   4.811   4.813   6.819 -0.2370 -0.2574 -0.3422
   56MOL   H17520085   4.926   4.935   6.751  0.4126 -0.1691 -0.4722
   56MOL   H17620086   4.864   5.075   6.951  0.0826 -0.4499  0.7229
   56MOL   H17720087   4.756   4.946   7.009  0.2022  0.6824  0.5702
   56MOL   H17820088   4.617   4.960   6.824  0.2605  0.0689  0.0850
   56MOL   H17920089   4.714   5.095   6.761 -0.2574 -1.2365 -0.6002
   56MOL   H18020090   4.635   5.222   6.985  2.2103 -1.1945 -0.7507
   56MOL   H18120091   4.499   5.183   6.871 -2.3997 -3.2166 -0.3773
   56MOL   C18220092   4.541   5.093   7.169 -0.6063  0.0779 -0.7530
   56MOL   O18320093   4.596   5.188   7.220  0.5277  0.0384  0.1567
   56MOL   C18420094   4.496   4.986   7.264  0.0350 -0.5797 -0.0797
   56MOL   C18520095   4.604   4.959   7.367  0.7850 -0.2104 -0.3827
   56MOL   C18620096   4.730   4.891   7.316 -0.2642 -0.2395 -0.1715
   56MOL   C18720097   4.793   4.794   7.424 -0.6494  0.1380  0.2356
   56MOL   C18820098   4.819   4.844   7.562  0.0857 -0.0884 -0.5513
   56MOL   O18920099   4.916   4.953   7.574 -0.4150 -0.3590  0.7945
   56MOL   H19020100   4.481   4.892   7.211  0.2427 -1.6970  1.8032
   56MOL   H19120101   4.402   5.020   7.306 -1.6026 -2.9893 -1.6971
   56MOL   H19220102   4.548   4.893   7.434 -1.7777  1.7652 -0.4593
   56MOL   H19320103   4.629   5.042   7.433  1.5365 -0.5983 -0.1827
   56MOL   H19420104   4.796   4.970   7.279 -0.8488 -0.0818 -0.8926
   56MOL   H19520105   4.719   4.840   7.221 -0.8013  0.3502 -0.4310
   56MOL   H19620106   4.892   4.757   7.398 -0.3294  2.4751 -2.0841
   56MOL   H19720107   4.726   4.708   7.428  0.1735 -0.4545  3.1756
   56MOL   H19820108   4.717   4.867   7.595  1.3740  1.7939  2.3608
   56MOL   H19920109   4.841   4.761   7.629  2.0613  0.5032 -0.4473
   56MOL   C20020110   5.040   4.920   7.580 -0.4714 -0.0439 -0.0312
   56MOL   O20120111   5.089   4.807   7.583 -0.2413 -0.2471  0.1822
   56MOL   C20220112   5.127   5.045   7.591 -0.2569  0.9489  0.7482
   56MOL   C20320113   5.163   5.109   7.449  0.2733  0.5135 -0.2448
   56MOL   C20420114   5.054   5.192   7.388 -0.4950 -0.6652  0.3640
   56MOL   C20520115   5.086   5.267   7.249 -0.2731  0.4396  0.1340
   56MOL   C20620116   4.955   5.285   7.180 -0.2304 -0.1606  0.4607
   56MOL   O20720117   4.887   5.397   7.227  0.6704  0.0753  0.1863
   56MOL   H20820118   5.220   5.014   7.639  0.8403 -1.5445 -2.7555
   56MOL   H20920119   5.073   5.112   7.658 -1.4031  0.0976  0.6925
   56MOL   H21020120   5.189   5.027   7.382 -0.9143  0.1167 -0.2429
   56MOL   H21120121   5.259   5.157   7.466 -0.5894  1.8385  1.0386
   56MOL   H21220122   4.998   5.255   7.457 -0.1237 -0.7427  0.7376
   56MOL   H21320123   4.979   5.114   7.377  0.0832 -1.1726 -0.0036
   56MOL   H21420124   5.151   5.200   7.193  0.8156  0.8313  0.8988
   56MOL   H21520125   5.138   5.361   7.265 -2.2403  1.7279 -0.8661
   56MOL   H21620126   4.969   5.299   7.073  1.1895 -2.0755  0.3797
   56MOL   H21720127   4.893   5.196   7.183  1.3138 -1.2124  1.6348
   56MOL   C21820128   4.913   5.526   7.181  0.5615  0.4897 -0.1381
   56MOL   O21920129   5.002   5.560   7.101  0.2858 -0.3213 -0.7016
   56MOL   C22020130   4.838   5.635   7.254  1.2339  0.5602 -0.5087
   56MOL   C22120131   4.683   5.608   7.279 -0.8190 -0.2080  0.0440
   56MOL   C22220132   4.587   5.628   7.155 -0.3329 -0.4203 -0.0254
   56MOL   C22320133   4.587   5.518   7.049  0.4376  0.1635  0.1953
   56MOL   C22420134   4.480   5.541   6.935 -1.0589  0.2699  0.6027
   56MOL   O22520135   4.526   5.628   6.833  0.1836  0.3560 -0.1666
   56MOL   H22620136   4.862   5.734   7.214 -0.1531  0.8219 -0.7031
   56MOL   H22720137   4.870   5.643   7.358 -0.0278 -1.6241  0.0598
   56MOL   H22820138   4.648   5.685   7.348 -0.3098 -1.5614  1.8292
   56MOL   H22920139   4.659   5.512   7.324 -1.1673 -0.2717 -0.2787
   56MOL   H23020140   4.592   5.729   7.114  0.8783 -0.2812  0.4411
   56MOL   H23120141   4.490   5.627   7.204 -0.1588 -0.0319  0.3380
   56MOL   H23220142   4.562   5.424   7.098 -0.0385 -0.7615 -1.7588
   56MOL   H23320143   4.690   5.508   7.016  0.3724  0.7878 -0.1967
   56MOL   H23420144   4.471   5.444   6.888 -1.9302  0.7185 -0.1626
   56MOL   H23520145   4.382   5.576   6.968 -1.3083  1.1682 -1.0295
   56MOL   C23620146   4.622   5.571   6.748 -0.2298 -1.2686  0.4073
   56MOL   O23720147   4.666   5.456   6.756 -0.4027  0.2209  0.2242
   56MOL   C23820148   4.673   5.675   6.639 -0.2441  0.7784 -0.8414
   56MOL   C23920149   4.744   5.800   6.699  0.6563 -0.3961 -0.4002
   56MOL   C24020150   4.836   5.777   6.821  0.2979  0.2363  0.1975
   56MOL   C24120151   4.941   5.885   6.825  0.7333  0.2492  0.9394
   56MOL   C24220152   5.044   5.866   6.934  0.5893  0.1442  0.2365
   56MOL   O24320153   5.124   5.986   6.919 -0.3067 -0.3559 -0.2569
   56MOL   H24420154   4.600   5.701   6.563 -0.1494 -2.0163 -1.9366
   56MOL   H24520155   4.757   5.629   6.585 -0.2674  0.2686 -0.4468
   56MOL   H24620156   4.658   5.860   6.729  0.9097  1.3808 -3.0450
   56MOL   H24720157   4.788   5.834   6.605  0.8619 -1.4319 -0.6947
   56MOL   H24820158   4.879   5.677   6.825  0.2076  0.1684 -0.4803
   56MOL   H24920159   4.777   5.782   6.912  0.0035  0.3178  0.0027
   56MOL   H25020160   4.895   5.983   6.837  1.8594  0.7627  1.1415
   56MOL   H25120161   5.001   5.891   6.735 -2.4759  2.6135 -1.1710
   56MOL   H25220162   5.005   5.853   7.035  0.3550 -1.0753 -0.0067
   56MOL   H25320163   5.105   5.778   6.915 -0.1770  0.0382 -1.8587
   56MOL   C25420164   5.111   6.085   7.009  0.3041 -0.8536 -0.2151
   56MOL   O25520165   5.031   6.099   7.101  0.1816 -0.4109  0.4332
   56MOL   C25620166   5.210   6.198   6.983 -0.3498  0.1494 -0.5853
   56MOL   C25720167   5.192   6.321   7.070 -0.1035 -0.1170 -0.0706
   56MOL   C25820168   5.286   6.432   7.011  0.1604 -0.5315  0.3171
   56MOL   C25920169   5.263   6.577   7.056  0.5022 -0.2772  0.2167
   56MOL   C26020170   5.341   6.680   6.984 -0.1967  0.2605  0.0821
   56MOL   O26120171   5.484   6.681   7.019  0.1058 -0.6510  0.4506
   56MOL   H26220172   5.210   6.207   6.874 -1.6048  1.0391 -0.5343
   56MOL   H26320173   5.307   6.152   6.995 -1.6439 -2.2326  1.1483
   56MOL   H26420174   5.219   6.292   7.171  1.5577  0.9529 -0.1922
   56MOL   H26520175   5.089   6.358   7.073  0.4001  1.3310 -0.1548
   56MOL   H26620176   5.279   6.433   6.902 -0.4886 -2.1363  0.3283
   56MOL   H26720177   5.390   6.399   7.019  0.0769 -0.5889  1.2871
   56MOL   H26820178   5.276   6.596   7.162 -1.5948 -0.7678  0.5865
   56MOL   H26920179   5.161   6.611   7.038 -0.1622 -1.5398  1.5196
   56MOL   H27020180   5.334   6.671   6.875  3.9634 -0.8183 -0.2059
   56MOL   H27120181   5.311   6.782   7.010  0.7867  0.8790 -1.1476
   56MOL   C27220182   5.583   6.645   6.927 -0.2646  0.6352  0.1858
   56MOL   O27320183   5.564   6.601   6.811 -0.1418 -0.2280 -0.1878
   56MOL   C27420184   5.726   6.661   6.987 -1.1130  0.1396  0.9234
   56MOL   C27520185   5.779   6.805   6.986 -0.2892  0.1404 -0.1726
   56MOL   C27620186   5.719   6.902   7.087 -0.6964 -0.5722  0.0434
   56MOL   C27720187   5.791   7.042   7.093 -0.4138 -0.8912 -0.1584
   56MOL   C27820188   5.732   7.149   7.191  0.8740 -0.4031 -0.5381
   56MOL   O27920189   5.604   7.185   7.154  0.4055 -0.2391 -0.0997
   56MOL   H28020190   5.804   6.599   6.942 -0.4214 -0.1472  2.4835
   56MOL   H28120191   5.731   6.632   7.092  1.3484 -1.7041  0.3571
   56MOL   H28220192   5.759   6.848   6.888 -1.8713 -2.4863 -1.0566
   56MOL   H28320193   5.887   6.798   6.993 -0.3006 -2.0355 -1.6334
   56MOL   H28420194   5.717   6.854   7.185  0.6203 -3.7647 -1.4318
   56MOL   H28520195   5.611   6.917   7.081 -0.5714  0.1417 -0.5852
   56MOL   H28620196   5.797   7.084   6.992 -0.1324 -1.3119 -0.3190
   56MOL   H28720197   5.891   7.031   7.134  0.4348  2.6600 -1.0649
   56MOL   H28820198   5.739   7.118   7.295 -0.5863  0.8552 -0.0450
   56MOL   H28920199   5.802   7.232   7.180  0.6786 -0.4646 -2.4548
   56MOL   C29020200   5.497   7.185   7.240  0.3226  0.0037  0.2621
   56MOL   O29120201   5.513   7.179   7.361  0.1750 -0.5534 -0.8309
   56MOL   C29220202   5.363   7.194   7.168 -0.2549 -0.4509 -0.2936
   56MOL   C29320203   5.339   7.063   7.093 -0.2998  0.3033 -0.3953
   56MOL   C29420204   5.192   7.054   7.046  0.0830  0.4528  0.2409
   56MOL   C29520205   5.093   7.020   7.163 -0.2085 -0.0726 -0.1398
   56MOL   C29620206   4.945   7.029   7.129  0.3523  0.0651 -0.6842
   56MOL   O29720207   4.910   7.160   7.132 -0.3181  0.3751  0.5624
   56MOL   H29820208   5.358   7.277   7.098  1.7563  1.4421  1.7324
   56MOL   H29920209   5.281   7.205   7.240 -0.6869 -0.8117 -0.7252
   56MOL   H30020210   5.366   6.969   7.140 -0.6812  0.6799  0.5979
   56MOL   H30120211   5.399   7.064   7.002  0.8829 -0.2475  0.3753
   56MOL   H30220212   5.172   6.964   6.988 -1.1204  1.4627 -0.9471
   56MOL   H30320213   5.145   7.136   6.992  0.4765 -0.5593 -1.7060
   56MOL   H30420214   5.111   7.080   7.252 -1.4846  0.0981  0.0091
   56MOL   H30520215   5.110   6.918   7.199  0.8405 -0.2438 -1.0866
   56MOL   H30620216   4.935   6.992   7.026 -0.2116 -0.3673 -0.4741
   56MOL   H30720217   4.881   6.971   7.195  2.1347 -1.8442 -0.5679
   56MOL   C30820218   4.801   7.201   7.056  0.2810 -0.3252  0.1537
   56MOL   O30920219   4.734   7.133   6.981  0.2261  0.2733 -0.5629
   56MOL   C31020220   4.781   7.347   7.066 -0.3377 -0.3801  0.0491
   56MOL   C31120221   4.880   7.421   6.973  0.5065  0.2574  0.0916
   56MOL   C31220222   4.840   7.565   6.949 -0.0061 -0.4084  0.8801
   56MOL   C31320223   4.925   7.639   6.851 -0.2781  0.1560  0.3191
   56MOL   C31420224   4.867   7.772   6.802 -0.0324 -0.2173 -0.0836
   56MOL   O31520225   4.960   7.825   6.706 -0.3887 -0.2995  0.4284
   56MOL   H31620226   4.798   7.388   7.166 -0.6126 -2.4969  0.9998
   56MOL   H31720227   4.675   7.355   7.040 -0.5558  1.5860  1.4313
   56MOL   H31820228   4.896   7.377   6.874  1.5874  2.1997 -0.6356
   56MOL   H31920229   4.981   7.421   7.015  0.5191  1.9908  0.0792
   56MOL   H32020230   4.831   7.622   7.042  0.1849 -0.0364  0.6720
   56MOL   H32120231   4.740   7.555   6.905 -0.6208  0.4368  2.0441
   56MOL   H32220232   4.929   7.570   6.766  1.4311 -1.7454  1.9047
   56MOL   H32320233   5.025   7.638   6.893  0.2054  1.2611 -0.7631
   56MOL   H32420234   4.770   7.756   6.755 -0.0789 -0.6001  0.1422
   56MOL   H32520235   4.849   7.834   6.889  0.1230  1.6055 -1.3149
   56MOL   C32620236   4.948   0.100   6.648  0.1020  0.4259 -0.0020
   56MOL   O32720237   4.848   0.170   6.655 -0.1888 -0.1815 -0.1714
   56MOL   C32820238   5.059   0.134   6.547 -0.4828 -0.0143  0.1792
   56MOL   C32920239   5.061   0.280   6.497 -0.7968  0.8497  0.3909
   56MOL   C33020240   4.964   0.309   6.377 -0.5418  0.3195  0.1909
   56MOL   C33120241   4.951   0.460   6.358  0.5356 -0.2409  0.2474
   56MOL   C33220242   4.857   0.504   6.235  0.1693 -0.3707  0.6978
   56MOL   O33320243   4.834   0.641   6.221 -0.0856 -0.0838  0.1155
   56MOL   H33420244   5.023   0.068   6.468 -2.4903 -1.0908  1.9488
   56MOL   H33520245   5.159   0.100   6.573 -0.3435  0.6068  0.4599
   56MOL   H33620246   5.161   0.311   6.466 -2.1520  3.1222 -1.9914
   56MOL   H33720247   5.031   0.340   6.582  0.9539 -0.9304  2.3058
   56MOL   H33820248   4.863   0.274   6.398  0.1246 -0.9459  1.3181
   56MOL   H33920249   5.013   0.264   6.291 -1.6062 -1.2244  0.3693
   56MOL   H34020250   5.053   0.491   6.334  0.5130 -0.7474 -0.4984
   56MOL   H34120251   4.927   0.513   6.450  1.9793  0.8372  0.0268
   56MOL   H34220252   4.914   0.471   6.149  0.3201  0.2561  0.5583
   56MOL   H34320253   4.766   0.445   6.243  0.0476 -0.6136 -2.2119
   56MOL   C34420254   4.834   0.700   6.102  0.6583  0.1739 -0.0279
   56MOL   O34520255   4.856   0.655   5.988  0.4858 -0.0519  0.1921
   56MOL   C34620256   4.792   0.848   6.119  0.0352  0.6601 -0.1009
   56MOL   C34720257   4.909   0.930   6.172  0.0336  0.4833 -0.5123
   56MOL   C34820258   4.930   0.924   6.327 -0.6571  1.0402 -0.5539
   56MOL   C34920259   4.802   0.945   6.412 -0.2326 -1.0143  0.0733
   56MOL   C35020260   4.840   0.925   6.565  0.5504  0.0870 -0.6848
   56MOL   O35120261   4.728   0.965   6.638 -0.5387  0.0718  0.3245
   56MOL   H35220262   4.703   0.851   6.182 -0.4809  0.7978 -0.8327
   56MOL   H35320263   4.762   0.881   6.019 -1.1257 -1.3287 -0.4555
   56MOL   H35420264   4.891   1.035   6.149 -2.4578  0.1096 -0.3779
   56MOL   H35520265   5.002   0.915   6.115 -0.6644  0.5808 -1.7022
   56MOL   H35620266   5.014   0.991   6.346  1.4971 -1.8473  0.4466
   56MOL   H35720267   4.966   0.827   6.362 -0.7294  1.3253  0.3089
   56MOL   H35820268   4.723   0.876   6.382 -1.0890 -0.6296  1.4052
   56MOL   H35920269   4.771   1.049   6.402  2.8617 -0.2037 -2.1032
   56MOL   H36020270   4.869   0.825   6.598  0.5793 -0.1419 -1.3998
   56MOL   H36120271   4.923   0.983   6.605 -1.7088  2.1082  1.2316
   56MOL   H36220272   4.647   0.943   6.595 -1.2921 -0.4575  1.9856
   57MOL     C120273   4.358   4.569   0.904 -0.4093 -0.3717 -0.4257
   57MOL     O220274   4.294   4.540   1.005 -0.4625 -0.5637  0.2993
   57MOL     C320275   4.486   4.656   0.901 -0.8107  0.5311 -0.2625
   57MOL     C420276   4.499   4.738   1.037 -0.1537 -0.8566  0.2760
   57MOL     C520277   4.638   4.805   1.050  0.1492  0.1072 -0.2172
   57MOL     C620278   4.665   4.931   0.968  0.1495 -0.6859  0.4061
   57MOL     C720279   4.813   4.962   0.976  0.7986  0.2674 -0.8799
   57MOL     O820280   4.893   4.880   0.899  0.8568 -0.2468 -0.2551
   57MOL     H920281   4.489   4.730   0.821 -1.6927  0.3479 -0.4699
   57MOL    H1020282   4.578   4.600   0.890 -1.2117  0.1367 -1.6891
   57MOL    H1120283   4.487   4.666   1.118 -1.8308  1.1060  1.8268
   57MOL    H1220284   4.436   4.824   1.059  1.9119  0.4369  1.4109
   57MOL    H1320285   4.717   4.735   1.021 -0.5864 -1.2883  1.0743
   57MOL    H1420286   4.652   4.815   1.158 -0.0033 -1.9129  0.0095
   57MOL    H1520287   4.610   5.009   1.019 -2.3724 -0.1671 -2.9327
   57MOL    H1620288   4.630   4.927   0.865 -1.5430 -0.0536  0.9552
   57MOL    H1720289   4.838   5.061   0.939  1.6587  0.0357 -0.9346
   57MOL    H1820290   4.846   4.963   1.080 -0.1820  1.2859 -0.5602
   57MOL    H1920291   4.311   4.538   0.810 -0.2073  0.7421 -0.9024
   57MOL    C2020292   5.028   4.902   0.883  0.7369  0.9719  0.3844
   57MOL    O2120293   5.094   4.993   0.939  0.2980  0.1437  0.1905
   57MOL    C2220294   5.094   4.787   0.810  0.5216  0.0319 -0.1314
   57MOL    C2320295   5.108   4.816   0.655  0.4167  0.2905 -0.5095
   57MOL    C2420296   4.973   4.833   0.574 -0.7020 -0.3421 -0.6226
   57MOL    C2520297   4.896   4.700   0.594  0.0200  0.8502 -0.1769
   57MOL    C2620298   4.801   4.660   0.480  0.2257  0.3798 -0.1485
   57MOL    O2720299   4.720   4.764   0.449  0.6207  0.5629  0.2321
   57MOL    H2820300   5.031   4.700   0.827 -1.6501  1.4450 -0.7146
   57MOL    H2920301   5.191   4.761   0.852  0.3467 -0.4056  0.0047
   57MOL    H3020302   5.170   4.735   0.616  0.6432 -0.1286  0.6985
   57MOL    H3120303   5.173   4.902   0.639  0.6856 -0.1355 -1.7865
   57MOL    H3220304   4.994   4.864   0.472 -0.7981  2.9600  0.3310
   57MOL    H3320305   4.916   4.914   0.619  1.1884 -0.1454  1.5093
   57MOL    H3420306   4.838   4.713   0.685 -0.7795  0.8158 -0.6760
   57MOL    H3520307   4.959   4.613   0.611 -1.4330 -0.1453  0.2568
   57MOL    H3620308   4.850   4.636   0.385 -0.6208  1.1905 -0.7908
   57MOL    H3720309   4.739   4.574   0.506  0.1533  0.1950 -0.9277
   57MOL    C3820310   4.597   4.784   0.498 -0.3909  0.4005 -0.3230
   57MOL    O3920311   4.547   4.710   0.588 -0.6460 -0.3435  0.2396
   57MOL    C4020312   4.528   4.916   0.459 -0.6609  0.0945 -0.1961
   57MOL    C4120313   4.384   4.892   0.405  0.2044  0.2813 -1.0228
   57MOL    C4220314   4.379   4.855   0.255 -0.2447 -0.4711  0.1371
   57MOL    C4320315   4.244   4.861   0.178  0.3512  0.7151  0.4905
   57MOL    C4420316   4.262   4.856   0.026  0.4726 -0.1886  0.3730
   57MOL    O4520317   4.338   4.966   7.822  0.6408  0.5623  0.1116
   57MOL    H4620318   4.588   4.974   0.388 -2.0533  1.6181 -0.1708
   57MOL    H4720319   4.527   4.980   0.547 -1.5783  1.4937 -1.1948
   57MOL    H4820320   4.332   4.986   0.428  1.8712  0.5064  2.0787
   57MOL    H4920321   4.325   4.826   0.469  0.6287 -0.7937 -1.7292
   57MOL    H5020322   4.416   4.754   0.243  0.3454 -0.1290 -0.9741
   57MOL    H5120323   4.453   4.910   0.197 -0.0903  0.1870  0.9347
   57MOL    H5220324   4.190   4.954   0.195  0.1197  0.3048  2.0397
   57MOL    H5320325   4.174   4.786   0.213 -0.1155  0.7660 -0.3183
   57MOL    H5420326   4.295   4.759   7.834 -1.7136 -1.5440  1.8803
   57MOL    H5520327   4.156   4.862   0.002  0.5396 -0.0663  0.1055
   57MOL    C5620328   4.445   4.951   7.741  0.7520  0.2139  0.0866
   57MOL    O5720329   4.478   4.855   7.679 -0.5096  0.2838  0.3804
   57MOL    C5820330   4.519   5.085   7.738  0.2679 -0.8562  0.3238
   57MOL    C5920331   4.452   5.191   7.657  0.5592 -0.0212  0.5803
   57MOL    C6020332   4.541   5.318   7.657  0.4947 -0.5143 -0.1494
   57MOL    C6120333   4.667   5.312   7.573 -0.6137 -0.4395  0.1916
   57MOL    C6220334   4.744   5.448   7.598  0.0019  0.2762 -0.8451
   57MOL    O6320335   4.848   5.427   7.698  0.5482 -0.2775 -0.3813
   57MOL    H6420336   4.605   5.054   7.679 -0.5980  0.3857 -1.6521
   57MOL    H6520337   4.542   5.124   7.837  0.5685 -0.8832  0.2645
   57MOL    H6620338   4.363   5.211   7.715 -1.2290  0.4296 -2.2066
   57MOL    H6720339   4.439   5.151   7.556  3.4099 -0.0417  0.1765
   57MOL    H6820340   4.565   5.360   7.754  0.5198  0.6482 -0.6511
   57MOL    H6920341   4.468   5.392   7.624 -0.3874 -0.0292  2.8026
   57MOL    H7020342   4.647   5.303   7.466 -1.7719  1.3659  0.2239
   57MOL    H7120343   4.720   5.218   7.586 -0.0929 -0.0464  0.9267
   57MOL    H7220344   4.782   5.478   7.501  0.0155 -0.4464 -1.0625
   57MOL    H7320345   4.668   5.523   7.621 -0.8587 -0.9037  0.2628
   57MOL    C7420346   4.965   5.486   7.673 -0.3767 -1.3457 -0.2521
   57MOL    O7520347   4.999   5.537   7.566  0.4061  0.0418  0.3602
   57MOL    C7620348   5.046   5.498   7.803  0.1638  0.2359 -0.8046
   57MOL    C7720349   5.188   5.552   7.772  0.0288  0.2313 -0.2676
   57MOL    C7820350   5.196   5.704   7.779 -0.5393  0.4102 -0.9003
   57MOL    C7920351   5.329   5.758   7.736 -0.0228  0.6113 -0.7391
   57MOL    C8020352   5.344   5.908   7.753  0.1599 -0.5959  0.3675
   57MOL    O8120353   5.467   5.931   7.696 -0.0192 -0.3841 -0.1605
   57MOL    H8220354   5.049   5.394   7.836  3.4124  0.0421 -1.4822
   57MOL    H8320355   4.989   5.542   0.040  3.3418  1.3885  0.9009
   57MOL    H8420356   5.241   5.519   7.682  1.6228  1.5211  0.1709
   57MOL    H8520357   5.253   5.505   0.001  0.9799  1.9214 -0.0009
   57MOL    H8620358   5.168   5.734   0.036 -0.7467 -2.5550 -0.0273
   57MOL    H8720359   5.117   5.748   7.718 -2.1775  0.3175  1.1036
   57MOL    H8820360   5.341   5.721   7.634 -1.9505  0.0447 -0.7792
   57MOL    H8920361   5.414   5.706   7.782 -0.3835  1.7264  1.1992
   57MOL    H9020362   5.264   5.953   7.694  1.7158  0.6273 -0.8720
   57MOL    H9120363   5.351   5.945   0.011 -1.4647  0.3041  0.1654
   57MOL    C9220364   5.510   6.057   7.694  0.5403  0.1419 -0.2469
   57MOL    O9320365   5.449   6.155   7.738  0.5603 -0.3952 -0.2133
   57MOL    C9420366   5.643   6.080   7.625 -0.0643  0.2020  0.1079
   57MOL    C9520367   5.619   6.131   7.481 -0.1910 -0.2543 -0.1941
   57MOL    C9620368   5.537   6.259   7.461 -0.2033  0.2303 -0.7954
   57MOL    C9720369   5.529   6.299   7.324 -0.2572  0.4106  0.2080
   57MOL    C9820370   5.660   6.307   7.249 -0.2124  0.7217 -0.4434
   57MOL    O9920371   5.742   6.410   7.303  0.2451  0.1084  0.0694
   57MOL   H10020372   5.689   5.981   7.622  0.0902  0.2482  0.8619
   57MOL   H10120373   5.711   6.150   7.672  1.1343  1.0392 -2.7733
   57MOL   H10220374   5.563   6.054   7.429 -1.2400  2.0602 -2.5410
   57MOL   H10320375   5.718   6.153   7.442 -1.0089  1.7835 -1.1622
   57MOL   H10420376   5.574   6.342   7.521 -0.3626 -1.9687  2.4991
   57MOL   H10520377   5.434   6.251   7.495  0.7421 -2.2151  1.7548
   57MOL   H10620378   5.481   6.397   7.326 -0.1319  0.4657  0.5145
   57MOL   H10720379   5.459   6.235   7.270  2.0080 -2.3551  0.4438
   57MOL   H10820380   5.711   6.211   7.259 -1.0430  0.2558 -0.6894
   57MOL   H10920381   5.655   6.319   7.141  0.5977  0.4895 -0.5089
   57MOL   C11020382   5.871   6.402   7.286 -0.2464 -0.0528 -0.3058
   57MOL   O11120383   5.933   6.314   7.235  0.3332  1.3633 -0.4292
   57MOL   C11220384   5.952   6.524   7.339  0.4712  0.1340  0.0348
   57MOL   C11320385   6.106   6.509   7.343  0.0094  0.5738 -0.0542
   57MOL   C11420386   6.182   6.514   7.203  0.1759 -0.0375  0.8152
   57MOL   C11520387   6.181   6.657   7.146  0.7137 -0.0584  0.7665
   57MOL   C11620388   6.203   6.683   6.995 -0.0504 -0.1082 -0.2061
   57MOL   O11720389   6.094   6.631   6.923 -0.4989  0.6043  0.1490
   57MOL   H11820390   5.916   6.533   7.441  2.5549 -0.0207  0.7993
   57MOL   H11920391   5.933   6.611   7.275 -1.6259 -0.8395 -0.7172
   57MOL   H12020392   6.142   6.412   7.378 -2.4755  0.4947  2.4435
   57MOL   H12120393   6.154   6.582   7.408  1.7878 -1.4549  0.9810
   57MOL   H12220394   6.145   6.437   7.134  0.6903  1.1927 -0.8646
   57MOL   H12320395   6.288   6.491   7.208  0.3930  1.1799  1.9844
   57MOL   H12420396   6.270   6.710   7.181 -0.8381  2.6272  0.7432
   57MOL   H12520397   6.087   6.704   7.174 -0.8697 -2.8379  0.3163
   57MOL   H12620398   6.198   6.790   6.975 -0.0536  0.5182  2.9157
   57MOL   H12720399   6.304   6.640   6.987  0.2821  0.2967  1.5718
   57MOL   C12820400   6.119   6.596   6.799 -0.9010 -0.0473 -0.8057
   57MOL   O12920401   6.224   6.612   6.741  0.2546  0.7323  0.0840
   57MOL   C13020402   5.997   6.532   6.735 -0.0794  0.1593 -0.8706
   57MOL   C13120403   5.966   6.396   6.797 -0.4767  0.4165  0.3205
   57MOL   C13220404   6.049   6.273   6.758  0.3885  0.0578 -0.4952
   57MOL   C13320405   6.038   6.141   6.838  0.1568  0.5236 -0.4198
   57MOL   C13420406   6.123   6.025   6.798 -0.3346 -0.4571  0.5833
   57MOL   O13520407   6.064   5.906   6.837  0.0114 -0.1102  0.2448
   57MOL   H13620408   6.022   6.524   6.629 -0.1369 -2.2412 -0.7323
   57MOL   H13720409   5.903   6.587   6.739  0.3028  0.7389  0.2496
   57MOL   H13820410   5.862   6.369   6.776 -0.1941 -2.8377  2.7808
   57MOL   H13920411   5.965   6.404   6.906 -0.3308  0.7322  0.3003
   57MOL   H14020412   6.155   6.297   6.766  1.0929 -2.8673 -0.6451
   57MOL   H14120413   6.021   6.251   6.655 -1.4675 -1.4142  0.2987
   57MOL   H14220414   5.940   6.099   6.815 -0.4083  1.5758  0.0210
   57MOL   H14320415   6.038   6.156   6.946  0.2109 -1.3170 -0.1461
   57MOL   H14420416   6.139   6.034   6.691  0.0683  0.0459  0.6852
   57MOL   H14520417   6.215   6.027   6.856 -0.2748  1.9695  0.4714
   57MOL   C14620418   5.991   5.835   6.745 -0.1164 -0.2870 -0.2073
   57MOL   O14720419   5.988   5.858   6.628  0.4288 -0.1259  0.6709
   57MOL   C14820420   5.923   5.711   6.801  0.7724 -0.7003 -0.8944
   57MOL   C14920421   5.772   5.716   6.800 -0.0915  0.2242 -0.3665
   57MOL   C15020422   5.710   5.842   6.868  0.1794 -0.1520  0.5810
   57MOL   C15120423   5.556   5.835   6.885 -0.2698  0.6920 -0.1464
   57MOL   C15220424   5.503   5.971   6.925 -0.1422 -0.1863  0.0257
   57MOL   O15320425   5.537   6.050   6.805  0.0587 -0.0498 -0.4107
   57MOL   H15420426   5.962   5.692   6.901  0.2436 -0.4730 -0.6443
   57MOL   H15520427   5.962   5.624   6.749  1.3410 -0.9712 -0.0054
   57MOL   H15620428   5.727   5.627   6.844  0.5544 -0.2281 -0.6130
   57MOL   H15720429   5.754   5.713   6.692  3.6146 -0.7826 -1.0100
   57MOL   H15820430   5.738   5.929   6.809  0.6989 -0.8493 -0.2048
   57MOL   H15920431   5.739   5.855   6.973 -1.8355 -0.7953  1.2280
   57MOL   H16020432   5.526   5.765   6.963 -4.2291  2.5263  0.1229
   57MOL   H16120433   5.510   5.811   6.789 -0.3873  2.7914 -0.6243
   57MOL   H16220434   5.395   5.969   6.938  0.2530  0.4810  4.1916
   57MOL   H16320435   5.564   6.006   7.008 -3.2304  2.1098  1.4292
   57MOL   C16420436   5.550   6.178   6.814  0.3603  0.1392 -0.1370
   57MOL   O16520437   5.544   6.251   6.911  0.0267 -0.4997 -0.1721
   57MOL   C16620438   5.560   6.247   6.684  0.0191 -0.6594  0.1864
   57MOL   C16720439   5.674   6.194   6.592  0.2474 -0.2658 -0.2433
   57MOL   C16820440   5.647   6.103   6.475  0.2145 -0.5743 -0.5358
   57MOL   C16920441   5.769   6.053   6.402  0.2852  0.4132  0.3934
   57MOL   C17020442   5.745   5.998   6.259 -0.6371  0.2679 -0.0738
   57MOL   O17120443   5.700   6.098   6.170 -0.3303 -0.1374  0.0890
   57MOL   H17220444   5.572   6.353   6.706  3.0315 -1.5424  3.3453
   57MOL   H17320445   5.468   6.236   6.628 -0.1891 -0.6208  0.5188
   57MOL   H17420446   5.755   6.145   6.647  0.5051  0.5193  0.0848
   57MOL   H17520447   5.726   6.280   6.549 -1.5959  0.4009 -1.1826
   57MOL   H17620448   5.582   6.151   6.402  0.6274 -0.1382 -0.6145
   57MOL   H17720449   5.587   6.020   6.513 -2.3034  1.2338 -0.4301
   57MOL   H17820450   5.819   5.979   6.465  0.8755  1.1212  0.7651
   57MOL   H17920451   5.843   6.133   6.396  0.7240  0.1015  1.5699
   57MOL   H18020452   5.842   5.955   6.234 -1.0727  0.8409 -2.9257
   57MOL   H18120453   5.672   5.918   6.273  0.0026  0.3510  4.2438
   57MOL   C18220454   5.598   6.068   6.090 -0.1792 -0.7566 -0.7550
   57MOL   O18320455   5.545   5.961   6.068 -0.3474 -0.0897 -0.0331
   57MOL   C18420456   5.545   6.192   6.020  0.3917 -0.1528 -0.0038
   57MOL   C18520457   5.468   6.284   6.124 -0.6188  1.0222 -0.4946
   57MOL   C18620458   5.438   6.417   6.058  1.2703 -0.8028 -0.1437
   57MOL   C18720459   5.324   6.491   6.127 -0.5774  0.1406 -0.6654
   57MOL   C18820460   5.282   6.624   6.051  0.5787 -0.3620 -0.2680
   57MOL   O18920461   5.205   6.580   5.944 -0.2505 -0.3521  0.1322
   57MOL   H19020462   5.463   6.173   5.951  0.6293  2.4046 -1.0382
   57MOL   H19120463   5.607   6.261   5.963 -0.9086  0.8668 -0.2024
   57MOL   H19220464   5.526   6.301   6.215  0.3078 -0.1340 -0.8521
   57MOL   H19320465   5.378   6.234   6.159 -1.5782  2.2773 -1.1233
   57MOL   H19420466   5.406   6.401   5.955  1.1099  1.2864 -0.4238
   57MOL   H19520467   5.525   6.480   6.040  0.1484  1.1134  0.9730
   57MOL   H19620468   5.361   6.527   6.223  0.1625  0.0985 -0.9384
   57MOL   H19720469   5.240   6.426   6.153 -1.1499  1.1051 -0.0617
   57MOL   H19820470   5.221   6.684   6.118  1.3307 -0.3944  0.4550
   57MOL   H19920471   5.371   6.684   6.030 -0.0323  0.0438 -1.8175
   57MOL   C20020472   5.188   6.658   5.849 -0.0784 -0.4121 -0.2795
   57MOL   O20120473   5.217   6.781   5.861  0.4723  0.0814  0.1766
   57MOL   C20220474   5.116   6.586   5.726 -0.4031 -0.3129  0.5067
   57MOL   C20320475   5.221   6.486   5.671 -0.0464 -0.4205  0.0521
   57MOL   C20420476   5.186   6.442   5.527 -0.0688  0.5547 -0.3439
   57MOL   C20520477   5.289   6.352   5.460 -0.0530 -0.5478 -0.6415
   57MOL   C20620478   5.300   6.211   5.515  0.0228 -0.9279 -0.2269
   57MOL   O20720479   5.382   6.116   5.444  0.1104  0.1960 -0.0873
   57MOL   H20820480   5.089   6.651   5.643 -0.3292 -2.5416 -1.3231
   57MOL   H20920481   5.019   6.553   5.762  0.4571 -0.9313  2.2962
   57MOL   H21020482   5.227   6.393   5.728  0.7596 -1.3626 -1.5306
   57MOL   H21120483   5.317   6.538   5.673 -1.6965  2.9149 -2.0050
   57MOL   H21220484   5.183   6.530   5.463 -0.2329  0.1675 -0.8664
   57MOL   H21320485   5.086   6.400   5.514 -0.4021  0.3757  2.4249
   57MOL   H21420486   5.382   6.408   5.459 -0.7892  0.8147  1.9689
   57MOL   H21520487   5.263   6.345   5.355  2.6719  0.8538 -1.4435
   57MOL   H21620488   5.337   6.227   5.617  0.2473 -0.1772 -0.4170
   57MOL   H21720489   5.201   6.171   5.535  0.7649 -2.5602  0.2898
   57MOL   C21820490   5.373   5.990   5.485  0.3456  0.7330  0.2982
   57MOL   O21920491   5.316   5.950   5.587  0.4586  0.0820 -0.2728
   57MOL   C22020492   5.436   5.894   5.386 -0.1452 -0.2322  0.4726
   57MOL   C22120493   5.364   5.868   5.250  0.9230 -0.2964 -0.1065
   57MOL   C22220494   5.216   5.822   5.243 -0.0636 -0.2893 -0.2782
   57MOL   C22320495   5.151   5.831   5.105 -1.0032 -0.1764  0.3636
   57MOL   C22420496   5.007   5.792   5.115 -0.2366  0.0239  0.0996
   57MOL   O22520497   4.951   5.794   4.987 -0.5191 -0.2494  0.4931
   57MOL   H22620498   5.442   5.801   5.443  1.3512  0.2631  1.1614
   57MOL   H22720499   5.535   5.938   5.375 -0.8237  1.6146  1.5044
   57MOL   H22820500   5.423   5.799   5.189 -0.7925 -0.8218 -1.1985
   57MOL   H22920501   5.362   5.965   5.201 -1.3544 -0.7512 -1.0019
   57MOL   H23020502   5.148   5.873   5.310  0.1271 -1.0422  0.4971
   57MOL   H23120503   5.208   5.719   5.279  0.5537  0.2222  1.3618
   57MOL   H23220504   5.201   5.763   5.037 -1.2381  1.5357 -1.5691
   57MOL   H23320505   5.163   5.931   5.063  1.0678 -0.7481 -0.4984
   57MOL   H23420506   5.008   5.687   5.142 -0.9057  0.2417  0.9945
   57MOL   H23520507   4.962   5.846   5.199  0.6762 -0.7532  1.0992
   57MOL   C23620508   4.841   5.717   4.965 -0.6374 -0.3273 -0.1739
   57MOL   O23720509   4.771   5.667   5.055  0.3554  0.4215  0.3996
   57MOL   C23820510   4.821   5.676   4.814 -0.0461  0.5315 -0.1564
   57MOL   C23920511   4.726   5.779   4.744 -0.0926  0.1387  0.2013
   57MOL   C24020512   4.695   5.739   4.594 -0.3559 -0.6480 -0.0650
   57MOL   C24120513   4.593   5.817   4.510 -0.2776 -0.0860 -0.2036
   57MOL   C24220514   4.560   5.730   4.386  0.4258 -0.5416  0.3596
   57MOL   O24320515   4.504   5.602   4.402 -0.4816  0.4510  0.0126
   57MOL   H24420516   4.776   5.577   4.809  1.0103 -0.0631  1.8608
   57MOL   H24520517   4.920   5.667   4.771 -0.9696 -0.4552 -2.1737
   57MOL   H24620518   4.767   5.879   4.759 -0.4737  0.0688  1.8299
   57MOL   H24720519   4.635   5.783   4.804  1.4210  1.1770  2.5405
   57MOL   H24820520   4.661   5.636   4.606  0.7808 -0.8845  1.1013
   57MOL   H24920521   4.789   5.745   4.539 -1.2400  4.2581 -1.2712
   57MOL   H25020522   4.614   5.919   4.479 -0.3038  0.3731  1.2812
   57MOL   H25120523   4.498   5.820   4.562 -1.1185 -1.1429 -1.6328
   57MOL   H25220524   4.486   5.788   4.330  1.0935 -0.3215 -0.3015
   57MOL   H25320525   4.653   5.727   4.328  0.3452 -0.9234  0.2526
   57MOL   C25420526   4.367   5.583   4.390  0.5423 -0.4553  0.1348
   57MOL   O25520527   4.284   5.676   4.386 -0.3158 -0.2148  0.3026
   57MOL   C25620528   4.325   5.438   4.376 -0.0145 -0.1782 -0.2466
   57MOL   C25720529   4.176   5.428   4.369  0.0635  0.7774  0.4034
   57MOL   C25820530   4.137   5.281   4.370  0.8510  0.1300  0.4622
   57MOL   C25920531   4.002   5.256   4.304  0.2154 -0.4216  0.1445
   57MOL   C26020532   3.967   5.106   4.306  0.3874  0.4081  0.1707
   57MOL   O26120533   3.976   5.050   4.437  0.2055  0.0235  0.7067
   57MOL   H26220534   4.356   5.388   4.467  1.2292  1.9368  0.5446
   57MOL   H26320535   4.365   5.390   4.286 -0.9089  1.3669 -1.4973
   57MOL   H26420536   4.140   5.484   4.283 -2.1175 -0.1576  0.6627
   57MOL   H26520537   4.125   5.479   4.451 -3.3461 -1.5220 -0.1641
   57MOL   H26620538   4.128   5.260   4.476  0.5018 -3.4698 -0.1905
   57MOL   H26720539   4.210   5.213   4.326  0.0540 -0.0314 -0.6388
   57MOL   H26820540   4.004   5.293   4.202  0.7692  0.4054  0.4503
   57MOL   H26920541   3.915   5.300   4.354 -0.7810  0.0223 -1.9397
   57MOL   H27020542   3.870   5.104   4.258  1.0976 -0.2134 -1.2832
   57MOL   H27120543   4.027   5.050   4.234 -1.7641  2.2625 -3.1658
   57MOL   C27220544   3.926   4.925   4.443 -0.9180 -0.0538 -0.4004
   57MOL   O27320545   3.881   4.852   4.354 -0.3522 -0.2112  0.4103
   57MOL   C27420546   3.923   4.875   4.586  0.0662 -0.3942 -0.1495
   57MOL   C27520547   3.883   4.729   4.618  0.1794  0.1761 -0.1760
   57MOL   C27620548   3.954   4.610   4.548 -0.5702 -0.3819 -0.7153
   57MOL   C27720549   4.100   4.580   4.597 -0.2746 -0.0939  0.0564
   57MOL   C27820550   4.176   4.496   4.500 -0.0683 -0.9477 -0.3470
   57MOL   O27920551   4.128   4.364   4.504 -0.0828  0.3897  0.6526
   57MOL   H28020552   3.859   4.936   4.648 -0.1256  0.1015 -0.8311
   57MOL   H28120553   4.022   4.895   4.626 -0.8539 -2.3498  3.2769
   57MOL   H28220554   3.778   4.719   4.591 -0.7531  0.4873  3.1179
   57MOL   H28320555   3.883   4.714   4.726 -0.9384 -1.7668 -0.4298
   57MOL   H28420556   3.947   4.632   4.441  1.2653  1.3396 -0.5183
   57MOL   H28520557   3.901   4.517   4.564  1.1077 -0.7845  2.9050
   57MOL   H28620558   4.108   4.545   4.700  2.0653  1.4513  0.4402
   57MOL   H28720559   4.157   4.672   4.609 -1.5372  0.3447  3.4677
   57MOL   H28820560   4.148   4.531   4.400 -4.9711 -0.7750  0.9570
   57MOL   H28920561   4.284   4.508   4.506 -0.2968  0.8494  0.6290
   57MOL   C29020562   4.213   4.254   4.490 -0.7916 -0.0993 -0.0984
   57MOL   O29120563   4.331   4.263   4.460  0.1047 -0.2845  0.2046
   57MOL   C29220564   4.155   4.118   4.517 -0.0507 -0.0922 -0.1044
   57MOL   C29320565   4.005   4.102   4.464 -0.0317 -0.0733 -0.7113
   57MOL   C29420566   3.988   4.100   4.311 -0.3344  0.1444  0.3760
   57MOL   C29520567   3.848   4.067   4.261  0.8047  0.3014 -0.4682
   57MOL   C29620568   3.843   4.050   4.108 -0.4944 -0.5201  0.3512
   57MOL   O29720569   3.718   3.996   4.083  0.3329  0.1000 -0.4757
   57MOL   H29820570   4.148   4.089   4.622 -2.0059  0.3965 -0.0653
   57MOL   H29920571   4.209   4.042   4.461  0.3191  0.0792  0.0187
   57MOL   H30020572   3.935   4.166   4.518 -0.5983 -0.9953 -0.3380
   57MOL   H30120573   3.966   4.006   4.496 -2.2414  1.7086  2.1938
   57MOL   H30220574   4.057   4.021   4.281 -1.1176 -0.4784  0.2113
   57MOL   H30320575   4.038   4.187   4.268  3.4075 -0.5044  3.0998
   57MOL   H30420576   3.773   4.139   4.293 -1.6766 -2.7909  0.8693
   57MOL   H30520577   3.825   3.970   4.304 -2.6243  1.5546  0.6920
   57MOL   H30620578   3.859   4.142   4.052 -0.3600 -1.2449 -0.8245
   57MOL   H30720579   3.927   3.982   4.090  1.2815  1.3428  1.3658
   57MOL   C30820580   3.697   3.918   3.982  0.2912  0.3427 -0.6279
   57MOL   O30920581   3.768   3.903   3.882  0.0937 -0.4445 -0.2493
   57MOL   C31020582   3.571   3.832   3.987  0.0915  0.5946  0.5763
   57MOL   C31120583   3.532   3.771   4.127  0.1119  0.3041  0.2187
   57MOL   C31220584   3.613   3.646   4.156  0.0918 -0.0317 -0.1553
   57MOL   C31320585   3.586   3.587   4.292 -0.5007 -0.0156 -0.4986
   57MOL   C31420586   3.695   3.619   4.401  0.0679  0.2966 -0.1514
   57MOL   O31520587   3.673   3.749   4.450  0.1169 -0.2688 -0.1040
   57MOL   H31620588   3.590   3.748   3.920  2.5178  0.1531  1.7724
   57MOL   H31720589   3.499   3.903   3.946  0.6548  0.3396 -0.8889
   57MOL   H31820590   3.428   3.738   4.122  0.1484  0.2398 -0.1550
   57MOL   H31920591   3.537   3.851   4.200 -0.6480 -0.6234  1.3164
   57MOL   H32020592   3.719   3.671   4.148  0.3093  1.0751  4.8480
   57MOL   H32120593   3.600   3.573   4.076  1.6183 -0.0183 -0.4310
   57MOL   H32220594   3.600   3.479   4.283 -1.3474 -0.1582 -0.1818
   57MOL   H32320595   3.490   3.611   4.338 -0.0912  0.6648  0.0124
   57MOL   H32420596   3.685   3.553   4.487  3.0404  1.3767  1.0825
   57MOL   H32520597   3.792   3.608   4.354  0.8701 -0.3173  1.6323
   57MOL   C32620598   3.742   3.792   4.556  0.4896 -0.2503  0.1771
   57MOL   O32720599   3.831   3.735   4.608  0.4560  0.0944  0.2624
   57MOL   C32820600   3.695   3.932   4.600 -0.1581  0.7254  0.5518
   57MOL   C32920601   3.776   4.000   4.707  0.4280 -0.6437  0.0145
   57MOL   C33020602   3.739   4.143   4.731  0.4473  0.7450  0.5789
   57MOL   C33120603   3.841   4.215   4.813 -0.3015  0.2035 -1.0199
   57MOL   C33220604   3.793   4.358   4.848  0.0383  0.1267 -0.4200
   57MOL   O33320605   3.869   4.425   4.940 -0.0630  0.0368 -0.8014
   57MOL   H33420606   3.591   3.930   4.634 -0.8763 -0.3632 -1.5592
   57MOL   H33520607   3.682   3.989   4.508  0.6465  0.4519  0.2680
   57MOL   H33620608   3.883   3.991   4.688  0.6013 -0.5997  0.9458
   57MOL   H33720609   3.750   3.947   4.798  2.0353 -1.1495  0.2022
   57MOL   H33820610   3.643   4.150   4.782 -0.7615  2.3376 -1.8046
   57MOL   H33920611   3.719   4.195   4.638  2.4250  0.0234 -0.2826
   57MOL   H34020612   3.936   4.218   4.760 -0.3879 -1.1710 -1.2795
   57MOL   H34120613   3.871   4.177   4.911 -1.0563  1.1002 -0.4283
   57MOL   H34220614   3.797   4.398   4.746  1.4866 -1.2763 -0.9348
   57MOL   H34320615   3.691   4.347   4.885  0.4519  0.9897  1.0056
   57MOL   C34420616   3.833   4.544   4.984 -0.8627 -0.2747  0.0739
   57MOL   O34520617   3.745   4.618   4.939 -0.5840 -0.5148  0.0869
   57MOL   C34620618   3.921   4.597   5.099 -0.1523 -0.1281 -0.3462
   57MOL   C34720619   3.949   4.494   5.215  0.6510 -0.2497  0.4942
   57MOL   C34820620   4.073   4.403   5.195  0.5287 -0.4282  0.1614
   57MOL   C34920621   4.114   4.336   5.329 -0.4014  0.4186  0.1951
   57MOL   C35020622   4.219   4.225   5.317 -0.2196 -0.1822  0.1975
   57MOL   O35120623   4.275   4.197   5.442 -0.8750  0.0436  0.1362
   57MOL   H35220624   3.846   4.662   5.145 -1.5694 -1.4662 -0.7095
   57MOL   H35320625   4.003   4.661   5.067 -0.5799 -0.2369 -1.6678
   57MOL   H35420626   3.859   4.435   5.225 -0.0491  0.8402  0.7290
   57MOL   H35520627   3.963   4.543   5.311 -1.1733 -0.9604  1.1330
   57MOL   H35620628   4.156   4.466   5.162  0.9621 -0.3163  1.4624
   57MOL   H35720629   4.037   4.332   5.120  0.4080 -0.6262  0.4075
   57MOL   H35820630   4.024   4.304   5.382  0.1326 -1.9899 -0.2771
   57MOL   H35920631   4.155   4.416   5.390 -0.7999  1.0590 -0.3723
   57MOL   H36020632   4.159   4.145   5.274 -1.0690  0.5675 -0.0294
   57MOL   H36120633   4.300   4.260   5.253 -1.1958 -1.8489 -2.0086
   57MOL   H36220634   4.278   4.279   5.488 -2.2132  0.4730 -0.5478
   58MOL     C120635   4.709   2.622   3.663 -0.2162  0.2777 -0.4041
   58MOL     O220636   4.832   2.650   3.666  0.8679  0.5994 -0.4403
   58MOL     C320637   4.600   2.736   3.636  0.3023  0.3474  0.1409
   58MOL     C420638   4.634   2.877   3.692  0.3059  0.4858  0.1536
   58MOL     C520639   4.636   2.869   3.846  0.9565 -0.1535 -0.8903
   58MOL     C620640   4.636   3.011   3.911 -0.2617 -0.0881  0.5671
   58MOL     C720641   4.744   3.103   3.855 -0.7138 -0.2445  0.2136
   58MOL     O820642   4.872   3.056   3.873  0.4864  0.0481  0.1007
   58MOL     H920643   4.501   2.704   3.669  0.8113 -0.9399  0.4523
   58MOL    H1020644   4.590   2.734   3.527  2.3303 -0.0814 -0.0547
   58MOL    H1120645   4.548   2.938   3.663  0.4826 -0.5327 -2.6864
   58MOL    H1220646   4.727   2.902   3.641  0.3673  0.7055  0.3756
   58MOL    H1320647   4.721   2.813   3.885 -0.2716 -1.3900  0.0338
   58MOL    H1420648   4.550   2.814   3.884  1.6144 -0.2589  0.4729
   58MOL    H1520649   4.635   3.006   4.019 -0.8651 -0.9722  0.5225
   58MOL    H1620650   4.547   3.071   3.894  1.3526  2.6663  1.6320
   58MOL    H1720651   4.722   3.113   3.749 -0.7089  1.7673  0.3798
   58MOL    H1820652   4.738   3.203   3.898  0.5988 -0.1176  0.1377
   58MOL    H1920653   4.675   2.520   3.677 -0.4613  0.6470  2.0028
   58MOL    C2020654   4.982   3.140   3.850 -0.5166 -0.7101  0.7449
   58MOL    O2120655   4.972   3.243   3.786 -0.0888  0.6468  0.0404
   58MOL    C2220656   5.114   3.083   3.905  0.5278  1.1024 -0.2522
   58MOL    C2320657   5.132   3.093   4.062  0.5008  0.5361  0.5213
   58MOL    C2420658   5.027   3.018   4.144 -0.0583  0.3247  0.4304
   58MOL    C2520659   5.047   3.030   4.300  0.0575 -0.3420 -0.1148
   58MOL    C2620660   4.930   2.977   4.383  0.0897 -0.6178  0.3516
   58MOL    O2720661   4.818   3.067   4.375  0.1977 -0.4783  0.1529
   58MOL    H2820662   5.199   3.126   3.852 -0.8532  0.3816 -3.1526
   58MOL    H2920663   5.108   2.978   3.876 -4.6473  0.8298  1.2064
   58MOL    H3020664   5.127   3.199   4.086  3.5786  0.7777  0.3460
   58MOL    H3120665   5.227   3.056   4.101  0.9604  1.2699  0.1153
   58MOL    H3220666   5.035   2.913   4.114  3.0920  0.1058  1.8565
   58MOL    H3320667   4.925   3.053   4.130  0.2301  0.4747 -1.4040
   58MOL    H3420668   5.078   3.132   4.321 -2.2064 -0.0888  2.2586
   58MOL    H3520669   5.135   2.972   4.328 -0.6179 -0.5971  1.6082
   58MOL    H3620670   4.905   2.875   4.352 -0.5797  0.3046 -2.3043
   58MOL    H3720671   4.964   2.971   4.486 -1.9870 -0.5468  1.0792
   58MOL    C3820672   4.692   3.028   4.411 -0.1808  0.1650 -0.1020
   58MOL    O3920673   4.657   2.919   4.450  0.4089  0.3353 -0.1783
   58MOL    C4020674   4.592   3.148   4.397  0.1377  0.0256  0.3861
   58MOL    C4120675   4.444   3.143   4.457 -0.5636  1.1917 -0.3894
   58MOL    C4220676   4.437   3.124   4.612  0.0104  0.7841 -0.0609
   58MOL    C4320677   4.298   3.152   4.671  0.6671 -0.6730 -0.6583
   58MOL    C4420678   4.296   3.158   4.826  0.2396  0.1817  0.2328
   58MOL    O4520679   4.293   3.021   4.872  0.3070 -0.5831 -0.4055
   58MOL    H4620680   4.579   3.167   4.290  1.6728 -0.5643  0.0826
   58MOL    H4720681   4.639   3.238   4.435  0.8083 -0.1211 -0.0856
   58MOL    H4820682   4.383   3.064   4.414  0.7976 -1.0686  1.6252
   58MOL    H4920683   4.392   3.234   4.429 -1.1058  0.5254 -1.5618
   58MOL    H5020684   4.503   3.188   4.670  1.1430 -1.0606  0.7510
   58MOL    H5120685   4.463   3.020   4.634 -0.0565  0.6834 -0.4638
   58MOL    H5220686   4.227   3.074   4.645 -2.2274  0.9333  2.1234
   58MOL    H5320687   4.260   3.250   4.641  1.4362 -0.3768 -0.6813
   58MOL    H5420688   4.376   3.218   4.869 -2.4880  3.1485  1.3736
   58MOL    H5520689   4.202   3.205   4.855  0.3304  0.5773 -0.1171
   58MOL    C5620690   4.305   2.986   4.999  0.5612 -0.5596 -0.0150
   58MOL    O5720691   4.319   3.067   5.089 -0.2381  0.1326  0.1195
   58MOL    C5820692   4.271   2.841   5.013 -0.2472  0.5241 -1.3161
   58MOL    C5920693   4.299   2.778   5.145 -0.1418 -0.4798  0.5070
   58MOL    C6020694   4.302   2.625   5.139 -0.5295 -0.1455 -0.0130
   58MOL    C6120695   4.346   2.564   5.273  0.5680  0.4474  0.7413
   58MOL    C6220696   4.302   2.414   5.265 -0.2338  0.5293 -0.6648
   58MOL    O6320697   4.339   2.327   5.374 -0.1225  0.3843 -0.5787
   58MOL    H6420698   4.324   2.785   4.936  0.9700 -0.7541  0.4107
   58MOL    H6520699   4.165   2.830   4.989 -0.8297  0.7107  1.0524
   58MOL    H6620700   4.246   2.810   5.235 -2.4052 -0.5114 -0.7796
   58MOL    H6720701   4.403   2.804   5.166  0.5154 -1.9857 -0.8394
   58MOL    H6820702   4.372   2.593   5.062 -0.2531 -3.3647  1.4955
   58MOL    H6920703   4.205   2.589   5.106 -0.4101  1.3606 -2.1162
   58MOL    H7020704   4.302   2.608   5.362  0.9639  1.5150  0.4118
   58MOL    H7120705   4.454   2.566   5.284  0.3301 -0.7956  3.7524
   58MOL    H7220706   4.195   2.414   5.243  0.2004  1.7251 -2.9107
   58MOL    H7320707   4.357   2.367   5.183  1.3557  0.1410  0.5812
   58MOL    C7420708   4.266   2.222   5.385 -0.7766  0.4176 -0.1167
   58MOL    O7520709   4.157   2.196   5.337 -0.3340  0.4647 -0.1686
   58MOL    C7620710   4.318   2.127   5.493  0.4019 -0.7325  0.2533
   58MOL    C7720711   4.362   2.197   5.623 -0.3224  0.3598  0.1706
   58MOL    C7820712   4.430   2.106   5.728 -0.7493  0.4218 -0.2338
   58MOL    C7920713   4.548   2.038   5.668 -0.4741  0.2837  0.8903
   58MOL    C8020714   4.659   1.998   5.770  0.4262 -0.5595  0.3458
   58MOL    O8120715   4.625   1.881   5.834  0.6757  1.2385 -0.2023
   58MOL    H8220716   4.406   2.092   5.441  1.0158  0.3867  0.5139
   58MOL    H8320717   4.242   2.051   5.510 -2.3085  1.8854  0.3343
   58MOL    H8420718   4.278   2.237   5.680  0.2925  1.1488  0.5240
   58MOL    H8520719   4.435   2.274   5.598 -0.3977  0.8704  1.4747
   58MOL    H8620720   4.359   2.027   5.756  0.8596 -0.9970 -0.0942
   58MOL    H8720721   4.460   2.164   5.815  1.9512 -1.4216  0.1268
   58MOL    H8820722   4.598   2.116   5.610  0.8873 -1.4122 -0.2968
   58MOL    H8920723   4.511   1.954   5.608  0.1403  0.0475  0.8375
   58MOL    H9020724   4.756   1.990   5.721  0.6861  1.8186  0.4197
   58MOL    H9120725   4.652   2.083   5.838 -0.3136 -0.6436  0.3747
   58MOL    C9220726   4.556   1.874   5.948 -0.3803  0.1136  0.6631
   58MOL    O9320727   4.515   1.968   6.018 -0.1638 -0.4845 -0.3978
   58MOL    C9420728   4.538   1.728   5.995  0.2741  0.0383 -0.0054
   58MOL    C9520729   4.670   1.648   5.987  0.2535  0.8688  0.1562
   58MOL    C9620730   4.672   1.507   6.046  0.4607 -0.1038  0.4540
   58MOL    C9720731   4.620   1.488   6.186 -0.3005 -0.1602 -0.2063
   58MOL    C9820732   4.632   1.346   6.244 -0.0685  0.4146  0.5932
   58MOL    O9920733   4.544   1.257   6.177  0.2055  0.0711  0.1607
   58MOL   H10020734   4.459   1.686   5.934  1.0572 -0.4581 -0.6856
   58MOL   H10120735   4.485   1.718   6.090  0.0482 -1.5256 -0.2908
   58MOL   H10220736   4.735   1.708   6.051 -0.0199 -0.1478  1.4129
   58MOL   H10320737   4.729   1.656   5.895  0.6156  0.8917  0.3901
   58MOL   H10420738   4.776   1.474   6.038  1.4703  3.0962 -0.5242
   58MOL   H10520739   4.632   1.436   5.974 -2.3048  1.1150  0.7402
   58MOL   H10620740   4.514   1.511   6.182 -0.3597 -0.2936  0.4643
   58MOL   H10720741   4.656   1.567   6.253 -0.5056  1.2672 -1.7574
   58MOL   H10820742   4.736   1.316   6.231 -0.2914  0.6904 -2.2487
   58MOL   H10920743   4.632   1.344   6.353  2.2075 -0.2084  0.6119
   58MOL   C11020744   4.594   1.169   6.085 -0.2073  1.0303 -0.4042
   58MOL   O11120745   4.708   1.170   6.037  0.0498  0.2673  0.3249
   58MOL   C11220746   4.498   1.058   6.031  0.1156 -0.4465 -0.0382
   58MOL   C11320747   4.411   1.108   5.916  0.6307 -0.2316 -1.1927
   58MOL   C11420748   4.462   1.098   5.773 -0.0483  0.1697 -0.2575
   58MOL   C11520749   4.543   1.221   5.736 -0.3088 -0.2206  0.3347
   58MOL   C11620750   4.560   1.254   5.586  0.3359 -0.4091  0.5070
   58MOL   O11720751   4.576   1.140   5.501 -0.0332  0.8755 -0.1422
   58MOL   H11820752   4.434   1.037   6.117 -0.2846 -0.9050 -0.4510
   58MOL   H11920753   4.545   0.965   6.001 -0.0116 -0.2321 -0.9251
   58MOL   H12020754   4.374   1.209   5.938 -0.7862 -1.8286  4.7110
   58MOL   H12120755   4.314   1.059   5.915 -0.0557  0.9787  1.3508
   58MOL   H12220756   4.375   1.082   5.709 -0.8707  0.3808  0.7922
   58MOL   H12320757   4.521   1.011   5.747  0.4471  1.2401 -2.8266
   58MOL   H12420758   4.642   1.215   5.782  0.4807  0.4189 -1.2657
   58MOL   H12520759   4.500   1.305   5.792  1.9656  0.4657  1.1002
   58MOL   H12620760   4.481   1.317   5.544 -0.5234  0.1010  2.8044
   58MOL   H12720761   4.653   1.311   5.585 -0.4423  0.8766  0.2999
   58MOL   C12820762   4.602   1.157   5.377 -0.2249 -0.3506  0.0404
   58MOL   O12920763   4.605   1.268   5.323 -0.2367  0.3318  0.0755
   58MOL   C13020764   4.607   1.022   5.301  0.2490  0.6307 -0.2079
   58MOL   C13120765   4.464   0.969   5.264 -0.3854  0.0864 -0.4159
   58MOL   C13220766   4.403   0.884   5.381  0.4090 -0.1659 -0.5319
   58MOL   C13320767   4.254   0.857   5.355  0.3854  0.1937 -0.1378
   58MOL   C13420768   4.231   0.756   5.242  0.3320 -0.2892 -0.0226
   58MOL   O13520769   4.271   0.623   5.273  0.2049 -0.7495 -0.2010
   58MOL   H13620770   4.666   0.959   5.367 -1.6820 -0.0072  0.9299
   58MOL   H13720771   4.668   1.044   5.213 -1.2135  1.1889 -1.1013
   58MOL   H13820772   4.465   0.898   5.181  0.0187 -0.5468  0.1268
   58MOL   H13920773   4.408   1.059   5.242  1.5271  1.9028  1.8434
   58MOL   H14020774   4.409   0.935   5.476  0.5236  1.8981 -1.6223
   58MOL   H14120775   4.448   0.786   5.397  1.9570  0.6505  0.2537
   58MOL   H14220776   4.205   0.949   5.320 -0.7538 -1.6390 -3.6646
   58MOL   H14320777   4.199   0.838   5.447 -1.6944 -0.4349 -1.4669
   58MOL   H14420778   4.125   0.757   5.214  0.0075  0.8035  1.1777
   58MOL   H14520779   4.282   0.787   5.150  0.6136 -3.0694 -0.8429
   58MOL   C14620780   4.188   0.548   5.349  0.3409 -0.0909 -0.0708
   58MOL   O14720781   4.079   0.581   5.399 -0.1665  0.0547  0.0926
   58MOL   C14820782   4.230   0.399   5.352 -0.3791 -0.7902  0.5570
   58MOL   C14920783   4.187   0.315   5.475  0.5055  0.2196 -0.2172
   58MOL   C15020784   4.240   0.383   5.604 -0.4546  0.5750  0.5290
   58MOL   C15120785   4.196   0.301   5.728 -0.4147  0.7218 -0.7065
   58MOL   C15220786   4.263   0.365   5.856  0.1182  0.0667 -0.4989
   58MOL   O15320787   4.193   0.487   5.878 -0.3971 -0.3909 -0.2276
   58MOL   H15420788   4.338   0.400   5.338 -0.3615 -0.6336  0.7036
   58MOL   H15520789   4.191   0.356   5.259  0.0776  0.6715 -0.3149
   58MOL   H15620790   4.225   0.213   5.465  0.4526  0.2378 -0.6223
   58MOL   H15720791   4.079   0.302   5.469  0.7035 -1.7216 -0.1018
   58MOL   H15820792   4.207   0.487   5.603  2.5490  1.5868  1.1796
   58MOL   H15920793   4.348   0.383   5.589 -0.1619  1.1070  2.5265
   58MOL   H16020794   4.225   0.196   5.722 -0.4327  0.6329  0.5142
   58MOL   H16120795   4.088   0.290   5.741 -0.2325 -0.6623 -0.3221
   58MOL   H16220796   4.245   0.295   5.937  3.0700  0.1554  0.2791
   58MOL   H16320797   4.371   0.371   5.848  0.1750  2.0654  1.4277
   58MOL   C16420798   4.254   0.604   5.917  0.1275 -0.1946 -0.3328
   58MOL   O16520799   4.375   0.611   5.938 -0.0654 -0.0273  0.0195
   58MOL   C16620800   4.160   0.723   5.930 -0.2964 -0.3419 -1.2308
   58MOL   C16720801   4.129   0.781   5.790 -0.5154  0.0289  0.0443
   58MOL   C16820802   4.059   0.919   5.793 -0.2030  0.0704  0.2749
   58MOL   C16920803   4.046   0.994   5.660 -0.7748 -0.1539  0.1378
   58MOL   C17020804   3.971   1.129   5.679 -0.0790 -0.0452  0.7513
   58MOL   O17120805   4.005   1.205   5.793  0.4518 -0.0886  0.7369
   58MOL   H17220806   4.213   0.804   5.980 -0.3616 -1.4058  0.6129
   58MOL   H17320807   4.071   0.710   5.990 -0.4172  0.4508 -1.2365
   58MOL   H17420808   4.070   0.707   5.737  0.6764 -0.3388 -0.7937
   58MOL   H17520809   4.229   0.780   5.747  0.6850 -0.3160  2.7451
   58MOL   H17620810   4.118   0.977   5.863  2.4358 -1.8206 -0.3266
   58MOL   H17720811   3.961   0.912   5.841 -0.8134 -0.3591 -1.0079
   58MOL   H17820812   3.994   0.939   5.581  1.9168 -3.1955  0.3600
   58MOL   H17920813   4.143   1.003   5.611 -1.5161  0.9246 -1.1642
   58MOL   H18020814   3.977   1.197   5.594  1.0309 -0.0855  0.7832
   58MOL   H18120815   3.866   1.114   5.700  0.1596 -0.8358  1.4284
   58MOL   C18220816   4.107   1.288   5.790  0.0422 -0.7461 -0.2641
   58MOL   O18320817   4.173   1.312   5.691  0.0521 -0.0025 -0.0223
   58MOL   C18420818   4.124   1.357   5.927 -0.2888 -0.1955 -0.3463
   58MOL   C18520819   4.220   1.483   5.944 -0.0737  0.0603  0.1512
   58MOL   C18620820   4.153   1.611   5.992  0.3262  0.2127 -1.0881
   58MOL   C18720821   4.038   1.656   5.901 -0.1698 -0.5679 -0.1573
   58MOL   C18820822   4.000   1.802   5.933  0.0839  0.1917 -0.4826
   58MOL   O18920823   3.892   1.822   6.026  0.3116  0.1900  0.2653
   58MOL   H19020824   4.138   1.289   6.012  0.3997  1.4972  0.9188
   58MOL   H19120825   4.022   1.383   5.955 -0.0708  0.0436  0.2179
   58MOL   H19220826   4.284   1.497   5.858  1.1306  1.1390  1.2073
   58MOL   H19320827   4.286   1.463   6.029 -2.2268  0.4660  1.9719
   58MOL   H19420828   4.228   1.689   6.002 -0.6211  0.9496  0.4316
   58MOL   H19520829   4.117   1.584   6.091 -1.8688 -0.6743 -2.1024
   58MOL   H19620830   3.950   1.592   5.892 -0.2089 -0.1389 -3.4991
   58MOL   H19720831   4.085   1.658   5.802  1.4063 -0.7506  0.5691
   58MOL   H19820832   4.083   1.863   5.968  0.2509 -0.7374  0.7670
   58MOL   H19920833   3.968   1.847   5.839 -0.4798 -1.7272 -1.2381
   58MOL   C20020834   3.771   1.813   5.977 -0.0108 -0.1495  0.6447
   58MOL   O20120835   3.745   1.784   5.862  0.7732  0.5472  0.2577
   58MOL   C20220836   3.666   1.822   6.083  0.1521  0.0196  0.3683
   58MOL   C20320837   3.578   1.696   6.094  0.1691  0.3373  0.1530
   58MOL   C20420838   3.499   1.686   6.226 -0.3045  0.0611 -0.4807
   58MOL   C20520839   3.426   1.553   6.232  0.0814 -0.0265 -0.3834
   58MOL   C20620840   3.361   1.524   6.369 -0.0898 -0.4989 -0.6626
   58MOL   O20720841   3.294   1.400   6.371  0.2373  0.0536 -0.4193
   58MOL   H20820842   3.613   1.913   6.055 -0.1547 -0.8997 -2.1646
   58MOL   H20920843   3.710   1.834   6.182 -0.7512  0.0062  0.7753
   58MOL   H21020844   3.639   1.607   6.076 -1.6836 -0.8712 -0.2316
   58MOL   H21120845   3.509   1.694   6.010  2.0778  2.7007 -1.5401
   58MOL   H21220846   3.420   1.760   6.217  0.0714  0.3424 -1.5352
   58MOL   H21320847   3.565   1.705   6.310  1.8722 -1.7109 -1.7185
   58MOL   H21420848   3.497   1.472   6.222 -0.0148 -0.1791  0.1810
   58MOL   H21520849   3.354   1.545   6.150 -0.4920 -2.1999  0.3076
   58MOL   H21620850   3.434   1.516   6.449 -1.5558  2.3347  1.0279
   58MOL   H21720851   3.292   1.602   6.400 -0.1467  0.0434 -2.0904
   58MOL   C21820852   3.172   1.385   6.317 -0.6136  0.7145  0.5467
   58MOL   O21920853   3.106   1.468   6.257 -0.0702 -0.2100  0.1931
   58MOL   C22020854   3.107   1.251   6.352 -0.2098  0.2456  0.5285
   58MOL   C22120855   2.966   1.225   6.284  0.3150 -0.8449  0.9107
   58MOL   C22220856   2.919   1.081   6.306  0.7529  0.1180  0.4788
   58MOL   C22320857   2.775   1.061   6.260  0.2117  0.1440 -0.1016
   58MOL   C22420858   2.721   0.917   6.288  0.4421 -0.0857  0.3655
   58MOL   O22520859   2.603   0.876   6.226  0.8125  0.4858 -0.6813
   58MOL   H22620860   3.107   1.240   6.461 -0.3627  1.7773  0.7066
   58MOL   H22720861   3.175   1.178   6.309  0.1475 -0.4128  2.1698
   58MOL   H22820862   2.950   1.264   6.183 -1.2126 -1.3264  0.9461
   58MOL   H22920863   2.897   1.295   6.333 -1.2644 -1.1074 -0.8845
   58MOL   H23020864   2.917   1.069   6.414  2.9048  0.8755  0.6159
   58MOL   H23120865   2.984   1.009   6.257 -1.2297 -1.3093 -0.1105
   58MOL   H23220866   2.778   1.067   6.151  1.9047 -1.0652 -0.1421
   58MOL   H23320867   2.710   1.138   6.301 -0.0820 -0.4502  0.5651
   58MOL   H23420868   2.802   0.862   6.239  0.0603  1.0546 -1.5779
   58MOL   H23520869   2.727   0.879   6.390 -1.3923  0.8194  0.8286
   58MOL   C23620870   2.503   0.819   6.295 -0.3369 -0.5379  0.0809
   58MOL   O23720871   2.489   0.803   6.417 -0.9368  0.1149  0.6330
   58MOL   C23820872   2.394   0.767   6.199  0.4451 -0.3623 -0.1626
   58MOL   C23920873   2.274   0.864   6.200  0.7661  0.1427 -0.2296
   58MOL   C24020874   2.154   0.832   6.109 -0.1174 -0.4045 -0.0740
   58MOL   C24120875   2.049   0.942   6.111  0.6406  0.3588 -0.5361
   58MOL   C24220876   1.917   0.892   6.049  0.2466  0.3395 -0.4296
   58MOL   O24320877   1.951   0.849   5.917  0.2558  0.1554  0.3324
   58MOL   H24420878   2.350   0.675   6.236  1.6511 -1.0889 -0.4978
   58MOL   H24520879   2.425   0.748   6.096  0.4588  1.5205 -0.5239
   58MOL   H24620880   2.306   0.964   6.170  0.0192  0.1805 -0.9379
   58MOL   H24720881   2.246   0.893   6.301 -2.1324 -0.9192 -0.6642
   58MOL   H24820882   2.119   0.733   6.137  1.4290 -0.7570  0.6494
   58MOL   H24920883   2.197   0.824   6.009 -1.0398  1.7423 -0.6637
   58MOL   H25020884   2.094   1.020   6.050  0.0619  2.4702  1.6696
   58MOL   H25120885   2.033   0.973   6.214 -1.4802  0.9796 -1.0425
   58MOL   H25220886   1.895   0.802   6.106  0.3332 -0.5417 -1.7729
   58MOL   H25320887   1.831   0.957   6.063  0.9317  0.6429  2.8286
   58MOL   C25420888   1.853   0.804   5.835 -0.3646  0.4431 -0.6581
   58MOL   O25520889   1.738   0.781   5.871  0.0765 -0.1360  0.3067
   58MOL   C25620890   1.909   0.781   5.698  0.6153 -0.4523 -0.6760
   58MOL   C25720891   2.028   0.692   5.696  0.1289  0.1374 -0.1382
   58MOL   C25820892   2.077   0.665   5.550 -0.3191  0.3982  0.2026
   58MOL   C25920893   2.210   0.587   5.542 -0.1215 -0.3114  0.5335
   58MOL   C26020894   2.263   0.556   5.401  0.3142 -0.5913  0.7518
   58MOL   O26120895   2.271   0.678   5.317  0.7313 -0.5062 -0.1552
   58MOL   H26220896   1.932   0.879   5.656  0.9538 -0.3010 -0.1360
   58MOL   H26320897   1.828   0.754   5.631  0.8114  0.1618 -1.1658
   58MOL   H26420898   1.996   0.600   5.745 -1.4367  0.9553  0.3905
   58MOL   H26520899   2.120   0.711   5.751 -0.2654  0.3063  0.4709
   58MOL   H26620900   2.088   0.758   5.493  0.5945  0.5385  0.5867
   58MOL   H26720901   2.004   0.604   5.498  0.9350  0.5665 -1.8174
   58MOL   H26820902   2.202   0.488   5.586 -2.2100  0.1053  1.1504
   58MOL   H26920903   2.291   0.646   5.585  0.8864 -2.8013  2.1723
   58MOL   H27020904   2.361   0.509   5.400  0.3895 -0.4441  1.1436
   58MOL   H27120905   2.192   0.483   5.363  1.3639 -0.4669 -1.5624
   58MOL   C27220906   2.233   0.662   5.187  0.0016 -0.2772  0.1929
   58MOL   O27320907   2.197   0.553   5.137  0.3568 -0.0763 -0.5808
   58MOL   C27420908   2.243   0.776   5.089  0.5671  0.4525  0.1475
   58MOL   C27520909   2.157   0.900   5.124 -0.3446  0.3550  0.2189
   58MOL   C27620910   2.004   0.897   5.110  0.1118  0.5558  0.4775
   58MOL   C27720911   1.950   1.039   5.135 -0.3086  0.6204  0.3157
   58MOL   C27820912   1.792   1.059   5.117  0.1581  0.5721 -0.1269
   58MOL   O27920913   1.753   1.190   5.139  0.4630 -0.7433  0.4981
   58MOL   H28020914   2.224   0.750   4.985  0.5947 -0.9155  0.4696
   58MOL   H28120915   2.348   0.798   5.071 -0.4071  3.4652 -2.3416
   58MOL   H28220916   2.198   0.984   5.069  2.3227 -0.8094  0.3738
   58MOL   H28320917   2.185   0.925   5.226  0.4798 -0.1780  0.1301
   58MOL   H28420918   1.962   0.826   5.181 -0.4217  1.7664  1.3912
   58MOL   H28520919   1.970   0.863   5.012  1.5733 -0.9229  0.4566
   58MOL   H28620920   1.987   1.111   5.062  0.8370 -0.2159  0.0754
   58MOL   H28720921   1.979   1.068   5.236 -0.7721 -0.8843  0.8896
   58MOL   H28820922   1.757   1.019   5.022  1.5954  0.2759 -0.5470
   58MOL   H28920923   1.740   0.991   5.184  1.1676 -1.2265 -1.1405
   58MOL   C29020924   1.627   1.234   5.122 -0.2384  0.2172 -0.3887
   58MOL   O29120925   1.529   1.174   5.070  0.3436  0.3442 -0.1652
   58MOL   C29220926   1.616   1.384   5.144  0.0418 -0.3593 -0.0192
   58MOL   C29320927   1.475   1.432   5.188 -0.1456 -0.7749  0.5055
   58MOL   C29420928   1.442   1.384   5.328  0.4806  0.5696  0.4516
   58MOL   C29520929   1.302   1.424   5.378  0.0488  0.6362 -0.1997
   58MOL   C29620930   1.265   1.339   5.496 -0.4052  0.2298 -0.4590
   58MOL   O29720931   1.140   1.370   5.541 -0.5246 -0.0688  0.3200
   58MOL   H29820932   1.639   1.426   5.046  1.6540 -1.1587  0.0008
   58MOL   H29920933   1.695   1.416   5.212 -0.1773  0.3760 -0.1090
   58MOL   H30020934   1.409   1.392   5.110 -0.0306  1.5893 -0.8484
   58MOL   H30120935   1.472   1.541   5.197  2.0735 -0.7630  1.4764
   58MOL   H30220936   1.513   1.417   5.404  1.4169 -0.6856  0.1479
   58MOL   H30320937   1.449   1.275   5.319  0.1923  0.6549 -0.9509
   58MOL   H30420938   1.240   1.402   5.291 -0.6728 -0.4910  0.5751
   58MOL   H30520939   1.304   1.532   5.395  1.6281  0.7152 -0.8308
   58MOL   H30620940   1.290   1.234   5.481  0.4872  0.2677  0.7287
   58MOL   H30720941   1.338   1.367   5.572 -1.0007 -2.5145  1.2128
   58MOL   C30820942   1.033   1.290   5.527  0.4321 -1.0341 -0.3338
   58MOL   O30920943   1.026   1.179   5.475 -0.2301 -0.1833 -0.0356
   58MOL   C31020944   0.917   1.354   5.591  1.4320 -0.5299 -0.0560
   58MOL   C31120945   0.831   1.413   5.474 -0.1170  0.1380 -0.3638
   58MOL   C31220946   0.865   1.559   5.444 -0.1478  0.1744  0.3933
   58MOL   C31320947   0.762   1.622   5.351  0.6864  0.8244  0.3858
   58MOL   C31420948   0.795   1.766   5.294  1.1138 -0.3912 -0.0336
   58MOL   O31520949   0.697   1.806   5.202 -0.6710 -0.1338  0.1301
   58MOL   H31620950   0.940   1.430   5.665  0.5028 -0.7040  0.4219
   58MOL   H31720951   0.868   1.266   5.633  1.8047 -1.1737 -0.9518
   58MOL   H31820952   0.725   1.413   5.501 -0.1850 -0.5107 -0.6309
   58MOL   H31920953   0.825   1.344   5.390 -0.4789 -1.6099  1.0548
   58MOL   H32020954   0.960   1.544   5.392 -2.0922 -1.7637 -2.7517
   58MOL   H32120955   0.884   1.620   5.532 -0.7833 -0.2764  0.8461
   58MOL   H32220956   0.666   1.623   5.404  0.4284 -1.2986  0.0206
   58MOL   H32320957   0.740   1.565   5.261  1.5306  1.7908 -0.4417
   58MOL   H32420958   0.796   1.840   5.374  1.4328 -0.5285  0.0938
   58MOL   H32520959   0.893   1.759   5.245  0.5476  0.2822 -1.2717
   58MOL   C32620960   0.721   1.878   5.097  0.2324 -0.0639 -0.3947
   58MOL   O32720961   0.829   1.935   5.063 -0.1619  0.5711  0.2748
   58MOL   C32820962   0.608   1.873   4.989  0.0887  0.2327 -0.4957
   58MOL   C32920963   0.571   1.723   4.956 -0.5625  0.2615  0.3742
   58MOL   C33020964   0.535   1.697   4.817 -0.1782 -0.1876  0.2827
   58MOL   C33120965   0.396   1.748   4.763  0.4698  0.4864 -0.0884
   58MOL   C33220966   0.363   1.690   4.624 -0.1444 -0.1949  0.2352
   58MOL   O33320967   0.349   1.797   4.528  0.4468 -0.6785 -1.0792
   58MOL   H33420968   0.648   1.933   4.907 -1.2432  1.8325 -0.0236
   58MOL   H33520969   0.522   1.925   5.033 -0.0117 -0.3736  0.0219
   58MOL   H33620970   0.482   1.700   5.014 -1.8318 -0.1983 -1.7192
   58MOL   H33720971   0.659   1.663   4.978  0.6760  2.4391  1.5714
   58MOL   H33820972   0.527   1.589   4.810  0.8464 -0.2372 -0.2098
   58MOL   H33920973   0.611   1.731   4.747 -1.1569 -0.9624 -1.1858
   58MOL   H34020974   0.401   1.856   4.754  1.3177  0.4497 -0.0706
   58MOL   H34120975   0.312   1.719   4.826  0.6957 -0.8805 -0.3900
   58MOL   H34220976   0.432   1.616   4.583 -0.7907  0.1439 -1.5140
   58MOL   H34320977   0.274   1.627   4.628 -0.8068  0.6742 -0.6834
   58MOL   C34420978   0.383   1.788   4.398  0.9128  0.0489  0.7107
   58MOL   O34520979   0.443   1.697   4.343 -0.0081 -0.2125  0.0941
   58MOL   C34620980   0.332   1.911   4.323  0.3368 -0.4629  1.4133
   58MOL   C34720981   0.178   1.934   4.326 -0.8376 -0.3299  0.2732
   58MOL   C34820982   0.100   1.832   4.242  0.0698  0.8662  0.3851
   58MOL   C34920983   7.794   1.842   4.238  0.3811  0.2802 -0.1732
   58MOL   C35020984   7.718   1.731   4.156  0.0370 -0.7645  0.6783
   58MOL   O35120985   7.756   1.711   4.021  0.2084 -0.2978  0.0290
   58MOL   H35220986   0.371   1.893   4.223 -0.3730 -0.4778  1.1409
   58MOL   H35320987   0.395   1.986   4.373 -0.4472  0.2157  1.3957
   58MOL   H35420988   0.164   2.034   4.286 -1.8136 -0.3728  0.4940
   58MOL   H35520989   0.141   1.946   4.428 -1.5722 -2.9390  0.3471
   58MOL   H35620990   0.127   1.728   4.258  0.4916  0.8578 -0.3546
   58MOL   H35720991   0.133   1.826   4.138  2.1357  0.5003  1.0350
   58MOL   H35820992   7.769   1.945   4.210  2.3827  0.9602  0.4185
   58MOL   H35920993   7.755   1.830   4.339 -1.8014 -1.2147 -1.1643
   58MOL   H36020994   7.746   1.633   4.195  0.3531 -0.6874  0.6470
   58MOL   H36120995   7.613   1.753   4.174  0.3243  0.7809  0.5161
   58MOL   H36220996   0.006   1.704   4.017  0.1081 -1.0116 -1.3553
   59MOL     C120997   3.471   4.009   7.082  0.4059 -0.1091 -0.6910
   59MOL     O220998   3.450   4.022   6.961 -0.2467 -0.4525 -0.4088
   59MOL     C320999   3.568   4.098   7.161  0.2576  0.6520 -0.0012
   59MOL     C421000   3.627   4.210   7.068 -0.3361 -0.5042  1.3182
   59MOL     C521001   3.726   4.298   7.152 -0.0843 -0.4481 -0.2273
   59MOL     C621002   3.787   4.412   7.066 -0.2325  0.4194  0.0436
   59MOL     C721003   3.860   4.514   7.156  0.5093 -0.0431 -0.4940
   59MOL     O821004   3.958   4.445   7.235  0.3081  0.1264 -0.1274
   59MOL     H921005   3.640   4.035   7.215  0.7399  0.6393 -0.6592
   59MOL    H1021006   3.502   4.146   7.234 -1.2776 -0.4257 -0.6510
   59MOL    H1121007   3.554   4.276   7.021 -0.7054 -1.5545  0.4016
   59MOL    H1221008   3.680   4.161   6.987 -1.9442  0.6022 -0.4576
   59MOL    H1321009   3.800   4.226   7.187  2.5843  1.2077 -2.2733
   59MOL    H1421010   3.679   4.330   7.245  0.7538 -1.4676  0.5584
   59MOL    H1521011   3.697   4.463   7.030  0.5269  0.3272 -2.0571
   59MOL    H1621012   3.855   4.372   6.991 -2.4869 -1.2376 -1.1835
   59MOL    H1721013   3.906   4.588   7.091  0.3599 -2.0116 -2.9131
   59MOL    H1821014   3.798   4.572   7.224 -2.8314 -4.2816  0.3644
   59MOL    H1921015   3.434   3.917   7.128 -1.7155  1.5246  0.9446
   59MOL    C2021016   4.082   4.415   7.183 -0.6529 -0.0591 -0.4777
   59MOL    O2121017   4.136   4.456   7.078  0.3715  0.4780  0.0549
   59MOL    C2221018   4.163   4.324   7.274 -1.3824  0.7430  0.2574
   59MOL    C2321019   4.217   4.411   7.385 -0.4151  0.1965  0.1982
   59MOL    C2421020   4.344   4.493   7.350  0.7740 -0.2560 -0.0362
   59MOL    C2521021   4.391   4.585   7.459 -0.5607  0.2669  0.2598
   59MOL    C2621022   4.513   4.513   7.530 -0.2146 -0.1001 -0.3117
   59MOL    O2721023   4.474   4.391   7.591 -0.2146 -1.0107 -0.1628
   59MOL    H2821024   4.245   4.278   7.218 -2.0264 -1.2171  0.9133
   59MOL    H2921025   4.104   4.238   7.305  0.0347 -0.1879  0.4107
   59MOL    H3021026   4.247   4.333   7.455 -0.5909 -0.3518 -0.3308
   59MOL    H3121027   4.142   4.464   7.444  0.1064  0.6800  0.4359
   59MOL    H3221028   4.318   4.572   7.279 -1.2994 -1.0633 -0.2085
   59MOL    H3321029   4.421   4.426   7.311 -1.2267 -2.4138 -0.3881
   59MOL    H3421030   4.318   4.596   7.539  0.1316 -0.6505  1.0206
   59MOL    H3521031   4.422   4.685   7.427  0.6459 -0.3637 -0.5776
   59MOL    H3621032   4.593   4.497   7.458 -0.4388 -1.2918 -0.2949
   59MOL    H3721033   4.552   4.583   7.604  1.3828  1.2682 -2.3682
   59MOL    C3821034   4.568   4.295   7.615 -0.6930 -0.7511 -0.8668
   59MOL    O3921035   4.691   4.307   7.608  0.3549 -0.1231  0.3627
   59MOL    C4021036   4.505   4.163   7.657  0.6051  0.2701 -0.1056
   59MOL    C4121037   4.395   4.108   7.559  0.3076  0.0785 -0.2193
   59MOL    C4221038   4.440   4.096   7.409  0.1260  0.0886  0.8412
   59MOL    C4321039   4.337   4.011   7.331  0.0923 -0.5049 -0.2764
   59MOL    C4421040   4.372   3.998   7.180 -0.0076  0.0039 -0.6548
   59MOL    O4521041   4.468   3.900   7.170 -0.3585 -0.1311  0.0389
   59MOL    H4621042   4.461   4.191   7.752  1.2656  1.3913 -0.1261
   59MOL    H4721043   4.587   4.095   7.682  0.9869  0.1750 -1.5636
   59MOL    H4821044   4.301   4.163   7.567 -0.3545 -1.0912  0.1467
   59MOL    H4921045   4.376   4.008   7.595 -1.3207 -0.9419 -3.6952
   59MOL    H5021046   4.542   4.056   7.404  0.6261  1.5861 -1.9148
   59MOL    H5121047   4.429   4.191   7.358 -0.3264 -0.6784 -0.5164
   59MOL    H5221048   4.236   4.050   7.334  0.7216  1.1824 -0.5371
   59MOL    H5321049   4.326   3.914   7.380  0.0582 -0.4110 -0.0985
   59MOL    H5421050   4.285   3.981   7.117 -0.7441  0.5909  0.1861
   59MOL    H5521051   4.406   4.098   7.150 -0.1902  0.1902 -0.2410
   59MOL    C5621052   4.581   3.910   7.107 -0.4055 -0.5568  0.0540
   59MOL    O5721053   4.621   3.998   7.031 -0.1915 -0.7945 -0.6683
   59MOL    C5821054   4.673   3.795   7.146  0.1493  0.0083  0.4132
   59MOL    C5921055   4.639   3.649   7.098 -0.1758 -0.0086 -0.1636
   59MOL    C6021056   4.620   3.627   6.953 -0.3338 -0.0566  0.8001
   59MOL    C6121057   4.618   3.480   6.903 -0.4645 -0.1377  0.2320
   59MOL    C6221058   4.510   3.391   6.963 -1.2296 -0.2305 -0.2832
   59MOL    O6321059   4.379   3.417   6.923 -0.5379  0.1662  0.2747
   59MOL    H6421060   4.673   3.795   7.255 -0.0674 -4.2099  0.5119
   59MOL    H6521061   4.769   3.831   7.110  0.2750 -1.0017 -0.3012
   59MOL    H6621062   4.558   3.617   7.163  0.4740  0.2248  0.7693
   59MOL    H6721063   4.720   3.580   7.124  1.1163  2.3070  2.2322
   59MOL    H6821064   4.699   3.680   6.900 -1.7891  0.5788 -0.7835
   59MOL    H6921065   4.528   3.673   6.915  0.2969  1.5774  1.2233
   59MOL    H7021066   4.713   3.427   6.916 -0.2498  0.0890 -0.4303
   59MOL    H7121067   4.605   3.497   6.797 -0.8347 -1.6426  0.0202
   59MOL    H7221068   4.532   3.285   6.946  2.3162  0.8357 -2.7013
   59MOL    H7321069   4.522   3.395   7.072 -0.2857 -0.1975 -0.3883
   59MOL    C7421070   4.294   3.319   6.883 -0.1453 -0.0043 -0.5319
   59MOL    O7521071   4.333   3.213   6.838  0.4080 -0.0220 -0.0052
   59MOL    C7621072   4.144   3.350   6.891  0.3267 -0.3543  0.5092
   59MOL    C7721073   4.087   3.443   6.777 -0.5287 -0.0420  0.4604
   59MOL    C7821074   4.136   3.593   6.781 -0.1050  0.2160 -0.0018
   59MOL    C7921075   4.076   3.681   6.672  0.0521 -0.0835  0.5088
   59MOL    C8021076   4.130   3.824   6.648 -0.1225  0.5435 -0.6803
   59MOL    O8121077   4.274   3.830   6.639 -0.8365 -0.0629  0.1706
   59MOL    H8221078   4.105   3.397   6.981 -1.1672 -2.1772  0.8461
   59MOL    H8321079   4.091   3.255   6.886 -0.8097  0.2700  0.4277
   59MOL    H8421080   3.978   3.451   6.781 -0.4632  1.7117 -0.7655
   59MOL    H8521081   4.107   3.397   6.680  0.7673  1.3670  0.0477
   59MOL    H8621082   4.244   3.591   6.767  0.3093 -0.2416  3.0086
   59MOL    H8721083   4.119   3.642   6.876  1.3466 -1.7645  1.3209
   59MOL    H8821084   3.967   3.684   6.676 -0.3619 -1.1972 -5.4393
   59MOL    H8921085   4.104   3.635   6.577 -1.2844  1.4838 -0.6629
   59MOL    H9021086   4.091   3.867   6.556 -0.8247  1.6466  0.1291
   59MOL    H9121087   4.086   3.889   6.723 -3.0404 -0.0241 -1.8190
   59MOL    C9221088   4.344   3.873   6.743 -0.3559  0.4969 -0.1135
   59MOL    O9321089   4.300   3.887   6.862  0.1605 -0.5107  0.3365
   59MOL    C9421090   4.489   3.900   6.711 -0.1975  0.9594 -1.2856
   59MOL    C9521091   4.499   4.012   6.613  0.1067 -0.3860  0.8835
   59MOL    C9621092   4.504   4.156   6.680  0.0543  0.2973 -0.2710
   59MOL    C9721093   4.361   4.211   6.714  0.9891 -0.6381 -0.0225
   59MOL    C9821094   4.369   4.352   6.790  0.4576 -0.0387  0.1574
   59MOL    O9921095   4.418   4.458   6.716  0.2938 -0.1942  0.3581
   59MOL   H10021096   4.531   3.807   6.671  1.1222  1.8285 -1.9625
   59MOL   H10121097   4.524   3.927   6.811 -0.7272 -1.2499 -0.4716
   59MOL   H10221098   4.432   3.997   6.528 -0.3596  2.1251  0.7891
   59MOL   H10321099   4.598   4.007   6.568  0.7196  0.7893  2.0766
   59MOL   H10421100   4.560   4.221   6.613 -0.1490  0.2229 -0.5140
   59MOL   H10521101   4.560   4.141   6.773  0.1360  0.1429 -0.3441
   59MOL   H10621102   4.315   4.142   6.785  0.2969 -0.8064 -0.6249
   59MOL   H10721103   4.295   4.206   6.627  1.0795 -2.1906 -0.0030
   59MOL   H10821104   4.269   4.378   6.826  1.2318  2.2201  0.7443
   59MOL   H10921105   4.436   4.342   6.875  0.5547  0.4328  0.1377
   59MOL   C11021106   4.344   4.535   6.642  0.2788  0.0227 -0.5645
   59MOL   O11121107   4.228   4.513   6.607  0.0862 -0.1656 -0.1702
   59MOL   C11221108   4.421   4.655   6.583 -0.6828  0.2669  0.7026
   59MOL   C11321109   4.566   4.664   6.605 -0.5587  0.0077  0.0510
   59MOL   C11421110   4.640   4.783   6.542  0.4058  0.7617  0.1612
   59MOL   C11521111   4.608   4.789   6.387 -0.0711 -0.1792  0.3059
   59MOL   C11621112   4.688   4.901   6.313  0.3979  0.0569 -0.5821
   59MOL   O11721113   4.716   4.855   6.184 -0.3396 -0.4465  0.0130
   59MOL   H11821114   4.371   4.748   6.612  0.8326  1.6921 -1.1516
   59MOL   H11921115   4.402   4.659   6.476  1.9196 -0.6772  0.1882
   59MOL   H12021116   4.620   4.576   6.569 -0.3937  0.4546 -0.8029
   59MOL   H12121117   4.579   4.657   6.713 -0.0234  2.3141  0.1558
   59MOL   H12221118   4.748   4.783   6.560  0.6544 -0.1825 -1.3110
   59MOL   H12321119   4.607   4.873   6.595 -1.6640  0.6053 -0.8152
   59MOL   H12421120   4.505   4.816   6.366  0.5621  2.0386 -0.1514
   59MOL   H12521121   4.639   4.691   6.351  1.7686  0.7547 -0.7384
   59MOL   H12621122   4.633   4.995   6.303  1.3983  0.5614 -1.5069
   59MOL   H12721123   4.773   4.937   6.372  0.3941  0.1297 -0.6211
   59MOL   C12821124   4.775   4.935   6.091  0.6456 -1.1068 -0.4026
   59MOL   O12921125   4.798   5.055   6.102  0.2937  0.0268 -0.3785
   59MOL   C13021126   4.826   4.866   5.965 -0.6507  0.0458  0.0995
   59MOL   C13121127   4.763   4.927   5.841 -0.1393 -0.0600 -0.9008
   59MOL   C13221128   4.863   4.958   5.736  0.4748 -0.1080 -0.3931
   59MOL   C13321129   4.795   5.025   5.616  0.6170 -0.3265  0.3035
   59MOL   C13421130   4.899   5.080   5.512 -0.0799 -0.1814 -0.0148
   59MOL   O13521131   4.973   4.968   5.458 -0.4444  0.1189 -0.1549
   59MOL   H13621132   4.799   4.760   5.968  3.0249 -0.9627  0.0913
   59MOL   H13721133   4.934   4.874   5.959 -0.8235  3.0144  0.0347
   59MOL   H13821134   4.708   5.014   5.877  0.6617  0.0208  0.1202
   59MOL   H13921135   4.695   4.852   5.799 -0.6594 -0.6486  0.9445
   59MOL   H14021136   4.920   4.868   5.713  2.0406  0.1944  2.1433
   59MOL   H14121137   4.935   5.032   5.769 -0.5059  0.8177 -0.2909
   59MOL   H14221138   4.731   5.106   5.651  0.3658 -1.3570  2.2813
   59MOL   H14321139   4.732   4.959   5.558 -0.2962 -1.2750  2.3337
   59MOL   H14421140   4.849   5.138   5.435  0.1971  0.4799  0.3026
   59MOL   H14521141   4.957   5.154   5.567 -0.9292  1.7551 -1.6976
   59MOL   C14621142   5.101   4.995   5.428 -0.0197  0.1215  0.0303
   59MOL   O14721143   5.156   5.109   5.429 -0.3253  0.4298  0.2765
   59MOL   C14821144   5.181   4.872   5.393  0.3087  0.4276 -0.2331
   59MOL   C14921145   5.119   4.797   5.267  0.4951 -0.4239 -0.5937
   59MOL   C15021146   5.192   4.839   5.147 -0.2527 -0.4733 -0.5609
   59MOL   C15121147   5.142   4.964   5.073  0.3364 -0.4379 -0.1070
   59MOL   C15221148   5.203   4.957   4.924  0.2348 -0.3252 -0.1677
   59MOL   O15321149   5.154   4.844   4.854 -0.3643 -0.1396 -0.1952
   59MOL   H15421150   5.181   4.805   5.479  1.7846 -2.1024 -2.1182
   59MOL   H15521151   5.285   4.902   5.387  1.0776 -1.8734  1.0143
   59MOL   H15621152   5.014   4.825   5.258  0.2973 -0.7075  0.7407
   59MOL   H15721153   5.132   4.689   5.267  0.0470 -0.4767  0.1619
   59MOL   H15821154   5.163   4.755   5.085 -4.6122  1.4981 -1.3755
   59MOL   H15921155   5.300   4.844   5.164 -0.4141 -0.6935  0.5930
   59MOL   H16021156   5.164   5.064   5.111  1.7744  0.3175 -2.7771
   59MOL   H16121157   5.033   4.966   5.069  0.3810  0.7614 -1.0109
   59MOL   H16221158   5.177   5.047   4.868  0.8999 -0.8170 -1.2738
   59MOL   H16321159   5.311   4.957   4.910  0.3707  0.7232  0.7719
   59MOL   C16421160   5.038   4.859   4.794  0.0580 -0.1697 -0.2435
   59MOL   O16521161   4.958   4.953   4.816  0.6254 -0.1044 -0.1125
   59MOL   C16621162   5.001   4.746   4.693  0.3576  0.2995 -0.2785
   59MOL   C16721163   4.872   4.779   4.623  0.0623 -0.3061  0.6378
   59MOL   C16821164   4.884   4.885   4.513 -0.2895 -0.3701  0.7335
   59MOL   C16921165   4.759   4.897   4.431 -0.2684  0.1423 -0.2380
   59MOL   C17021166   4.769   5.002   4.320 -0.0093  0.7599  0.0734
   59MOL   O17121167   4.801   5.128   4.374  0.0096 -0.1676 -0.1129
   59MOL   H17221168   4.981   4.659   4.755 -0.3570  3.0084  3.4959
   59MOL   H17321169   5.083   4.721   4.626  0.9654 -0.8154  0.8671
   59MOL   H17421170   4.798   4.798   4.701 -1.5515  1.8033 -1.3051
   59MOL   H17521171   4.849   4.681   4.581  2.0915  0.0208 -1.2906
   59MOL   H17621172   4.970   4.874   4.447 -0.6182 -1.6815  0.4972
   59MOL   H17721173   4.894   4.977   4.569  0.5460  0.6004 -0.9877
   59MOL   H17821174   4.672   4.918   4.493 -0.8733  2.2745 -1.7198
   59MOL   H17921175   4.751   4.796   4.392  2.7797 -0.2360 -0.0048
   59MOL   H18021176   4.860   4.982   4.263  0.4847  2.1967  0.3308
   59MOL   H18121177   4.687   4.999   4.248 -0.9299 -1.1130  1.1719
   59MOL   C18221178   4.720   5.235   4.372  0.2797  1.0898 -0.2336
   59MOL   O18321179   4.599   5.239   4.340 -0.4425 -0.2881  0.0342
   59MOL   C18421180   4.787   5.362   4.412 -0.3564 -0.4288  0.1938
   59MOL   C18521181   4.914   5.404   4.328  0.6938 -0.5594 -0.2897
   59MOL   C18621182   4.889   5.499   4.201 -0.3829 -0.1059  0.1933
   59MOL   C18721183   4.765   5.475   4.116 -0.5820  0.4841 -0.1938
   59MOL   C18821184   4.737   5.581   4.015 -0.6648  0.0518 -0.5822
   59MOL   O18921185   4.604   5.599   3.979  0.3869  0.2916  0.7303
   59MOL   H19021186   4.806   5.360   4.519  0.7071  0.0812  0.0231
   59MOL   H19121187   4.727   5.452   4.394  0.5937  0.1989  0.1468
   59MOL   H19221188   4.952   5.316   4.276  0.8452 -0.5845 -0.1379
   59MOL   H19321189   4.990   5.459   4.383 -1.7373  2.6267  0.0222
   59MOL   H19421190   4.984   5.485   4.150  0.3098 -0.0416  1.4391
   59MOL   H19521191   4.894   5.601   4.239 -0.1047 -1.3350  3.6700
   59MOL   H19621192   4.682   5.467   4.187 -0.1382 -1.5136  0.1478
   59MOL   H19721193   4.791   5.377   4.074  2.1737 -0.0685  2.6320
   59MOL   H19821194   4.781   5.676   4.047 -2.0454  0.9728 -1.3973
   59MOL   H19921195   4.794   5.556   3.926 -0.5379  0.8714 -0.7388
   59MOL   C20021196   4.545   5.721   3.996  0.2979  0.3485 -0.1452
   59MOL   O20121197   4.591   5.812   4.063  0.8342 -0.3892 -0.3122
   59MOL   C20221198   4.417   5.756   3.917  0.4533 -0.4042 -0.6520
   59MOL   C20321199   4.325   5.869   3.980 -0.3372  0.2871  0.0035
   59MOL   C20421200   4.381   6.005   3.945  0.6507  0.2210 -0.1182
   59MOL   C20521201   4.388   6.045   3.796 -0.1491 -0.1185 -0.1522
   59MOL   C20621202   4.501   6.146   3.783  0.2537  0.3744 -0.0858
   59MOL   O20721203   4.453   6.258   3.846 -0.2996 -0.1882 -0.7128
   59MOL   H20821204   4.362   5.662   3.919 -0.2584  0.0312  0.6904
   59MOL   H20921205   4.438   5.769   3.810 -1.4881  2.1867 -0.7801
   59MOL   H21021206   4.322   5.866   4.089 -1.9139 -0.0733 -0.0370
   59MOL   H21121207   4.223   5.840   3.953  0.1777 -0.5624 -1.0516
   59MOL   H21221208   4.472   6.028   4.000  1.0208  0.0232 -0.6435
   59MOL   H21321209   4.322   6.081   3.996  3.2834  0.6907  2.3661
   59MOL   H21421210   4.295   6.088   3.759  0.4089 -1.4727 -3.2668
   59MOL   H21521211   4.406   5.956   3.736 -1.0327 -0.1349 -0.3911
   59MOL   H21621212   4.586   6.099   3.834  0.6987  1.3190  0.0668
   59MOL   H21721213   4.538   6.175   3.685  1.0009  3.7389  1.1069
   59MOL   C21821214   4.547   6.351   3.886  0.0035 -0.0592 -1.0325
   59MOL   O21921215   4.663   6.362   3.852 -0.1862  0.5768  0.2778
   59MOL   C22021216   4.492   6.454   3.989 -0.4153  0.2456  0.5765
   59MOL   C22121217   4.581   6.581   4.016  0.2242 -0.2376 -0.3504
   59MOL   C22221218   4.667   6.568   4.145  0.1356 -0.2426 -0.1001
   59MOL   C22321219   4.766   6.685   4.161 -0.1345  0.1950 -0.4461
   59MOL   C22421220   4.875   6.666   4.262 -0.2500 -0.6099 -0.0062
   59MOL   O22521221   4.827   6.599   4.385  0.0253  0.0778  0.2628
   59MOL   H22621222   4.479   6.401   4.083 -0.8021  0.8780  0.8865
   59MOL   H22721223   4.390   6.471   3.952  0.0877  1.3165 -0.3776
   59MOL   H22821224   4.527   6.674   4.033  1.2430  0.4007 -0.5208
   59MOL   H22921225   4.652   6.595   3.934  0.7201 -0.5313  0.0289
   59MOL   H23021226   4.720   6.476   4.122  0.0780  0.3103 -2.5691
   59MOL   H23121227   4.617   6.552   4.240 -0.6091  3.5682  0.2468
   59MOL   H23221228   4.706   6.775   4.177 -0.5875  0.1804 -1.9475
   59MOL   H23321229   4.820   6.704   4.067 -1.8377 -3.1340 -2.1643
   59MOL   H23421230   4.956   6.603   4.224 -0.3307 -0.1983 -0.8847
   59MOL   H23521231   4.932   6.759   4.273 -1.9584  0.8146 -2.6480
   59MOL   C23621232   4.874   6.629   4.509 -0.5085  0.1362  0.0405
   59MOL   O23721233   4.942   6.731   4.531  0.0676  0.2222  0.1372
   59MOL   C23821234   4.816   6.538   4.611 -0.1991  0.0974  0.3957
   59MOL   C23921235   4.797   6.610   4.741  0.2794  0.5259  0.1474
   59MOL   C24021236   4.711   6.732   4.741  0.3047 -0.1925  0.0749
   59MOL   C24121237   4.568   6.705   4.793 -0.0638  0.0906 -0.5815
   59MOL   C24221238   4.467   6.670   4.685  0.5502  0.1962  0.0632
   59MOL   O24321239   4.443   6.781   4.600  0.2710  0.0894 -0.0916
   59MOL   H24421240   4.871   6.445   4.626 -0.3319 -0.3324 -1.6589
   59MOL   H24521241   4.717   6.506   4.580  0.4737  0.4082 -2.1609
   59MOL   H24621242   4.895   6.638   4.778  1.3523 -0.1603 -2.0999
   59MOL   H24721243   4.765   6.532   4.810  0.7782  0.9574  0.8748
   59MOL   H24821244   4.709   6.791   4.650 -0.4697 -3.4865 -2.1197
   59MOL   H24921245   4.754   6.810   4.803 -0.0683 -1.4695  1.9956
   59MOL   H25021246   4.521   6.795   4.835  1.1544 -0.3959  1.8658
   59MOL   H25121247   4.575   6.644   4.883 -1.2206  0.3098 -0.3271
   59MOL   H25221248   4.506   6.588   4.625 -0.1481 -0.2211  0.1848
   59MOL   H25321249   4.373   6.622   4.711 -0.0071  0.2962 -1.6704
   59MOL   C25421250   4.479   6.780   4.469  0.2792  0.6077 -0.5287
   59MOL   O25521251   4.532   6.682   4.415 -0.1599 -0.4993 -0.4840
   59MOL   C25621252   4.450   6.910   4.396 -0.2345  0.3324  0.1776
   59MOL   C25721253   4.543   7.023   4.444 -0.1427 -0.4534 -0.2353
   59MOL   C25821254   4.517   7.149   4.369  0.1924 -0.4405 -0.4918
   59MOL   C25921255   4.610   7.261   4.414  0.1855  0.9707 -0.0617
   59MOL   C26021256   4.619   7.391   4.340  0.3687 -0.3561 -0.1545
   59MOL   O26121257   4.706   7.492   4.408 -0.1158 -0.3638 -0.1091
   59MOL   H26221258   4.348   6.947   4.408  0.4419  2.4109 -0.2535
   59MOL   H26321259   4.461   6.891   4.290  0.5782 -0.1366  0.3429
   59MOL   H26421260   4.640   6.976   4.425  0.2820  0.2630  0.1330
   59MOL   H26521261   4.524   7.041   4.550 -0.9051  1.2735 -0.6401
   59MOL   H26621262   4.414   7.183   4.382  0.5064  0.2338  0.2591
   59MOL   H26721263   4.524   7.124   4.263  0.7591  0.0641 -0.5761
   59MOL   H26821264   4.710   7.223   4.432 -0.4576 -0.3376  0.9005
   59MOL   H26921265   4.588   7.278   4.520 -1.9474  1.9523 -0.6220
   59MOL   H27021266   4.665   7.380   4.242 -1.3565  0.7813 -1.1164
   59MOL   H27121267   4.518   7.423   4.318 -0.3951 -0.5364  2.8379
   59MOL   C27221268   4.839   7.491   4.388 -0.0397  0.5431  1.0215
   59MOL   O27321269   4.905   7.412   4.315 -0.1599 -0.1952  0.1654
   59MOL   C27421270   4.903   7.605   4.460  0.5066 -0.0011  0.5753
   59MOL   C27521271   4.989   7.691   4.365  0.2518 -0.0419 -0.1048
   59MOL   C27621272   4.902   7.762   4.267  0.5818  0.2168  0.4114
   59MOL   C27721273   4.975   0.035   4.197 -0.4556 -0.6143 -0.2833
   59MOL   C27821274   4.884   0.140   4.130 -0.3987 -0.0103 -0.0586
   59MOL   O27921275   4.963   0.243   4.073 -0.5756 -0.3726  0.0703
   59MOL   H28021276   4.975   7.551   4.522  1.2886  0.0844 -0.2471
   59MOL   H28121277   4.827   7.662   4.513 -0.6937 -2.1803  1.2854
   59MOL   H28221278   5.067   7.631   4.317  1.1060  0.3094  0.8298
   59MOL   H28321279   5.031   7.757   4.441  0.5239  0.8102 -0.9858
   59MOL   H28421280   4.808   7.801   4.305 -1.5013 -1.8263 -2.4397
   59MOL   H28521281   4.881   7.681   4.197  2.9994  1.2434 -1.5889
   59MOL   H28621282   5.053   7.844   4.128 -1.1429 -1.9013 -0.4180
   59MOL   H28721283   5.027   0.086   4.278 -1.9019 -0.0447  0.2954
   59MOL   H28821284   4.818   0.085   4.063  1.3605  1.5146 -3.1614
   59MOL   H28921285   4.815   0.175   4.207  0.0426 -1.4094  0.9919
   59MOL   C29021286   4.913   0.314   3.968  0.1663 -0.4080  0.1692
   59MOL   O29121287   4.846   0.265   3.880  0.3459 -0.2325  0.2266
   59MOL   C29221288   4.984   0.450   3.955 -0.2858 -0.1054  0.3239
   59MOL   C29321289   5.040   0.523   4.086  0.1571  0.1413 -0.1448
   59MOL   C29421290   4.933   0.563   4.178  0.5155  0.0313 -0.6123
   59MOL   C29521291   4.972   0.639   4.306  0.0166  0.3974 -0.6323
   59MOL   C29621292   4.846   0.716   4.356 -0.2028 -1.0133 -0.2285
   59MOL   O29721293   4.757   0.630   4.414 -0.0651 -0.0325  0.0637
   59MOL   H29821294   4.910   0.515   3.909  0.2099 -1.6359 -2.7347
   59MOL   H29921295   5.052   0.443   3.870 -0.5454  0.5127  0.0663
   59MOL   H30021296   5.094   0.612   4.055 -1.5083  1.3119  0.2562
   59MOL   H30121297   5.105   0.454   4.141 -1.7123 -0.1792  1.7231
   59MOL   H30221298   4.861   0.483   4.200  1.5651 -0.1353  2.4871
   59MOL   H30321299   4.871   0.637   4.129  0.3286  0.2404 -0.0626
   59MOL   H30421300   5.045   0.716   4.282 -0.1080 -0.1315 -2.8170
   59MOL   H30521301   5.015   0.580   4.387 -0.3905  1.0569  0.0750
   59MOL   H30621302   4.876   0.797   4.423 -1.7797  0.7708 -1.6258
   59MOL   H30721303   4.792   0.771   4.279 -0.0120 -1.7442 -0.8890
   59MOL   C30821304   4.668   0.679   4.506  0.1036  0.4387  0.5350
   59MOL   O30921305   4.678   0.793   4.550  0.4747 -0.1886 -0.0850
   59MOL   C31021306   4.569   0.569   4.548  0.3950 -0.4103 -0.3079
   59MOL   C31121307   4.437   0.633   4.586  0.2912  0.3162  0.1373
   59MOL   C31221308   4.429   0.666   4.737  0.0354  0.2025  0.2760
   59MOL   C31321309   4.412   0.544   4.833  0.6223 -0.1034  0.9328
   59MOL   C31421310   4.385   0.606   4.968  0.1822  0.8282 -0.0957
   59MOL   O31521311   4.502   0.660   5.026  0.2911 -0.3296 -0.0544
   59MOL   H31621312   4.615   0.515   4.631 -0.7844  1.2472  1.4855
   59MOL   H31721313   4.548   0.498   4.468 -2.4600 -0.5912  0.5349
   59MOL   H31821314   4.359   0.562   4.558  0.3458  0.2226  0.2227
   59MOL   H31921315   4.419   0.731   4.542 -1.5047 -1.0883 -2.3933
   59MOL   H32021316   4.346   0.736   4.737 -0.0161  0.1669 -0.9727
   59MOL   H32121317   4.512   0.727   4.772 -0.5626  1.2828 -0.1763
   59MOL   H32221318   4.501   0.483   4.834  1.8833  1.6962  1.3055
   59MOL   H32321319   4.320   0.496   4.800 -0.2219  1.9217  0.2258
   59MOL   H32421320   4.320   0.694   4.974 -1.5633 -0.4243 -0.0916
   59MOL   H32521321   4.340   0.529   5.032 -0.3068  2.3409  1.4128
   59MOL   C32621322   4.566   0.586   5.119  0.6202  0.1755  0.5015
   59MOL   O32721323   4.538   0.467   5.153  0.3156  0.4509 -0.0755
   59MOL   C32821324   4.674   0.673   5.185 -0.0057 -0.0020  0.2440
   59MOL   C32921325   4.760   0.754   5.095  0.0280 -0.1390 -0.0316
   59MOL   C33021326   4.850   0.666   5.006  0.8497 -0.1988 -0.4122
   59MOL   C33121327   4.902   0.740   4.880 -0.2610  0.6350  0.2158
   59MOL   C33221328   4.980   0.658   4.779  0.0156 -0.1831 -0.2041
   59MOL   O33321329   5.067   0.738   4.700  0.4730 -0.5568 -0.7990
   59MOL   H33421330   4.739   0.616   5.252  0.9836 -1.5688 -1.9703
   59MOL   H33521331   4.638   0.748   5.254 -0.7663  1.8611 -2.1162
   59MOL   H33621332   4.819   0.826   5.152  0.7386 -2.0366  1.6581
   59MOL   H33721333   4.692   0.808   5.029  0.9233  0.2206 -0.6766
   59MOL   H33821334   4.789   0.586   4.967 -0.5002  0.0222  1.1745
   59MOL   H33921335   4.931   0.626   5.067  0.2665 -0.5240  0.1539
   59MOL   H34021336   4.977   0.811   4.915  2.0130 -0.8380 -1.5888
   59MOL   H34121337   4.827   0.796   4.824 -0.1561  1.4059  0.8450
   59MOL   H34221338   5.048   0.583   4.820 -0.1433 -0.1289  0.1629
   59MOL   H34321339   4.911   0.605   4.714  1.2885  0.3473 -2.0220
   59MOL   C34421340   5.153   0.683   4.612  0.1765 -0.5143  0.2590
   59MOL   O34521341   5.166   0.561   4.586 -0.2122 -0.3630 -0.3788
   59MOL   C34621342   5.230   0.794   4.536 -0.0265  0.2263 -0.4721
   59MOL   C34721343   5.356   0.756   4.461 -0.5770  0.1512  0.5710
   59MOL   C34821344   5.332   0.717   4.312  1.2371  0.3925  0.0143
   59MOL   C34921345   5.455   0.672   4.238 -0.0479  0.9189 -0.1527
   59MOL   C35021346   5.501   0.536   4.271 -0.6673  0.5690 -0.5184
   59MOL   O35121347   5.634   0.505   4.214  0.1801 -0.4924 -0.1146
   59MOL   H35221348   5.254   0.877   4.602 -0.3833 -0.4186  0.4884
   59MOL   H35321349   5.162   0.836   4.462 -0.5347  1.8358  0.8779
   59MOL   H35421350   5.410   0.681   4.518  0.3442  0.6442  0.3462
   59MOL   H35521351   5.424   0.841   4.458  1.5549 -1.5352  0.2225
   59MOL   H35621352   5.287   0.802   4.259 -0.9864 -0.7562 -0.0014
   59MOL   H35721353   5.262   0.634   4.319  1.0926  0.3449 -1.9333
   59MOL   H35821354   5.537   0.740   4.264 -0.3324  0.4616  2.0280
   59MOL   H35921355   5.440   0.661   4.131  0.5042  2.2478 -0.3795
   59MOL   H36021356   5.517   0.535   4.379  0.3069 -1.1389 -0.6521
   59MOL   H36121357   5.429   0.459   4.243 -0.2565 -0.1968  0.4831
   59MOL   H36221358   5.637   0.414   4.186  0.6359 -0.3960 -0.3865
   60MOL     C121359   1.701   0.709   5.395 -0.0765  0.7949 -0.0063
   60MOL     O221360   1.731   0.823   5.366 -0.8106 -0.6322  0.1647
   60MOL     C321361   1.715   0.600   5.287  0.2672 -0.3469 -0.2818
   60MOL     C421362   1.613   0.604   5.171  0.0251  0.0902 -0.1917
   60MOL     C521363   1.633   0.725   5.085 -0.9096  0.1806  0.2708
   60MOL     C621364   1.568   0.714   4.943 -0.6096 -0.0680 -0.5405
   60MOL     C721365   1.545   0.845   4.874 -0.0052 -0.1366  0.5041
   60MOL     O821366   1.530   0.818   4.738 -0.7452  0.1800  0.4517
   60MOL     H921367   1.709   0.509   5.347 -0.6562  0.7134  1.2631
   60MOL    H1021368   1.817   0.605   5.248  0.5180 -1.7546  0.1400
   60MOL    H1121369   1.512   0.602   5.211  1.1215 -2.9472  2.5969
   60MOL    H1221370   1.619   0.514   5.109 -0.2390 -1.2077  1.6369
   60MOL    H1321371   1.739   0.738   5.065 -1.0510  0.3290 -0.3971
   60MOL    H1421372   1.592   0.817   5.129  1.2664  0.2214  2.2596
   60MOL    H1521373   1.469   0.672   4.958 -2.0336  2.6021 -2.0856
   60MOL    H1621374   1.634   0.651   4.882  0.0782 -0.4594  0.5889
   60MOL    H1721375   1.466   0.904   4.921 -0.4173 -0.8407  0.6981
   60MOL    H1821376   1.627   0.916   4.891  1.0064 -1.9005  3.4069
   60MOL    H1921377   1.674   0.676   5.495 -0.2074 -0.5411 -0.4721
   60MOL    C2021378   1.411   0.808   4.684  0.1132 -0.2345 -0.0328
   60MOL    O2121379   1.304   0.804   4.746  0.1220  0.4810 -0.0450
   60MOL    C2221380   1.418   0.794   4.530 -0.3299  0.4414 -0.4285
   60MOL    C2321381   1.284   0.767   4.458  0.3115 -1.0804  0.5055
   60MOL    C2421382   1.280   0.818   4.312  1.2430  0.3537  1.0219
   60MOL    C2521383   1.302   0.972   4.300 -0.0284 -0.2230 -0.4093
   60MOL    C2621384   1.279   1.024   4.156  0.0490 -0.2070  0.2047
   60MOL    O2721385   1.140   1.066   4.146 -0.1073  0.3730  0.1374
   60MOL    H2821386   1.491   0.717   4.505 -0.5913  0.7833 -2.2868
   60MOL    H2921387   1.455   0.889   4.492  2.6292 -0.6322 -0.4110
   60MOL    H3021388   1.192   0.805   4.502  0.1154 -1.9478  0.8570
   60MOL    H3121389   1.260   0.661   4.468  0.2833 -0.7910  4.1105
   60MOL    H3221390   1.177   0.805   4.279  1.2692 -1.2189  1.5216
   60MOL    H3321391   1.345   0.759   4.247  1.7996 -0.1501  2.0050
   60MOL    H3421392   1.403   1.002   4.326 -0.4440  0.3043  0.6170
   60MOL    H3521393   1.238   1.029   4.367 -0.5680 -1.2506 -0.0416
   60MOL    H3621394   1.341   1.113   4.142 -1.5436  1.3169  2.5644
   60MOL    H3721395   1.315   0.945   4.089  1.3535  1.0715 -0.6419
   60MOL    C3821396   1.055   0.984   4.084  0.1447 -0.6397  0.1067
   60MOL    O3921397   1.082   0.879   4.024  0.2627  0.1360 -0.3035
   60MOL    C4021398   0.909   1.042   4.077  0.0513  0.1767  0.1989
   60MOL    C4121399   0.839   1.021   3.941  0.5594 -0.0990  0.8083
   60MOL    C4221400   0.782   0.874   3.913  0.8508  0.0359 -0.4800
   60MOL    C4321401   0.657   0.853   3.999  1.1281  1.0496  1.1948
   60MOL    C4421402   0.595   0.707   4.003 -0.1928  0.2560  0.0719
   60MOL    O4521403   0.564   0.664   3.871 -0.1554  0.1909  0.4914
   60MOL    H4621404   0.907   1.148   4.103 -0.1210 -0.2452  1.9870
   60MOL    H4721405   0.866   0.989   4.162  0.9516 -0.4890  0.2414
   60MOL    H4821406   0.925   1.029   3.874  0.7080 -2.2729  0.7331
   60MOL    H4921407   0.767   1.098   3.912 -0.6089 -0.8594  1.6609
   60MOL    H5021408   0.858   0.797   3.910 -1.0133 -1.8316 -0.4428
   60MOL    H5121409   0.754   0.869   3.808 -1.7105 -0.8705  0.2140
   60MOL    H5221410   0.585   0.922   3.955  2.7379  2.0547  0.0797
   60MOL    H5321411   0.681   0.892   4.098 -0.1862  3.3937  0.6396
   60MOL    H5421412   0.668   0.641   4.051 -0.3776  1.1820  1.6783
   60MOL    H5521413   0.498   0.699   4.051 -1.4186 -0.0429 -2.4143
   60MOL    C5621414   0.523   0.541   3.843 -0.7692  0.2884  0.8231
   60MOL    O5721415   0.482   0.457   3.921 -0.0879  0.6901 -0.3097
   60MOL    C5821416   0.518   0.526   3.692  0.1049 -0.4213  0.1252
   60MOL    C5921417   0.585   0.401   3.637  0.2360 -0.7126 -0.0749
   60MOL    C6021418   0.490   0.282   3.661  0.9127 -0.0374 -0.2427
   60MOL    C6121419   0.552   0.149   3.638  1.1661  0.8768  1.0234
   60MOL    C6221420   0.457   0.029   3.670 -0.2884 -0.2555 -0.0563
   60MOL    O6321421   0.434   0.038   3.814  0.8266 -0.3943  0.0483
   60MOL    H6421422   0.558   0.607   3.630  0.3624 -0.2947  0.4575
   60MOL    H6521423   0.411   0.522   3.669  0.0801  0.2159  0.1217
   60MOL    H6621424   0.687   0.384   3.670 -0.4682 -0.1180  2.4881
   60MOL    H6721425   0.585   0.427   3.531  2.1731  2.4353  0.6126
   60MOL    H6821426   0.404   0.290   3.594 -0.4463 -1.3782  1.3240
   60MOL    H6921427   0.446   0.277   3.760  1.2664 -2.6533 -0.1921
   60MOL    H7021428   0.644   0.139   3.695  0.8196 -0.7975  1.3117
   60MOL    H7121429   0.575   0.137   3.532  0.6977  0.5466  0.9572
   60MOL    H7221430   0.355   0.046   3.639 -0.3509  0.0644  0.3147
   60MOL    H7321431   0.494   7.775   3.640  4.6083  1.8131 -1.2841
   60MOL    C7421432   0.361   7.788   3.876  0.0853 -0.1742  0.1216
   60MOL    O7521433   0.303   7.687   3.829  0.7687  0.0986 -0.0192
   60MOL    C7621434   0.346   7.832   4.024  0.4656  0.1199  0.1080
   60MOL    C7721435   0.257   7.730   4.100  0.0363  0.3629 -0.0523
   60MOL    C7821436   0.270   7.750   4.256  0.5304 -0.1615  1.0532
   60MOL    C7921437   0.171   7.657   4.329 -0.2211 -0.3150  0.5777
   60MOL    C8021438   0.205   7.662   4.475  0.5161  0.1042 -0.3212
   60MOL    O8121439   0.105   7.577   4.534 -0.1570 -0.3043  0.3667
   60MOL    H8221440   0.323   0.094   4.028 -3.6714 -0.7367  1.7567
   60MOL    H8321441   0.447   7.820   4.063  0.3766  0.2614  0.3791
   60MOL    H8421442   0.287   7.628   4.079  0.5297  0.2498  1.1153
   60MOL    H8521443   0.151   7.738   4.078 -0.7500 -2.9868  2.1043
   60MOL    H8621444   0.249   0.008   4.285  0.3103  0.0373  0.2027
   60MOL    H8721445   0.371   7.730   4.292  0.3141 -4.9476 -0.6708
   60MOL    H8821446   0.178   7.554   4.296  3.5740 -0.2852  1.0355
   60MOL    H8921447   0.068   7.687   4.311 -0.3386 -1.6462 -0.9680
   60MOL    H9021448   0.307   7.633   4.503 -0.3470 -0.1584  2.7101
   60MOL    H9121449   0.191   7.760   4.520  1.0042  0.2012 -0.3675
   60MOL    C9221450   0.141   7.479   4.618 -0.5410  0.0472  0.0355
   60MOL    O9321451   0.257   7.466   4.663  0.8715 -0.1377 -0.4505
   60MOL    C9421452   0.028   7.376   4.647  0.0256 -0.4684  0.1137
   60MOL    C9521453   7.831   7.344   4.791 -0.3339 -0.6138  0.1964
   60MOL    C9621454   7.809   7.459   4.886  0.5760 -0.2624 -0.6365
   60MOL    C9721455   7.777   7.431   5.034  0.1470  0.0657 -0.3273
   60MOL    C9821456   7.627   7.381   5.056 -0.3485  0.2014  0.1766
   60MOL    O9921457   7.605   7.359   5.197 -0.0368 -0.3899  0.1991
   60MOL   H10021458   0.039   7.278   4.603 -0.4687  0.0438 -1.1605
   60MOL   H10121459   7.789   7.422   4.594 -0.6358  0.5246  1.9427
   60MOL   H10221460   0.054   7.265   4.826 -0.6008 -1.0724 -0.3083
   60MOL   H10321461   7.735   7.293   4.798 -0.8626  0.4492  0.6854
   60MOL   H10421462   7.743   7.530   4.837  0.3537 -0.8339 -1.1650
   60MOL   H10521463   0.054   7.520   4.899  0.5528 -0.7507  1.9713
   60MOL   H10621464   7.787   7.527   5.085 -1.1831  0.5296 -0.9315
   60MOL   H10721465   0.008   7.363   5.074  1.3451  1.9802  0.7402
   60MOL   H10821466   7.565   7.463   5.019 -0.6701  0.1383  0.5714
   60MOL   H10921467   7.614   7.294   4.991 -1.6583  0.4717  0.0576
   60MOL   C11021468   7.479   7.349   5.239 -0.0720 -0.3939 -0.0938
   60MOL   O11121469   7.378   7.350   5.168 -0.1782  0.5481 -0.0534
   60MOL   C11221470   7.473   7.338   5.386 -0.1425  0.4984 -0.2706
   60MOL   C11321471   7.508   7.194   5.446  0.8651  0.1739  1.0218
   60MOL   C11421472   7.393   7.091   5.411  0.7969  0.4507 -1.1513
   60MOL   C11521473   7.419   6.958   5.483  0.4078 -0.2936  0.4490
   60MOL   C11621474   7.319   6.853   5.444 -0.5415  0.0452 -0.0782
   60MOL   O11721475   7.336   6.749   5.543  0.3641 -0.0894  0.0518
   60MOL   H11821476   7.381   7.378   5.431  0.3619  0.0209  1.2242
   60MOL   H11921477   7.542   7.403   5.440 -0.2836  0.4323 -0.0083
   60MOL   H12021478   7.524   7.202   5.553 -2.8412  0.4970  1.6150
   60MOL   H12121479   7.603   7.159   5.405 -0.4019 -1.8504 -0.2796
   60MOL   H12221480   7.384   7.069   5.305  0.1943 -1.9139 -0.6418
   60MOL   H12321481   7.305   7.144   5.448  1.6076  0.0000  1.5707
   60MOL   H12421482   7.416   6.975   5.591 -1.1915 -2.0703  0.7056
   60MOL   H12521483   7.518   6.917   5.464 -0.0123 -0.9645 -0.2950
   60MOL   H12621484   7.217   6.889   5.460 -0.7712 -2.2915  4.5241
   60MOL   H12721485   7.332   6.817   5.342 -0.2088 -3.1242  1.0272
   60MOL   C12821486   7.286   6.627   5.522 -0.7492  0.1137 -0.2731
   60MOL   O12921487   7.229   6.599   5.419 -0.2027  0.4238  0.1554
   60MOL   C13021488   7.307   6.525   5.639  0.2631  0.2445  0.2761
   60MOL   C13121489   7.438   6.451   5.637  0.4297  0.1845 -0.3818
   60MOL   C13221490   7.542   6.508   5.735  0.2550 -0.8509  0.7407
   60MOL   C13321491   7.649   6.597   5.672 -0.3952  0.7021  0.1344
   60MOL   C13421492   7.744   6.646   5.779 -0.2062  0.6011  0.1941
   60MOL   O13521493   7.819   6.749   5.727 -1.0254  0.0160  0.1720
   60MOL   H13621494   7.222   6.457   5.648 -0.7734  1.5218  0.1463
   60MOL   H13721495   7.294   6.584   5.730  2.4575 -0.0253  0.7992
   60MOL   H13821496   7.477   6.443   5.535  0.1348 -1.8713 -0.3597
   60MOL   H13921497   7.423   6.345   5.657  0.2287  0.1268 -0.8129
   60MOL   H14021498   7.599   6.433   5.790  1.1670 -1.8336 -1.4852
   60MOL   H14121499   7.499   6.562   5.819 -2.5723 -2.2499  0.2672
   60MOL   H14221500   7.604   6.678   5.614 -1.2536  0.4493  0.4438
   60MOL   H14321501   7.705   6.536   5.601  0.8395  1.5529  0.3621
   60MOL   H14421502   7.680   6.680   5.861  0.3419  0.1312  0.8160
   60MOL   H14521503   7.808   6.563   5.808 -1.8513 -1.1167 -0.9629
   60MOL   C14621504   0.096   6.767   5.762  0.6615 -1.2967 -0.4915
   60MOL   O14721505   0.152   6.698   5.846  0.1443  0.1435  0.6009
   60MOL   C14821506   0.167   6.878   5.682  0.5085  0.1273  0.0503
   60MOL   C14921507   0.087   7.005   5.663 -0.8399 -0.4057  0.2394
   60MOL   C15021508   0.152   7.130   5.717 -0.2500  0.1818  0.3895
   60MOL   C15121509   0.260   7.196   5.627 -0.1440  0.1941 -0.1155
   60MOL   C15221510   0.313   7.323   5.692 -0.9277 -0.4805  0.6354
   60MOL   O15321511   0.392   7.376   5.591 -0.3948 -0.5977  0.7592
   60MOL   H15421512   0.200   6.837   5.587  0.9897 -1.4045  0.8669
   60MOL   H15521513   0.266   6.895   5.725  0.7534  1.0439 -0.8483
   60MOL   H15621514   7.839   7.001   5.720 -1.7439  1.5675 -1.0647
   60MOL   H15721515   0.068   7.028   5.559  0.0338  0.8585  0.3465
   60MOL   H15821516   0.198   7.108   5.814 -0.7874 -2.0080  0.1539
   60MOL   H15921517   0.077   7.208   5.732 -1.7036 -1.3409  1.1821
   60MOL   H16021518   0.212   7.236   5.538  0.5345  1.5815  0.1176
   60MOL   H16121519   0.331   7.120   5.594  0.0471  0.3651 -0.0991
   60MOL   H16221520   0.238   7.393   5.727  0.1183  0.4981  0.9333
   60MOL   H16321521   0.377   7.304   5.778 -2.1806 -0.5241  1.5553
   60MOL   C16421522   0.472   7.476   5.616  0.2123  0.1164 -0.0409
   60MOL   O16521523   0.476   7.534   5.723 -0.1620 -0.0608  0.4770
   60MOL   C16621524   0.576   7.511   5.504  0.7441 -0.5621 -0.7879
   60MOL   C16721525   0.609   7.662   5.485 -0.3704 -0.5442  0.4185
   60MOL   C16821526   0.737   7.678   5.394  0.2287  0.2153  0.2608
   60MOL   C16921527   0.748   7.820   5.348 -0.0044  0.5123 -0.3669
   60MOL   C17021528   0.836   0.065   5.434 -0.9651 -0.2635 -0.0145
   60MOL   O17121529   0.793   0.069   5.571  0.1545 -0.8621  0.4294
   60MOL   H17221530   0.557   7.458   5.411  0.2921 -1.0233 -0.4337
   60MOL   H17321531   0.670   7.473   5.544  0.5479  0.8168  1.0116
   60MOL   H17421532   0.625   7.722   5.575 -1.0037 -0.6531  0.6042
   60MOL   H17521533   0.521   7.703   5.437  0.1756 -1.1416 -1.1260
   60MOL   H17621534   0.727   7.604   5.314 -1.4526  0.7413 -0.0253
   60MOL   H17721535   0.830   7.656   5.447  0.5562 -0.1604 -0.4491
   60MOL   H17821536   0.654   0.029   5.342  0.0264  0.5025 -0.8899
   60MOL   H17921537   0.784   7.830   5.246  1.3358  0.1232  0.0563
   60MOL   H18021538   0.929   0.008   5.436 -1.9840 -1.8932  1.8304
   60MOL   H18121539   0.853   0.165   5.392 -0.1584 -1.2817 -2.1680
   60MOL   C18221540   0.837   0.157   5.662 -0.0618  0.1836  0.3201
   60MOL   O18321541   0.930   0.237   5.644 -0.4290  0.7852 -0.0358
   60MOL   C18421542   0.747   0.162   5.781 -1.0839  0.2436  0.2672
   60MOL   C18521543   0.696   0.026   5.836  0.4464 -0.3875 -0.5061
   60MOL   C18621544   0.808   7.781   5.889 -0.7665 -0.1000 -0.0341
   60MOL   C18721545   0.758   7.656   5.953  0.2151  0.4109 -0.0847
   60MOL   C18821546   0.883   7.598   6.017  0.2356 -0.6853 -0.4521
   60MOL   O18921547   0.852   7.466   6.063  0.4613  0.4981 -0.2787
   60MOL   H19021548   0.661   0.224   5.757 -1.3929 -1.0245 -1.9712
   60MOL   H19121549   0.802   0.217   5.858  1.3521  0.8322 -1.8121
   60MOL   H19221550   0.641   7.823   5.755 -0.4065 -0.6027  0.1835
   60MOL   H19321551   0.616   0.037   5.910 -0.6434  2.9650 -2.1184
   60MOL   H19421552   0.865   7.844   5.957  0.1372  2.1205 -2.7436
   60MOL   H19521553   0.876   7.767   5.805 -1.3133 -1.6290 -0.2426
   60MOL   H19621554   0.719   7.583   5.882  0.3852 -0.0230  0.2694
   60MOL   H19721555   0.692   7.672   6.038 -3.3291  0.7505 -2.7837
   60MOL   H19821556   0.958   7.594   5.938 -1.7324 -1.9299 -2.3357
   60MOL   H19921557   0.908   7.673   6.092  2.6763 -3.7906  2.0446
   60MOL   C20021558   0.889   7.427   6.184 -0.6232 -0.0806  0.3940
   60MOL   O20121559   0.964   7.503   6.251  0.1152 -0.0394  0.2712
   60MOL   C20221560   0.831   7.301   6.238 -0.0686  0.5426  0.0369
   60MOL   C20321561   0.682   7.292   6.218  0.5394 -0.7061  0.5946
   60MOL   C20421562   0.590   7.393   6.302  0.2290 -0.3164  0.0149
   60MOL   C20521563   0.561   7.347   6.444 -0.3892 -0.0744 -0.3553
   60MOL   C20621564   0.500   7.466   6.522  0.4424 -0.2144 -0.2712
   60MOL   O20721565   0.357   7.468   6.521 -0.8317 -0.1980 -0.7020
   60MOL   H20821566   0.850   7.286   6.344  0.8643  0.8384 -0.0792
   60MOL   H20921567   0.874   7.217   6.183  2.1022  0.5696  1.6419
   60MOL   H21021568   0.642   7.193   6.244 -1.2437  0.1794  1.3238
   60MOL   H21121569   0.656   7.304   6.113 -0.0005  0.4955  0.8576
   60MOL   H21221570   0.501   7.414   6.243 -0.3550 -3.7923 -0.4536
   60MOL   H21321571   0.639   7.488   6.325  0.4411 -0.7057  1.2165
   60MOL   H21421572   0.651   7.317   6.499 -1.9373 -2.1227  1.1111
   60MOL   H21521573   0.499   7.258   6.438 -0.0603 -0.3687  0.4693
   60MOL   H21621574   0.527   7.454   6.627 -0.0179 -1.6374 -0.3085
   60MOL   H21721575   0.543   7.557   6.480 -0.5144  0.9920  1.3209
   60MOL   C21821576   0.289   7.572   6.568 -0.5471 -0.7536 -0.6930
   60MOL   O21921577   0.329   7.690   6.575  0.0808 -0.4578  0.2577
   60MOL   C22021578   0.150   7.536   6.597  0.2963  0.7201 -0.3413
   60MOL   C22121579   0.081   7.631   6.698  0.1284  0.3738 -0.3345
   60MOL   C22221580   7.769   7.626   6.710 -0.4713 -0.3927  0.4044
   60MOL   C22321581   7.695   7.714   6.613 -0.3450  0.2901  0.3847
   60MOL   C22421582   7.548   7.734   6.647 -0.5061  0.2429 -0.2148
   60MOL   O22521583   7.486   7.816   6.546  0.4472 -0.4180 -0.3560
   60MOL   H22621584   0.139   7.439   6.645  0.0521 -0.9591 -3.6305
   60MOL   H22721585   0.091   7.540   6.505 -2.8589 -0.1992  1.5847
   60MOL   H22821586   0.105   7.734   6.676 -2.2639  1.7102  2.8148
   60MOL   H22921587   0.130   7.605   6.792  0.2411  1.4577 -0.0933
   60MOL   H23021588   7.743   7.662   6.810  1.8629 -0.4885  1.0758
   60MOL   H23121589   7.742   7.521   6.709 -2.5358  0.0985  1.1320
   60MOL   H23221590   7.711   7.657   6.521  0.9842 -0.5944  1.1469
   60MOL   H23321591   7.749   7.807   6.596 -2.5526  1.1921 -1.9026
   60MOL   H23421592   7.489   7.643   6.654  0.2398 -0.2506 -0.3754
   60MOL   H23521593   7.526   7.772   6.747 -2.3502 -2.7119  0.5703
   60MOL   C23621594   7.477   0.101   6.563 -0.1213  0.1892  0.4710
   60MOL   O23721595   7.518   0.151   6.669 -0.3800 -0.5166  0.3863
   60MOL   C23821596   7.411   0.165   6.439 -0.1566 -0.2207 -0.2414
   60MOL   C23921597   7.384   0.311   6.460 -0.5716  0.7534 -0.0356
   60MOL   C24021598   7.507   0.398   6.463 -0.5183 -0.3635 -0.1513
   60MOL   C24121599   7.470   0.554   6.460 -0.4733 -0.1277  0.5380
   60MOL   C24221600   7.596   0.643   6.439 -0.1881  0.5808 -0.3363
   60MOL   O24321601   7.541   0.774   6.411  0.1116  0.0685 -0.3559
   60MOL   H24421602   7.323   0.103   6.420 -0.8430  1.4481 -2.7700
   60MOL   H24521603   7.478   0.156   6.354 -1.0950  1.0757 -1.1455
   60MOL   H24621604   7.329   0.323   6.554 -2.0447 -1.8309 -0.5336
   60MOL   H24721605   7.313   0.345   6.384 -0.5053  0.8145 -0.0700
   60MOL   H24821606   7.575   0.371   6.382  0.6092  2.8435 -0.3492
   60MOL   H24921607   7.561   0.368   6.553 -1.2440 -2.9026 -0.5177
   60MOL   H25021608   7.429   0.584   6.557 -0.1730  1.5354  0.1650
   60MOL   H25121609   7.390   0.572   6.389  1.9324  0.5008 -2.0868
   60MOL   H25221610   7.656   0.635   6.530 -0.1155 -1.7417 -0.5500
   60MOL   H25321611   7.661   0.607   6.359  2.0057  1.4252  1.0127
   60MOL   C25421612   7.585   0.837   6.303 -0.2801  0.2784 -0.1479
   60MOL   O25521613   7.679   0.801   6.227 -0.2422  0.2293  0.0529
   60MOL   C25621614   7.513   0.968   6.265 -0.2625  0.6760  0.5302
   60MOL   C25721615   7.613   1.086   6.291  0.2963 -0.2031 -0.1488
   60MOL   C25821616   7.674   1.103   6.429  0.2938 -0.2077 -0.4679
   60MOL   C25921617   7.777   1.208   6.435  0.0250  0.2105  0.0814
   60MOL   C26021618   0.021   1.188   6.560 -0.1205  0.0172  0.0562
   60MOL   O26121619   7.784   1.203   6.675  0.2061 -0.2981  0.0422
   60MOL   H26221620   7.418   0.974   6.317 -0.4145  1.0964  0.2124
   60MOL   H26321621   7.490   0.966   6.158  0.1614  0.6246  0.4364
   60MOL   H26421622   7.566   1.182   6.270  1.2314  0.3827  0.3524
   60MOL   H26521623   7.696   1.078   6.221  0.6139 -0.1607  0.2174
   60MOL   H26621624   7.709   1.005   6.462 -0.6057  0.2020  1.7895
   60MOL   H26721625   7.590   1.123   6.495 -0.5447 -0.3486 -1.4686
   60MOL   H26821626   7.726   1.304   6.426 -0.1106  0.3250  1.8779
   60MOL   H26921627   7.840   1.196   6.347 -0.4074  2.4535 -0.5522
   60MOL   H27021628   0.063   1.087   6.560  0.1714  0.1399 -0.4338
   60MOL   H27121629   0.100   1.262   6.574  0.0063 -0.1638  0.3167
   60MOL   C27221630   7.750   1.320   6.738  0.1440  0.2670  0.8022
   60MOL   O27321631   7.777   1.429   6.688 -0.6415 -0.3714  0.2296
   60MOL   C27421632   7.665   1.314   6.867 -0.0722 -0.2849  0.6627
   60MOL   C27521633   7.751   1.253   6.982 -0.9525  0.1299  0.1248
   60MOL   C27621634   7.672   1.215   7.109  0.0968  0.5929 -0.1147
   60MOL   C27721635   7.773   1.169   7.222  0.2382 -0.4153  0.6951
   60MOL   C27821636   7.711   1.141   7.354  0.1993  0.1400  0.0485
   60MOL   O27921637   7.652   1.008   7.358 -0.6131  0.4450  0.0946
   60MOL   H28021638   7.569   1.262   6.865 -0.8891  1.1025  2.4351
   60MOL   H28121639   7.641   1.419   6.885 -0.0913 -0.1953  0.1137
   60MOL   H28221640   7.826   1.329   7.003 -0.3043 -0.2528 -0.7292
   60MOL   H28321641   7.800   1.164   6.942  0.3555  0.9691 -0.1537
   60MOL   H28421642   7.594   1.141   7.089 -1.4373  1.3660  2.7797
   60MOL   H28521643   7.615   1.299   7.148  0.1952  0.6267 -0.0415
   60MOL   H28621644   0.005   1.246   7.228 -1.1199  1.0561 -0.4883
   60MOL   H28721645   7.826   1.079   7.189 -0.1221  0.3244 -2.0553
   60MOL   H28821646   7.788   1.144   7.432  1.1079 -1.9117 -0.7175
   60MOL   H28921647   7.640   1.222   7.373 -0.1516 -0.2639  0.4789
   60MOL   C29021648   7.518   1.003   7.364 -0.0875  0.1106  0.4924
   60MOL   O29121649   7.438   1.091   7.395 -0.4971 -0.2272 -0.2004
   60MOL   C29221650   7.476   0.862   7.321  0.1303 -0.7530 -0.7569
   60MOL   C29321651   7.325   0.851   7.283 -0.9504 -0.0989  0.4775
   60MOL   C29421652   7.262   0.922   7.160  0.0944  0.0272 -0.7908
   60MOL   C29521653   7.110   0.907   7.161 -0.5814 -0.6939  0.2114
   60MOL   C29621654   7.068   0.767   7.118 -0.5342 -0.0983 -0.2979
   60MOL   O29721655   6.925   0.769   7.119  0.7587 -0.2422  0.0753
   60MOL   H29821656   7.503   0.788   7.396 -0.6348 -1.2271 -0.9414
   60MOL   H29921657   7.542   0.833   7.239  0.8691  1.7610 -1.1036
   60MOL   H30021658   7.274   0.878   7.376  1.2288 -0.3780  1.8038
   60MOL   H30121659   7.310   0.744   7.279 -0.4356 -0.1872  0.8241
   60MOL   H30221660   7.303   0.884   7.067 -0.5332  1.7636 -1.7893
   60MOL   H30321661   7.291   1.027   7.165  1.6778 -0.4645  1.2793
   60MOL   H30421662   7.077   0.981   7.089  0.6525  0.3337  0.6778
   60MOL   H30521663   7.067   0.936   7.258 -1.8004 -2.1062  0.1146
   60MOL   H30621664   7.111   0.748   7.019  0.9674 -1.8873  0.6534
   60MOL   H30721665   7.114   0.685   7.172  1.3371 -0.5660 -2.5090
   60MOL   C30821666   6.861   0.649   7.119  0.0410  0.1533  0.5419
   60MOL   O30921667   6.913   0.539   7.104  0.0403 -0.3128 -0.6707
   60MOL   C31021668   6.709   0.657   7.137  0.6080 -0.0929  0.1706
   60MOL   C31121669   6.636   0.761   7.054 -0.2803  0.2585 -0.1412
   60MOL   C31221670   6.495   0.710   7.011 -0.5128 -0.0678  0.5920
   60MOL   C31321671   6.425   0.801   6.906 -0.1052  0.4359 -0.0832
   60MOL   C31421672   6.496   0.821   6.777  0.7839  0.1885 -0.2957
   60MOL   O31521673   6.506   0.705   6.693  0.0313  0.7246  0.7322
   60MOL   H31621674   6.689   0.674   7.243 -1.9445  0.3183 -0.3387
   60MOL   H31721675   6.685   0.556   7.106 -0.5885  0.2035  0.0892
   60MOL   H31821676   6.692   0.784   6.963 -0.4469 -2.8251 -1.0919
   60MOL   H31921677   6.616   0.849   7.115  1.4410  0.2712  0.4229
   60MOL   H32021678   6.427   0.694   7.094  2.1652 -1.6834  2.5318
   60MOL   H32121679   6.508   0.610   6.969  0.0057  0.5632 -0.8097
   60MOL   H32221680   6.399   0.902   6.939 -1.1309  1.5934 -4.1709
   60MOL   H32321681   6.335   0.746   6.879  0.2161  0.5098 -1.3425
   60MOL   H32421682   6.442   0.905   6.732 -0.4860 -0.5717 -0.2130
   60MOL   H32521683   6.600   0.853   6.783  0.9766 -0.1520 -1.6553
   60MOL   C32621684   6.421   0.693   6.592 -0.5213 -0.3631  0.0905
   60MOL   O32721685   6.328   0.769   6.559 -0.3520  0.0570  0.0012
   60MOL   C32821686   6.442   0.565   6.519 -0.0577  0.5377  0.3158
   60MOL   C32921687   6.355   0.525   6.393  0.1863 -0.3647  0.0227
   60MOL   C33021688   6.343   0.625   6.274  0.2918  0.4378  0.7711
   60MOL   C33121689   6.238   0.582   6.168 -0.3469  0.1432  0.8546
   60MOL   C33221690   6.222   0.681   6.053 -0.1187 -0.6850 -0.1811
   60MOL   O33321691   6.168   0.618   5.937 -0.0365  0.4663 -0.3406
   60MOL   H33421692   6.465   0.488   6.592  1.8036 -2.1799 -2.9833
   60MOL   H33521693   6.538   0.586   6.471  1.4230 -1.8739  2.1602
   60MOL   H33621694   6.253   0.498   6.423 -1.0048  1.0646 -2.5623
   60MOL   H33721695   6.391   0.430   6.356  0.8318 -0.9423  2.0634
   60MOL   H33821696   6.443   0.647   6.237  0.8924 -2.1538  0.7919
   60MOL   H33921697   6.306   0.713   6.327  0.2368  0.3179  0.9319
   60MOL   H34021698   6.140   0.562   6.210 -1.2256  0.6352 -0.9367
   60MOL   H34121699   6.271   0.486   6.130 -1.9749  0.5921 -1.8292
   60MOL   H34221700   6.157   0.765   6.077  2.2572  1.2307 -0.2799
   60MOL   H34321701   6.322   0.723   6.038  0.5913 -2.4377 -0.4316
   60MOL   C34421702   6.181   0.668   5.819  0.1147  0.8149 -0.1858
   60MOL   O34521703   6.251   0.762   5.793  0.5905 -0.7988  0.4323
   60MOL   C34621704   6.105   0.588   5.711 -0.3903  0.0895  0.1199
   60MOL   C34721705   5.956   0.625   5.701  0.3215  1.2810  0.1640
   60MOL   C34821706   5.874   0.565   5.812  0.1128  0.1399 -0.4564
   60MOL   C34921707   5.716   0.568   5.795  0.6343  0.1345 -0.5179
   60MOL   C35021708   5.651   0.468   5.702 -1.0469 -0.1336 -0.0014
   60MOL   O35121709   5.514   0.478   5.711  0.1461 -0.6907  0.4837
   60MOL   H35221710   6.117   0.482   5.730 -2.8680 -0.5641 -1.7345
   60MOL   H35321711   6.154   0.588   5.613 -0.0336 -0.4396  0.2956
   60MOL   H35421712   5.915   0.588   5.608  0.9217  0.6170  0.1528
   60MOL   H35521713   5.935   0.732   5.709 -1.5548  0.9984 -0.7733
   60MOL   H35621714   5.895   0.612   5.909  1.3724  0.0008 -0.6468
   60MOL   H35721715   5.916   0.465   5.816 -1.7875 -0.7933 -2.7620
   60MOL   H35821716   5.690   0.665   5.752 -0.6132  0.5632  1.1410
   60MOL   H35921717   5.662   0.561   5.890  1.2272 -0.7452 -0.2342
   60MOL   H36021718   5.688   0.492   5.603 -1.5116  1.7937  0.2681
   60MOL   H36121719   5.687   0.367   5.725  3.0535  0.6773 -2.4160
   60MOL   H36221720   5.474   0.395   5.731 -1.1764  0.6612  3.7480
   61MOL     C121721   6.966   5.640   5.422 -0.0822 -0.4887 -0.1017
   61MOL     O221722   7.000   5.740   5.492  0.0415  0.1380 -0.6087
   61MOL     C321723   6.819   5.610   5.394  0.3230 -1.0571  0.3040
   61MOL     C421724   6.731   5.723   5.447  0.6970 -0.3144 -0.1319
   61MOL     C521725   6.703   5.728   5.595  0.1403 -0.0833  0.2579
   61MOL     C621726   6.641   5.862   5.641  0.1516  0.0613  0.4283
   61MOL     C721727   6.557   5.847   5.767 -1.2385  0.1268 -0.1202
   61MOL     O821728   6.487   5.966   5.794 -0.2671  0.6074  0.1528
   61MOL     H921729   6.791   5.511   5.430  0.1783 -0.6355  1.3653
   61MOL    H1021730   6.802   5.599   5.287 -0.4994 -0.7682  0.3956
   61MOL    H1121731   6.633   5.721   5.400 -0.1511 -1.9182  1.6339
   61MOL    H1221732   6.774   5.821   5.426 -1.3624  0.6991  0.2420
   61MOL    H1321733   6.799   5.720   5.646 -0.1919 -0.1801  0.8766
   61MOL    H1421734   6.642   5.644   5.629 -0.1632  0.5647  1.3414
   61MOL    H1521735   6.582   5.888   5.553  0.4579 -0.8079 -0.0436
   61MOL    H1621736   6.718   5.937   5.655  1.4875 -1.1403 -0.3368
   61MOL    H1721737   6.488   5.763   5.767 -2.5926  1.2146 -0.1064
   61MOL    H1821738   6.616   5.827   5.856  0.5283 -3.0176 -1.9057
   61MOL    H1921739   7.033   5.574   5.367  0.4444  0.5163 -0.6748
   61MOL    C2021740   6.365   5.962   5.848  0.0162 -0.6244  0.0048
   61MOL    O2121741   6.294   5.862   5.868 -0.1633 -0.1286 -0.2129
   61MOL    C2221742   6.315   6.104   5.873 -0.0968 -0.8906  0.3809
   61MOL    C2321743   6.179   6.122   5.808  0.2240 -0.2600  0.0819
   61MOL    C2421744   6.128   6.262   5.824 -0.0531 -0.2578 -0.2255
   61MOL    C2521745   6.088   6.305   5.964 -0.2129  0.2031 -0.3182
   61MOL    C2621746   5.952   6.243   5.996  0.0325 -0.5770  0.6531
   61MOL    O2721747   5.922   6.299   6.122 -0.0595  0.6197 -0.3278
   61MOL    H2821748   6.384   6.178   5.832 -1.2079 -0.6750 -1.1575
   61MOL    H2921749   6.298   6.109   5.980 -2.8211  0.6088 -0.0490
   61MOL    H3021750   6.105   6.057   5.856  0.8053 -0.6885  0.3996
   61MOL    H3121751   6.188   6.099   5.702  0.2224 -2.4840  0.5386
   61MOL    H3221752   6.043   6.276   5.756 -1.0573 -2.0848  0.6295
   61MOL    H3321753   6.193   6.337   5.778  1.7687 -1.9167 -0.3703
   61MOL    H3421754   6.078   6.413   5.968 -0.8589  0.1534 -0.6783
   61MOL    H3521755   6.168   6.276   6.032  0.2678  2.5789  0.1659
   61MOL    H3621756   5.876   6.269   5.922 -0.1203 -0.2173  0.9385
   61MOL    H3721757   5.936   6.136   6.006 -2.2013 -0.4804 -1.4924
   61MOL    C3821758   5.835   6.402   6.139 -0.0496 -0.7669 -0.0504
   61MOL    O3921759   5.775   6.456   6.044  0.5590 -0.2924  0.4798
   61MOL    C4021760   5.822   6.445   6.286 -0.0078  0.3610  0.2132
   61MOL    C4121761   5.745   6.580   6.299  0.1918  0.2316  0.7221
   61MOL    C4221762   5.732   6.641   6.440 -0.3584  0.4027 -0.1773
   61MOL    C4321763   5.642   6.760   6.449  0.1419  0.5797  0.0192
   61MOL    C4421764   5.643   6.845   6.577 -0.3510 -0.1789  0.2497
   61MOL    O4521765   5.523   6.927   6.584  0.3478  0.0863 -0.3129
   61MOL    H4621766   5.922   6.448   6.328 -0.1054 -2.6492  0.7521
   61MOL    H4721767   5.773   6.361   6.334  0.4702 -0.1933 -0.2574
   61MOL    H4821768   5.642   6.570   6.265  0.4291  0.9198 -0.2254
   61MOL    H4921769   5.785   6.649   6.225 -0.8826  0.2912  0.1794
   61MOL    H5021770   5.827   6.664   6.488  1.1576 -0.3660 -2.6986
   61MOL    H5121771   5.684   6.567   6.503  0.4294 -0.4754 -0.5804
   61MOL    H5221772   5.539   6.737   6.422 -0.0941  0.7359  0.7761
   61MOL    H5321773   5.668   6.832   6.372  0.9843 -1.0116 -1.1982
   61MOL    H5421774   5.649   6.786   6.669  2.3782  0.6515  0.6354
   61MOL    H5521775   5.729   6.911   6.579 -0.1770 -0.4273  1.9136
   61MOL    C5621776   5.532   7.024   6.678 -0.1041 -0.1000  0.2461
   61MOL    O5721777   5.599   7.030   6.782  0.1549 -0.5343 -0.5223
   61MOL    C5821778   5.433   7.133   6.655  0.1423  0.0514 -1.0856
   61MOL    C5921779   5.487   7.273   6.696 -0.6372  0.5348  0.1977
   61MOL    C6021780   5.374   7.367   6.717  0.8458  0.3991 -0.0792
   61MOL    C6121781   5.435   7.506   6.750  0.1950  0.4219  0.5643
   61MOL    C6221782   5.321   7.598   6.782 -0.1999 -0.1120  0.2232
   61MOL    O6321783   5.389   7.722   6.809  0.1902 -0.6167 -0.1713
   61MOL    H6421784   5.353   7.105   6.723  1.7035  3.2110  2.2359
   61MOL    H6521785   5.381   7.120   6.560  0.2444 -1.3823 -0.9515
   61MOL    H6621786   5.546   7.304   6.609 -2.0074  3.4489  0.2511
   61MOL    H6721787   5.554   7.276   6.782 -2.5656 -1.9239  1.8227
   61MOL    H6821788   5.314   7.330   6.800  2.2425 -1.4124  0.1580
   61MOL    H6921789   5.304   7.376   6.635 -0.3096 -0.7062  0.7655
   61MOL    H7021790   5.502   7.540   6.671  0.9264 -0.8686  0.6123
   61MOL    H7121791   5.506   7.494   6.832 -0.7747  0.4709  1.4117
   61MOL    H7221792   5.251   7.619   6.701 -1.6609 -1.0576  1.2266
   61MOL    H7321793   5.265   7.565   6.869 -3.0634 -1.5009 -2.0657
   61MOL    C7421794   5.331   7.814   6.894  0.3270  0.1829 -0.0082
   61MOL    O7521795   5.218   7.805   6.935 -0.1921  0.2367  0.0490
   61MOL    C7621796   5.431   0.077   6.936  0.0380 -0.6283  0.7160
   61MOL    C7721797   5.492   0.143   6.809  0.2085  0.0202  0.0848
   61MOL    C7821798   5.579   0.260   6.856  1.1157  0.1627  0.6097
   61MOL    C7921799   5.635   0.350   6.741  0.2222  0.6305 -0.0121
   61MOL    C8021800   5.744   0.293   6.642 -0.4457 -0.6614  0.6459
   61MOL    O8121801   5.682   0.186   6.571 -0.0962  0.7827 -0.2786
   61MOL    H8221802   5.512   0.027   6.989 -0.1195 -0.3936  1.1876
   61MOL    H8321803   5.387   0.151   7.003  1.0792 -1.5746  2.4895
   61MOL    H8421804   5.416   0.175   6.738 -0.8850 -1.6650  0.4605
   61MOL    H8521805   5.546   0.066   6.753  1.6459  0.2491  1.1548
   61MOL    H8621806   5.676   0.221   6.889  1.7346  2.0500  1.0886
   61MOL    H8721807   5.532   0.315   6.938  1.4370 -0.6096  1.3211
   61MOL    H8821808   5.675   0.438   6.790  0.1851  0.3188  0.5770
   61MOL    H8921809   5.556   0.377   6.670 -0.0790 -1.3420 -0.4645
   61MOL    H9021810   5.782   0.370   6.575  2.4494 -2.6230 -0.0109
   61MOL    H9121811   5.839   0.264   6.687  0.5509  0.4502 -0.7073
   61MOL    C9221812   5.748   0.106   6.490  0.8916  0.4439 -1.3083
   61MOL    O9321813   5.868   0.108   6.474 -0.0726 -0.0688  0.0947
   61MOL    C9421814   5.659   0.002   6.416  0.2444  0.2423 -0.0591
   61MOL    C9521815   5.712   7.808   6.273  0.2724 -0.0367  0.3173
   61MOL    C9621816   5.649   0.055   6.176 -0.3900 -0.0740  0.3801
   61MOL    C9721817   5.673   0.001   6.034 -0.0700  0.3702  0.2509
   61MOL    C9821818   5.624   0.094   5.921 -0.1496  0.1305 -0.3205
   61MOL    O9921819   5.488   0.123   5.917  0.3984  0.4564  0.2583
   61MOL   H10021820   5.558   0.043   6.414 -0.4202 -1.3890 -0.2133
   61MOL   H10121821   5.674   7.759   6.479  1.9767  1.0311  0.6773
   61MOL   H10221822   5.672   7.710   6.250  0.3143 -0.2926  1.3493
   61MOL   H10321823   5.820   7.820   6.265  0.2226 -0.6386 -1.4621
   61MOL   H10421824   5.695   0.153   6.187 -0.9817  0.1770  0.6555
   61MOL   H10521825   5.544   0.063   6.204 -0.4723 -0.7478  0.2762
   61MOL   H10621826   5.636   7.743   6.034 -0.6713  0.5835  0.8081
   61MOL   H10721827   5.780   7.830   6.021  0.0298  0.3575  1.0601
   61MOL   H10821828   5.683   0.185   5.931  1.2008 -0.8661  0.8712
   61MOL   H10921829   5.644   0.048   5.824  1.0999 -0.3867  0.1789
   61MOL   C11021830   5.427   0.158   5.800  0.4760  0.1253  1.1496
   61MOL   O11121831   5.483   0.189   5.698  0.5120 -0.0180  0.0424
   61MOL   C11221832   5.276   0.142   5.803  0.2947  0.1722 -0.8580
   61MOL   C11321833   5.190   0.201   5.698 -0.8991  0.6121 -0.2114
   61MOL   C11421834   5.044   0.201   5.734  0.4273 -0.0838  0.9628
   61MOL   C11521835   5.006   0.324   5.812 -0.1304 -0.5008 -0.5818
   61MOL   C11621836   4.851   0.340   5.838  0.4130 -0.7078 -0.2916
   61MOL   O11721837   4.815   0.239   5.933 -0.4935 -0.1101  0.6852
   61MOL   H11821838   5.240   0.192   5.893 -0.2969  1.1986 -1.6664
   61MOL   H11921839   5.251   0.036   5.816 -0.4671  0.4817  0.2549
   61MOL   H12021840   5.204   0.136   5.612 -1.2234 -2.2460  1.8317
   61MOL   H12121841   5.227   0.301   5.676  1.1229  0.1883  1.0538
   61MOL   H12221842   5.015   0.106   5.778 -0.3229  0.4882  1.7306
   61MOL   H12321843   4.989   0.216   5.640  0.1980 -0.1979  1.0778
   61MOL   H12421844   5.028   0.412   5.752  1.3556 -0.8463 -0.5392
   61MOL   H12521845   5.074   0.326   5.897  0.2660 -1.0065 -0.8810
   61MOL   H12621846   4.845   0.441   5.878  4.1378 -0.6656  0.4024
   61MOL   H12721847   4.791   0.314   5.751  1.1888 -0.5467 -0.8829
   61MOL   C12821848   4.686   0.241   5.977 -0.0264 -0.1873  0.1011
   61MOL   O12921849   4.602   0.331   5.956 -0.4940  0.3052 -0.1998
   61MOL   C13021850   4.637   0.126   6.066  0.0708  0.4184  0.0664
   61MOL   C13121851   4.666   0.151   6.210 -0.5323 -0.1097  0.3071
   61MOL   C13221852   4.603   0.042   6.290 -0.4810 -0.1109  0.4507
   61MOL   C13321853   4.644   0.047   6.444  0.2444  0.3424 -1.0707
   61MOL   C13421854   4.567   7.793   6.526 -0.0358 -1.0504  0.3437
   61MOL   O13521855   4.612   7.663   6.496 -0.1069  0.1925  0.0641
   61MOL   H13621856   4.685   0.035   6.030 -1.5000 -0.0926 -0.7695
   61MOL   H13721857   4.529   0.117   6.057  0.3195 -1.6576 -1.2276
   61MOL   H13821858   4.641   0.253   6.239  1.6845  0.8481 -1.0198
   61MOL   H13921859   4.772   0.145   6.236 -0.0047 -0.5478 -1.8953
   61MOL   H14021860   4.637   7.796   6.241  1.6905  0.8576  0.1219
   61MOL   H14121861   4.496   0.025   6.276 -0.3059 -0.8884  0.0372
   61MOL   H14221862   4.646   0.149   6.483 -0.0949  0.3222 -0.9958
   61MOL   H14321863   4.750   0.031   6.461  0.6760  1.6112 -2.4345
   61MOL   H14421864   4.557   7.823   6.630 -2.5479 -0.1155 -0.1239
   61MOL   H14521865   4.458   7.795   6.514  0.2025  2.6612 -1.6602
   61MOL   C14621866   4.619   7.576   6.592  0.3696 -0.2964  0.0702
   61MOL   O14721867   4.579   7.594   6.703  0.1443  0.0510  0.3179
   61MOL   C14821868   4.669   7.440   6.551 -0.2170 -0.1198 -0.1939
   61MOL   C14921869   4.807   7.442   6.477 -0.3818  0.7311  0.2579
   61MOL   C15021870   4.796   7.480   6.329  0.1510  0.1599 -0.0621
   61MOL   C15121871   4.729   7.387   6.231  0.1480  0.0116  0.3305
   61MOL   C15221872   4.754   7.413   6.084  0.1416  1.1971 -0.0717
   61MOL   O15321873   4.723   7.290   6.014  0.0793  0.2723 -0.0316
   61MOL   H15421874   4.600   7.414   6.471  0.6785  0.0603 -1.0419
   61MOL   H15521875   4.661   7.373   6.637  2.2199  0.1550  0.2929
   61MOL   H15621876   4.848   7.341   6.478 -1.2706  0.3519 -0.7960
   61MOL   H15721877   4.874   7.509   6.531  0.6609 -1.1156  1.2925
   61MOL   H15821878   4.901   7.485   6.303  0.2701  0.7106  0.5113
   61MOL   H15921879   4.761   7.583   6.319 -0.1173  0.0077 -0.7200
   61MOL   H16021880   4.625   7.374   6.261  0.1538  2.4567  1.5245
   61MOL   H16121881   4.778   7.296   6.265 -1.2430  0.6407  4.2668
   61MOL   H16221882   4.686   7.490   6.047  1.1735  2.3443  0.4096
   61MOL   H16321883   4.855   7.441   6.056  0.3174  1.5649  0.9187
   61MOL   C16421884   4.728   7.299   5.883 -0.5078 -0.5607 -0.5232
   61MOL   O16521885   4.769   7.395   5.820  0.7758  0.0438 -0.1062
   61MOL   C16621886   4.682   7.171   5.824  0.0057  0.2117  0.0604
   61MOL   C16721887   4.744   7.131   5.688 -0.0538 -0.2881 -0.1482
   61MOL   C16821888   4.683   7.207   5.562  0.1810  0.1922 -0.6267
   61MOL   C16921889   4.765   7.171   5.438  0.2221  0.4088  0.5924
   61MOL   C17021890   4.704   7.244   5.317 -0.2750 -0.2642  0.1694
   61MOL   O17121891   4.700   7.388   5.319  0.3544 -0.4630 -0.3989
   61MOL   H17221892   4.574   7.184   5.816  0.0607  0.6261 -0.0083
   61MOL   H17321893   4.698   7.101   5.907  0.6022  2.0332  1.5293
   61MOL   H17421894   4.733   7.024   5.670  1.1770 -0.3213 -0.7354
   61MOL   H17521895   4.847   7.166   5.697 -0.2396  0.4353 -0.8056
   61MOL   H17621896   4.679   7.314   5.581  1.2568  0.0055  0.7304
   61MOL   H17721897   4.582   7.168   5.545 -0.2265  2.2315 -3.1789
   61MOL   H17821898   4.765   7.065   5.414  1.1490  0.0821  1.9491
   61MOL   H17921899   4.865   7.211   5.459 -0.8848  2.1083  2.8927
   61MOL   H18021900   4.746   7.212   5.222  0.1251  0.4431  0.0976
   61MOL   H18121901   4.601   7.213   5.303 -0.3871  0.9725 -1.9912
   61MOL   C18221902   4.616   7.455   5.234 -0.1601  0.0593 -0.3262
   61MOL   O18321903   4.534   7.396   5.162  0.4063  0.0473 -0.1452
   61MOL   C18421904   4.645   7.610   5.231  0.4179  0.1948  0.4246
   61MOL   C18521905   4.587   7.686   5.111 -0.7362  0.2978 -0.7631
   61MOL   C18621906   4.543   7.825   5.148 -0.8125 -0.2604  0.2596
   61MOL   C18721907   4.448   0.034   5.049 -0.4435 -0.4304  0.0088
   61MOL   C18821908   4.364   0.146   5.107  0.4009 -0.1483 -0.2329
   61MOL   O18921909   4.268   0.191   5.017 -0.4498 -0.2440  0.2847
   61MOL   H19021910   4.752   7.632   5.233  0.4619  0.0135  0.0103
   61MOL   H19121911   4.605   7.646   5.326  1.4218 -0.7977  1.2329
   61MOL   H19221912   4.499   7.632   5.076  1.0315 -3.1997 -0.1187
   61MOL   H19321913   4.662   7.690   5.033  0.5598  2.8023  0.5470
   61MOL   H19421914   4.625   0.049   5.168 -1.1906 -0.3432  2.1895
   61MOL   H19521915   4.492   7.826   5.245  0.4621  0.2973  0.9358
   61MOL   H19621916   4.384   7.795   5.017  0.5568 -1.4658  0.6711
   61MOL   H19721917   4.506   0.065   4.962  2.1816 -2.4464  0.9875
   61MOL   H19821918   4.325   0.130   5.208 -2.3854 -1.0733 -1.4054
   61MOL   H19921919   4.432   0.229   5.123  1.7153 -0.7293 -2.6288
   61MOL   C20021920   4.140   0.140   5.020 -0.8004  0.8927 -0.1600
   61MOL   O20121921   4.093   0.061   5.105  0.0441  0.5039  0.1045
   61MOL   C20221922   4.057   0.186   4.901 -0.0673  0.2246  0.4938
   61MOL   C20321923   4.040   0.339   4.910 -0.5336  0.7841 -0.3258
   61MOL   C20421924   3.948   0.379   5.026 -0.1971 -0.0128  0.4225
   61MOL   C20521925   3.935   0.530   5.040  0.0858  0.0419 -0.6686
   61MOL   C20621926   3.822   0.570   5.141  0.1518 -1.0688  0.0925
   61MOL   O20721927   3.695   0.500   5.102 -0.4509  0.1919 -0.3534
   61MOL   H20821928   3.965   0.132   4.879 -0.0817  0.8446 -1.0670
   61MOL   H20921929   4.112   0.166   4.809 -0.4482  0.2468  0.2630
   61MOL   H21021930   4.006   0.385   4.818 -0.0879  1.8537  0.0352
   61MOL   H21121931   4.138   0.386   4.920  0.3254 -1.3354  1.9119
   61MOL   H21221932   3.969   0.331   5.121 -0.4382 -0.7029  0.1281
   61MOL   H21321933   3.854   0.337   4.988  0.5313 -0.0436 -1.4064
   61MOL   H21421934   3.918   0.574   4.942 -0.8918 -0.4793 -0.7362
   61MOL   H21521935   4.034   0.568   5.066  0.4203 -0.3752 -1.3072
   61MOL   H21621936   3.849   0.547   5.244 -2.1776  0.6830  1.1640
   61MOL   H21721937   3.799   0.677   5.142  0.4546 -0.9176  4.8027
   61MOL   C21821938   3.607   0.549   5.004 -0.3241  0.0985 -0.4281
   61MOL   O21921939   3.616   0.658   4.945 -0.0065 -0.0495 -0.0547
   61MOL   C22021940   3.490   0.452   4.982  0.0881 -0.4093 -0.0954
   61MOL   C22121941   3.532   0.313   4.924 -0.0148  0.1024 -0.7787
   61MOL   C22221942   3.604   0.315   4.782 -0.0625  0.0172  0.2073
   61MOL   C22321943   3.629   0.167   4.728 -0.3123 -0.9331 -0.1984
   61MOL   C22421944   3.680   0.164   4.589 -0.1338 -0.1665  0.1728
   61MOL   O22521945   3.698   0.029   4.556 -0.2698  0.2202 -0.8063
   61MOL   H22621946   3.408   0.497   4.926  0.2134  1.1377  0.9063
   61MOL   H22721947   3.438   0.428   5.075  1.0045  1.7384  1.0234
   61MOL   H22821948   3.443   0.250   4.917 -0.5095  0.5723  1.0961
   61MOL   H22921949   3.592   0.266   5.002  0.0653 -1.0690 -1.5326
   61MOL   H23021950   3.697   0.371   4.794 -0.1494  0.1523  0.2524
   61MOL   H23121951   3.539   0.367   4.712  0.8344 -0.8630 -1.3088
   61MOL   H23221952   3.534   0.115   4.738 -1.8299  1.4071 -1.9144
   61MOL   H23321953   3.702   0.124   4.797  0.4282 -0.1997 -0.5220
   61MOL   H23421954   3.599   0.196   4.522  0.6785 -1.6746 -1.5700
   61MOL   H23521955   3.774   0.217   4.573 -0.2291  0.1901  0.8033
   61MOL   C23621956   3.813   7.813   4.582  0.3285 -0.9507 -0.1063
   61MOL   O23721957   3.919   0.018   4.624 -0.1808 -0.3249 -0.7696
   61MOL   C23821958   3.820   7.677   4.519  0.2724  0.4141  0.6254
   61MOL   C23921959   3.859   7.681   4.373  0.2430 -0.1640 -0.3159
   61MOL   C24021960   4.009   7.717   4.342 -0.1665 -0.8780  0.1228
   61MOL   C24121961   4.055   7.677   4.197  0.1162 -1.2628 -1.0070
   61MOL   C24221962   4.169   7.757   4.145  1.5663 -0.6548  0.8720
   61MOL   O24321963   4.132   0.049   4.132 -0.0688  0.5100  0.2882
   61MOL   H24421964   3.725   7.623   4.514  0.4677 -0.0146  1.4090
   61MOL   H24521965   3.897   7.619   4.570  1.2036  0.1137 -1.1015
   61MOL   H24621966   3.796   7.746   4.311  2.9542  1.2811 -1.6368
   61MOL   H24721967   3.825   7.591   4.322 -0.0933  1.0938 -2.3828
   61MOL   H24821968   4.079   7.679   4.416  0.0301 -2.1109 -0.6767
   61MOL   H24921969   4.018   7.825   4.344 -1.2592 -0.7956  0.6605
   61MOL   H25021970   3.982   7.696   4.118  1.3161  0.5785 -1.6996
   61MOL   H25121971   4.089   7.573   4.193 -0.9259 -1.7811  2.1051
   61MOL   H25221972   4.262   7.743   4.200  2.2038 -1.3309 -0.3344
   61MOL   H25321973   4.193   7.719   4.045 -1.5985 -1.8157  0.5089
   61MOL   C25421974   4.075   0.094   4.011 -0.8509 -0.2049 -0.4346
   61MOL   O25521975   4.051   0.024   3.913 -0.2626 -0.4153  0.0195
   61MOL   C25621976   4.052   0.249   4.005  0.7844  0.4393 -0.1088
   61MOL   C25721977   3.928   0.291   4.094  0.4778 -0.0198  0.0404
   61MOL   C25821978   3.791   0.280   4.036 -0.2339 -0.1542 -0.2440
   61MOL   C25921979   3.671   0.333   4.113  0.4521 -0.7879  0.5600
   61MOL   C26021980   3.613   0.234   4.220  0.1684 -0.1750 -0.8305
   61MOL   O26121981   3.476   0.283   4.247  0.0653 -0.0211 -0.4084
   61MOL   H26221982   4.043   0.279   3.900 -1.1367 -0.7552 -0.3194
   61MOL   H26321983   4.141   0.298   4.044  1.3091 -0.9632  0.4886
   61MOL   H26421984   3.944   0.396   4.119  0.3307 -0.2756  1.2360
   61MOL   H26521985   3.943   0.249   4.193  0.2906  2.5665  1.2160
   61MOL   H26621986   3.766   0.179   4.004 -1.4769  0.3093 -0.7820
   61MOL   H26721987   3.804   0.346   3.950  2.1390 -0.2811 -0.0150
   61MOL   H26821988   3.593   0.356   4.039  1.2064 -0.8546 -0.2629
   61MOL   H26921989   3.695   0.430   4.156 -0.8001  1.2674 -3.0716
   61MOL   H27021990   3.622   0.133   4.182 -0.3332 -0.7491  0.5298
   61MOL   H27121991   3.682   0.224   4.305  1.4144  0.7205 -1.7055
   61MOL   C27221992   3.462   0.371   4.348  0.4252 -0.5022 -0.9147
   61MOL   O27321993   3.554   0.420   4.416 -0.2093  0.0102 -0.1916
   61MOL   C27421994   3.317   0.416   4.379 -0.2960 -0.0724  0.7685
   61MOL   C27521995   3.269   0.369   4.517  0.4810  0.5157  0.0028
   61MOL   C27621996   3.275   0.225   4.551  0.3436  0.4772 -0.1466
   61MOL   C27721997   3.199   0.184   4.674 -0.2283  0.5078 -0.3562
   61MOL   C27821998   3.162   0.033   4.657  0.8276 -0.9255 -0.5302
   61MOL   O27921999   3.273   7.786   4.667  0.5338 -0.6979 -0.1526
   61MOL   H28022000   3.264   0.372   4.295  1.4170 -1.3996  0.3472
   61MOL   H28122001   3.304   0.523   4.362  3.6646  0.3447 -0.0402
   61MOL   H28222002   3.175   0.420   4.540 -0.6209 -0.4693 -2.1803
   61MOL   H28322003   3.337   0.411   4.591 -2.6126  6.0065  0.0409
   61MOL   H28422004   3.381   0.206   4.565  0.0335 -0.9533  0.3203
   61MOL   H28522005   3.252   0.161   4.466 -0.5107 -1.0135  1.1690
   61MOL   H28622006   3.104   0.237   4.689 -1.3672 -2.0007  1.6028
   61MOL   H28722007   3.265   0.199   4.760  0.5225  1.8865 -1.1635
   61MOL   H28822008   3.108   0.019   4.751  2.1756  2.1684  0.7691
   61MOL   H28922009   3.090   0.015   4.578  1.8302  1.9273 -2.1541
   61MOL   C29022010   3.271   7.664   4.604  0.1639  0.1984 -0.2289
   61MOL   O29122011   3.190   7.619   4.524  0.1963  0.3297 -0.2540
   61MOL   C29222012   3.385   7.579   4.649  0.5599  0.1392  0.0840
   61MOL   C29322013   3.471   7.519   4.535 -0.2493 -0.0031 -0.1207
   61MOL   C29422014   3.570   7.404   4.585 -0.1750 -0.2654 -0.0321
   61MOL   C29522015   3.651   7.351   4.466 -0.2963  0.6500  0.2767
   61MOL   C29622016   3.712   7.212   4.500 -0.6049  0.1965  0.6941
   61MOL   O29722017   3.593   7.131   4.534 -0.1995 -0.5300  0.0758
   61MOL   H29822018   3.340   7.499   4.707 -1.3822  2.4872  1.9799
   61MOL   H29922019   3.447   7.634   4.720 -0.8741  0.4606  1.1316
   61MOL   H30022020   3.534   7.596   4.492  1.1940 -0.6058  0.8917
   61MOL   H30122021   3.396   7.487   4.463 -1.3432 -1.7337  1.7252
   61MOL   H30222022   3.510   7.331   4.640 -0.5972 -1.3664 -1.9268
   61MOL   H30322023   3.648   7.451   4.645 -1.6272  3.1307 -0.6502
   61MOL   H30422024   3.735   7.417   4.444  1.0241 -1.3907 -0.9712
   61MOL   H30522025   3.588   7.348   4.376  0.9496 -1.4994 -0.5567
   61MOL   H30622026   3.769   7.157   4.425 -0.3209  1.3298  0.0743
   61MOL   H30722027   3.769   7.222   4.592 -1.9595  0.3068  1.5274
   61MOL   C30822028   3.575   7.003   4.513 -0.2060  0.0149  0.0693
   61MOL   O30922029   3.648   6.924   4.456  0.2677  0.4509 -0.4707
   61MOL   C31022030   3.443   6.953   4.565 -0.1337 -0.0103 -0.0689
   61MOL   C31122031   3.339   6.940   4.452  0.4085 -0.8866 -0.0206
   61MOL   C31222032   3.196   6.927   4.515  0.1386  0.0610 -0.3931
   61MOL   C31322033   3.166   6.785   4.578 -0.5642  0.2153  0.0664
   61MOL   C31422034   3.040   6.781   4.663 -0.9487 -0.5284  0.5165
   61MOL   O31522035   3.035   6.646   4.726 -0.1806  0.0391  0.0604
   61MOL   H31622036   3.404   7.023   4.639  1.2303  0.9485 -0.2429
   61MOL   H31722037   3.463   6.857   4.613  1.4444  0.9334  1.2263
   61MOL   H31822038   3.351   6.846   4.398  0.2370 -0.5482 -0.6522
   61MOL   H31922039   3.348   7.020   4.379 -0.1981 -0.0018  0.8457
   61MOL   H32022040   3.122   6.955   4.440 -0.1177  2.7742  0.8032
   61MOL   H32122041   3.183   7.000   4.595 -1.7226 -0.7600  0.0689
   61MOL   H32222042   3.257   6.756   4.631 -0.3868  3.0019  1.3411
   61MOL   H32322043   3.165   6.712   4.497  1.2727  1.6399 -1.2942
   61MOL   H32422044   3.026   6.869   4.726  0.0809  0.4708 -0.6349
   61MOL   H32522045   2.957   6.783   4.592 -0.1094 -2.1645 -0.5395
   61MOL   C32622046   2.986   6.545   4.652  0.2864 -0.2547  0.6541
   61MOL   O32722047   2.946   6.551   4.535  0.4343 -0.7000 -0.3452
   61MOL   C32822048   2.984   6.414   4.731 -0.1449 -0.0983  0.3045
   61MOL   C32922049   2.919   6.295   4.670  1.1197 -0.3901 -0.3991
   61MOL   C33022050   2.864   6.180   4.760  0.4164 -0.3009 -0.0895
   61MOL   C33122051   2.804   6.058   4.692 -0.7023 -0.7240 -0.1774
   61MOL   C33222052   2.753   5.947   4.783  0.3711 -0.9351 -0.2259
   61MOL   O33322053   2.862   5.914   4.869 -0.0620  0.2907  0.5287
   61MOL   H33422054   2.930   6.434   4.824 -0.8304 -1.7309  0.2616
   61MOL   H33522055   3.084   6.385   4.765 -0.1380 -0.5558 -0.1073
   61MOL   H33622056   2.992   6.256   4.598  0.7665  0.1702 -1.0713
   61MOL   H33722057   2.833   6.333   4.615 -0.6266  1.4733  3.4678
   61MOL   H33822058   2.781   6.229   4.812 -0.3537 -1.6523 -0.0212
   61MOL   H33922059   2.946   6.167   4.831 -0.7948 -0.0746  1.4068
   61MOL   H34022060   2.879   6.027   4.620  0.0119  0.3624  0.0863
   61MOL   H34122061   2.724   6.097   4.629  1.2929  2.8895 -0.6392
   61MOL   H34222062   2.664   5.978   4.837  1.8181 -1.3269  2.4482
   61MOL   H34322063   2.720   5.863   4.720 -2.0393 -1.4319  1.5998
   61MOL   C34422064   2.839   5.898   5.005 -0.6355 -0.0604 -0.0018
   61MOL   O34522065   2.730   5.918   5.062 -0.9047  0.6847  0.2888
   61MOL   C34622066   2.965   5.849   5.087 -0.2178 -0.3044  0.3541
   61MOL   C34722067   2.974   5.692   5.090 -0.4058  0.1373  0.4921
   61MOL   C34822068   3.048   5.639   4.970 -0.5071  0.2196 -0.0036
   61MOL   C34922069   3.084   5.494   4.980 -0.5062 -0.0761  0.6758
   61MOL   C35022070   3.164   5.439   4.860  0.5332 -0.0174  0.2080
   61MOL   O35122071   3.164   5.301   4.873  0.0389 -0.2263 -0.0315
   61MOL   H35222072   2.952   5.886   5.188  4.1732  3.7976 -0.4331
   61MOL   H35322073   3.062   5.881   5.050 -0.2820  0.1557  0.5828
   61MOL   H35422074   2.879   5.638   5.099  1.0310 -2.9480 -2.1473
   61MOL   H35522075   3.027   5.671   5.183 -0.6083  2.5553  1.1946
   61MOL   H35622076   3.138   5.698   4.954  1.3306 -2.7600 -0.9784
   61MOL   H35722077   2.992   5.661   4.879 -1.1452  0.1364  0.3643
   61MOL   H35822078   2.989   5.443   4.993 -0.6653 -1.0205 -3.4626
   61MOL   H35922079   3.146   5.484   5.069  0.7203  2.4875  0.1484
   61MOL   H36022080   3.119   5.461   4.763 -0.8614 -1.2467  0.5572
   61MOL   H36122081   3.260   5.491   4.869 -0.3027  1.8116 -1.1776
   61MOL   H36222082   3.235   5.254   4.832  0.7238  0.5991  0.2229
   62MOL     C122083   6.262   3.764   7.652  0.4115 -0.1037 -0.5205
   62MOL     O222084   6.337   3.865   7.647 -0.4029 -0.2728 -0.4765
   62MOL     C322085   6.238   3.688   7.518  0.3104  0.4758 -0.1804
   62MOL     C422086   6.377   3.652   7.457 -0.5970  0.2929 -0.3996
   62MOL     C522087   6.372   3.608   7.311 -0.2249 -0.1674  0.2680
   62MOL     C622088   6.307   3.463   7.298 -0.1635 -0.0763 -0.2216
   62MOL     C722089   6.228   3.449   7.172 -0.6694  0.0593 -0.5592
   62MOL     O822090   6.309   3.482   7.063 -0.0777 -0.4503  0.1618
   62MOL     H922091   6.187   3.758   7.451 -0.6898  1.0603  1.1702
   62MOL    H1022092   6.165   3.612   7.546 -0.2978  1.4887  1.0292
   62MOL    H1122093   6.427   3.580   7.521  1.8923  1.1897 -1.2417
   62MOL    H1222094   6.439   3.742   7.449  0.6943 -0.6860 -1.7225
   62MOL    H1322095   6.474   3.601   7.273  0.0200  0.3334  0.8238
   62MOL    H1422096   6.315   3.664   7.237  0.7860  1.3021  0.5934
   62MOL    H1522097   6.244   3.440   7.384 -1.0650  1.5189 -0.4388
   62MOL    H1622098   6.386   3.389   7.304  0.4917  0.8016  2.7759
   62MOL    H1722099   6.168   3.358   7.164  0.3300 -0.5322 -1.4570
   62MOL    H1822100   6.154   3.530   7.176 -0.1383  0.4539  2.4122
   62MOL    H1922101   6.225   3.729   7.749  1.7988  2.6439  1.0635
   62MOL    C2022102   6.252   3.485   6.941  0.4812  0.2184 -0.0980
   62MOL    O2122103   6.136   3.448   6.915  0.2672  0.4171  0.4302
   62MOL    C2222104   6.338   3.530   6.817 -0.7920  0.2771  0.2120
   62MOL    C2322105   6.341   3.682   6.799 -0.5165 -0.4554 -0.3459
   62MOL    C2422106   6.388   3.762   6.919  0.3467 -0.0176 -0.3467
   62MOL    C2522107   6.399   3.914   6.887 -0.5775  0.3060 -0.4939
   62MOL    C2622108   6.444   4.004   7.006  0.5412 -0.6972 -0.2837
   62MOL    O2722109   6.351   4.019   7.115 -0.5729  0.5314  0.2762
   62MOL    H2822110   6.298   3.473   6.733  2.7530 -1.0275 -0.6885
   62MOL    H2922111   6.439   3.490   6.832 -0.3061  1.5596  0.3923
   62MOL    H3022112   6.236   3.702   6.779 -0.2060  0.1974 -1.4025
   62MOL    H3122113   6.390   3.718   6.708  0.5279 -2.5108 -0.6256
   62MOL    H3222114   6.485   3.717   6.944  0.9083  1.0069 -0.6473
   62MOL    H3322115   6.311   3.753   6.996 -0.7832  1.8519 -1.2477
   62MOL    H3422116   6.312   3.953   6.835 -1.7005  0.0489  1.1485
   62MOL    H3522117   6.484   3.925   6.820  0.1717  1.4625  0.6267
   62MOL    H3622118   6.540   3.968   7.043  2.0624  1.0549 -2.3600
   62MOL    H3722119   6.469   4.101   6.964 -2.7713  0.1804 -0.3693
   62MOL    C3822120   6.390   3.993   7.245 -0.2031  0.4499 -0.1681
   62MOL    O3922121   6.505   3.965   7.283 -0.0458  0.1186 -0.0523
   62MOL    C4022122   6.288   4.037   7.344 -0.3819 -0.2772 -0.3151
   62MOL    C4122123   6.311   4.181   7.388  0.8291  0.4740 -0.1833
   62MOL    C4222124   6.216   4.228   7.499 -0.1236  0.1494  0.6515
   62MOL    C4322125   6.074   4.249   7.462  0.5054  0.4219 -0.6692
   62MOL    C4422126   5.986   4.315   7.574  0.1997 -0.4945  0.2489
   62MOL    O4522127   5.859   4.361   7.528  0.2505 -0.2326 -0.2092
   62MOL    H4622128   6.300   3.965   7.425 -0.7701  0.8271  0.7333
   62MOL    H4722129   6.191   4.010   7.304 -0.1323 -2.0835  0.2281
   62MOL    H4822130   6.298   4.244   7.300  0.3497  0.2164 -0.2976
   62MOL    H4922131   6.413   4.207   7.416  0.8075 -0.4450  0.7511
   62MOL    H5022132   6.250   4.331   7.514  2.8133 -0.5442 -0.7789
   62MOL    H5122133   6.227   4.171   7.590 -0.3097 -0.3067  0.3869
   62MOL    H5222134   6.030   4.153   7.434  3.1964 -0.5731 -1.6032
   62MOL    H5322135   6.074   4.308   7.370 -0.9861 -0.7630 -1.4614
   62MOL    H5422136   5.971   4.250   7.660 -1.2023 -0.8925 -0.2805
   62MOL    H5522137   6.037   4.404   7.607  0.8844 -0.5086 -0.7477
   62MOL    C5622138   5.755   4.292   7.529 -0.0155 -0.0212  0.3874
   62MOL    O5722139   5.750   4.175   7.567 -0.5397 -0.3288  0.2397
   62MOL    C5822140   5.636   4.366   7.479  0.1717 -0.5824  0.1554
   62MOL    C5922141   5.641   4.405   7.332  0.4075 -0.4927  0.9730
   62MOL    C6022142   5.593   4.300   7.234  0.2907 -0.0603  0.1655
   62MOL    C6122143   5.680   4.174   7.213  0.2840  0.0006 -0.2531
   62MOL    C6222144   5.627   4.088   7.093 -0.3240  0.3014  0.0904
   62MOL    O6322145   5.643   4.156   6.967 -0.1937  0.1534 -0.0832
   62MOL    H6422146   5.629   4.446   7.554 -1.8532 -0.3377 -0.2591
   62MOL    H6522147   5.552   4.298   7.495  0.6089 -1.9183 -2.9493
   62MOL    H6622148   5.737   4.445   7.301  0.3407 -1.1284 -0.0606
   62MOL    H6722149   5.574   4.491   7.328  2.1768  0.9195  1.3376
   62MOL    H6822150   5.595   4.347   7.136  0.4140  1.3005  0.7963
   62MOL    H6922151   5.490   4.270   7.254  0.8068 -1.9109  0.1402
   62MOL    H7022152   5.686   4.109   7.301 -0.3294  0.2508 -0.0195
   62MOL    H7122153   5.784   4.199   7.197  0.1175  0.9736  0.1531
   62MOL    H7222154   5.695   4.003   7.092  2.0521  2.1250  0.5649
   62MOL    H7322155   5.528   4.050   7.114  0.5139 -0.3265  3.0323
   62MOL    C7422156   5.538   4.167   6.878 -0.2680 -0.1818  0.2371
   62MOL    O7522157   5.420   4.133   6.898  0.1587 -0.6335  0.8024
   62MOL    C7622158   5.580   4.230   6.745  0.6534  0.1212  0.6609
   62MOL    C7722159   5.459   4.245   6.656  0.9459  0.8864  0.0207
   62MOL    C7822160   5.441   4.130   6.558 -1.0981  0.2978  0.2379
   62MOL    C7922161   5.321   4.152   6.465  0.4693  0.2583 -0.3938
   62MOL    C8022162   5.299   4.013   6.378 -0.5193 -0.0407 -0.0375
   62MOL    O8122163   5.201   4.020   6.275 -0.0033  0.4607 -0.1369
   62MOL    H8222164   5.658   4.179   6.689  0.3836  1.4627 -0.9751
   62MOL    H8322165   5.620   4.329   6.768 -0.9346  1.0443 -0.4686
   62MOL    H8422166   5.462   4.340   6.602  1.5998  0.5643 -0.5249
   62MOL    H8522167   5.363   4.250   6.707  2.6300  0.7345  3.3627
   62MOL    H8622168   5.422   4.038   6.613 -0.6145 -1.9725 -3.2286
   62MOL    H8722169   5.535   4.116   6.504 -1.3634 -2.3805  0.3954
   62MOL    H8822170   5.345   4.229   6.392  1.3007 -0.4332 -0.8682
   62MOL    H8922171   5.224   4.174   6.510  0.1534  0.3594 -1.1175
   62MOL    H9022172   5.387   3.975   6.326 -0.5829 -0.7712  0.3798
   62MOL    H9122173   5.271   3.931   6.444 -1.2270 -0.0331 -0.3271
   62MOL    C9222174   5.220   4.092   6.160  0.0119 -0.7082 -0.2253
   62MOL    O9322175   5.313   4.157   6.131  0.2667  0.1704 -0.5411
   62MOL    C9422176   5.092   4.107   6.081  0.2856  0.4119  0.3200
   62MOL    C9522177   4.966   4.093   6.167 -0.6740  0.3451 -0.2831
   62MOL    C9622178   4.845   4.151   6.091  0.4139 -0.0815  0.1324
   62MOL    C9722179   4.701   4.120   6.142  0.2873 -0.0609  0.6041
   62MOL    C9822180   4.685   4.147   6.289 -0.2842 -0.0896 -0.0989
   62MOL    O9922181   4.558   4.160   6.335 -0.1185  0.0537  0.4622
   62MOL   H10022182   5.097   4.043   5.992  0.8562 -1.3524  1.5979
   62MOL   H10122183   5.085   4.211   6.047 -1.8303 -0.2803 -1.5178
   62MOL   H10222184   4.976   4.149   6.260  2.5161 -2.3824  1.1238
   62MOL   H10322185   4.955   3.989   6.200  1.6197  0.0843 -0.2639
   62MOL   H10422186   4.856   4.122   5.986  0.0218 -0.2387  0.1330
   62MOL   H10522187   4.841   4.260   6.082 -0.8951 -0.2707 -2.0480
   62MOL   H10622188   4.672   4.017   6.118 -1.7401  0.6843 -0.2453
   62MOL   H10722189   4.637   4.193   6.091  0.6680 -0.3588 -0.3238
   62MOL   H10822190   4.720   4.062   6.348 -2.7175  0.6877  2.5835
   62MOL   H10922191   4.748   4.236   6.301 -0.8198  0.3666 -0.6362
   62MOL   C11022192   4.504   4.281   6.346 -0.4060 -0.0688 -0.1368
   62MOL   O11122193   4.568   4.386   6.342  0.3538  0.0793 -0.2952
   62MOL   C11222194   4.359   4.281   6.372 -0.2890  0.2240 -0.1497
   62MOL   C11322195   4.278   4.298   6.238  0.0590 -0.3324  0.0552
   62MOL   C11422196   4.127   4.306   6.280 -0.4562  1.2699  0.3424
   62MOL   C11522197   4.065   4.171   6.318  0.4385  0.1129 -0.1583
   62MOL   C11622198   3.921   4.168   6.376  0.4755  0.2019  0.1013
   62MOL   O11722199   3.897   4.264   6.475  0.1926 -0.0386  1.1457
   62MOL   H11822200   4.338   4.369   6.432 -1.2891 -0.5416  0.6194
   62MOL   H11922201   4.324   4.201   6.437  1.4069 -0.3918  0.0293
   62MOL   H12022202   4.286   4.211   6.174  0.7156 -0.1975 -0.0564
   62MOL   H12122203   4.312   4.389   6.188 -0.3580 -0.5915 -0.6963
   62MOL   H12222204   4.075   4.348   6.193 -4.3864  0.8517  2.3711
   62MOL   H12322205   4.113   4.377   6.360 -0.0965  1.4543  0.2433
   62MOL   H12422206   4.133   4.133   6.395  0.1741 -0.9632 -0.4488
   62MOL   H12522207   4.068   4.115   6.225 -2.1951 -0.7413  0.2288
   62MOL   H12622208   3.843   4.189   6.303 -2.1445 -0.1915  2.6803
   62MOL   H12722209   3.906   4.065   6.409  0.5848  0.5597  1.2864
   62MOL   C12822210   3.959   4.261   6.602 -0.2160 -0.1590 -0.2794
   62MOL   O12922211   4.032   4.169   6.639  0.2439  0.5198  0.1494
   62MOL   C13022212   3.924   4.371   6.701 -1.0238  0.2500  0.4252
   62MOL   C13122213   3.894   4.509   6.634 -0.0657 -0.0315 -0.5687
   62MOL   C13222214   3.867   4.615   6.745  0.2486  0.4231 -0.3919
   62MOL   C13322215   3.823   4.748   6.686 -0.4379  0.2731 -0.4705
   62MOL   C13422216   3.814   4.860   6.797 -0.1735  0.0851  0.1949
   62MOL   O13522217   3.677   4.851   6.847  0.0253 -0.0250 -0.0513
   62MOL   H13622218   4.002   4.384   6.775  1.3836  1.6923 -2.2447
   62MOL   H13722219   3.841   4.334   6.761 -1.5712  0.7781  0.0102
   62MOL   H13822220   3.815   4.484   6.563  2.2326 -2.2963 -2.4018
   62MOL   H13922221   3.978   4.542   6.573  2.1468  0.4734  2.6413
   62MOL   H14022222   3.960   4.628   6.801 -0.1300  3.9143 -0.4858
   62MOL   H14122223   3.794   4.580   6.818  2.0153  0.1794  1.3237
   62MOL   H14222224   3.725   4.743   6.638 -1.2480 -2.3597  1.3756
   62MOL   H14322225   3.899   4.794   6.624 -1.5597  2.8396 -0.0222
   62MOL   H14422226   3.890   4.851   6.875 -0.4050  0.3460  0.4551
   62MOL   H14522227   3.837   4.954   6.748 -1.2664  0.9238  1.2612
   62MOL   C14622228   3.656   4.820   6.971 -0.2776  1.0426  0.3344
   62MOL   O14722229   3.741   4.789   7.054 -0.5008 -0.2585  0.3068
   62MOL   C14822230   3.509   4.814   7.002 -0.5419  0.0278 -0.1770
   62MOL   C14922231   3.486   4.820   7.156 -0.0902 -0.3952 -0.2030
   62MOL   C15022232   3.517   4.694   7.234 -0.4620 -0.2383  0.4774
   62MOL   C15122233   3.442   4.576   7.192  0.2553 -0.4404 -0.2290
   62MOL   C15222234   3.291   4.581   7.231 -0.5343  0.0976 -0.0338
   62MOL   O15322235   3.230   4.448   7.199 -0.7615 -0.9344 -0.0453
   62MOL   H15422236   3.466   4.726   6.953  1.2330  0.1180 -1.9452
   62MOL   H15522237   3.462   4.899   6.953  1.2201 -0.3872 -2.6390
   62MOL   H15622238   3.382   4.850   7.165  0.3088  0.3458  2.3997
   62MOL   H15722239   3.530   4.911   7.198 -1.1683 -0.9502  2.1857
   62MOL   H15822240   3.490   4.720   7.336 -1.1938  0.9844 -0.0118
   62MOL   H15922241   3.625   4.675   7.238 -0.5176 -0.5017  0.7082
   62MOL   H16022242   3.483   4.491   7.247  0.1195 -0.1658  0.2983
   62MOL   H16122243   3.453   4.544   7.088  0.2519  1.1564 -0.7317
   62MOL   H16222244   3.285   4.608   7.337  2.1238  2.4035 -0.4272
   62MOL   H16322245   3.243   4.656   7.169  0.3685  0.0686 -0.7700
   62MOL   C16422246   3.259   4.339   7.272  0.6862  0.2447  0.9888
   62MOL   O16522247   3.339   4.332   7.366  0.8910 -0.0201 -0.2215
   62MOL   C16622248   3.180   4.211   7.230  0.2862  0.2374 -0.0450
   62MOL   C16722249   3.168   4.110   7.347 -0.8754  1.0985 -0.3685
   62MOL   C16822250   3.058   4.004   7.307  0.1664  0.4198 -0.0946
   62MOL   C16922251   3.089   3.905   7.188  0.1002  0.7129 -0.1735
   62MOL   C17022252   2.971   3.801   7.162 -0.6345 -0.2999 -0.3662
   62MOL   O17122253   2.848   3.872   7.127  0.1004  0.7250  0.0132
   62MOL   H17222254   3.219   4.169   7.138 -2.5559  0.9617 -1.6519
   62MOL   H17322255   3.078   4.236   7.200  0.3381  2.0094  1.1359
   62MOL   H17422256   3.146   4.161   7.440 -2.9941 -2.7943  1.4176
   62MOL   H17522257   3.263   4.058   7.356 -1.0623  1.0795  1.8202
   62MOL   H17622258   2.964   4.056   7.291  0.6091  1.4746  0.6416
   62MOL   H17722259   3.043   3.944   7.397 -0.1654  2.0352  0.9720
   62MOL   H17822260   3.179   3.859   7.228 -0.5153  0.9461  1.5101
   62MOL   H17922261   3.110   3.946   7.089 -0.0533 -1.1797 -1.0205
   62MOL   H18022262   2.997   3.729   7.084 -3.3038 -2.2238  0.4580
   62MOL   H18122263   2.948   3.742   7.250 -1.4004 -0.2326 -0.5111
   62MOL   C18222264   2.741   3.795   7.089  0.3826  0.0738  0.0401
   62MOL   O18322265   2.743   3.673   7.073  0.5697  0.6228 -0.1794
   62MOL   C18422266   2.611   3.867   7.059 -0.3331 -0.0902  0.0612
   62MOL   C18522267   2.630   3.958   6.929  0.4233  0.2829 -0.0625
   62MOL   C18622268   2.501   4.025   6.876 -0.4703  0.2661  0.2624
   62MOL   C18722269   2.548   4.144   6.791  0.8749 -0.4378 -0.0155
   62MOL   C18822270   2.432   4.243   6.756  0.8215  0.5390  0.1742
   62MOL   O18922271   2.354   4.187   6.653  0.1361 -0.3043 -0.3097
   62MOL   H19022272   2.570   3.925   7.142 -2.5245  0.3318 -1.2806
   62MOL   H19122273   2.531   3.795   7.044  0.2382 -1.2368  2.3556
   62MOL   H19222274   2.670   3.888   6.856  2.4958 -0.1982  1.4788
   62MOL   H19322275   2.711   4.028   6.949 -0.0030  1.0619 -1.0491
   62MOL   H19422276   2.438   4.061   6.957  1.6062 -0.0616  2.0706
   62MOL   H19522277   2.436   3.951   6.830  1.3722 -2.9104  2.5833
   62MOL   H19622278   2.597   4.112   6.699 -2.0520 -1.0229 -1.4339
   62MOL   H19722279   2.619   4.201   6.850 -1.0814  1.9249  0.1729
   62MOL   H19822280   2.377   4.287   6.839  0.2438  0.6872 -0.2856
   62MOL   H19922281   2.465   4.323   6.689 -1.2797 -0.2023 -1.8193
   62MOL   C20022282   2.234   4.243   6.623 -0.8992 -0.3085  0.5916
   62MOL   O20122283   2.179   4.336   6.677  0.2622 -0.4410 -0.1836
   62MOL   C20222284   2.168   4.172   6.501 -0.1711  0.0852  0.5162
   62MOL   C20322285   2.061   4.060   6.531 -0.0090 -0.3283  0.1779
   62MOL   C20422286   2.125   3.927   6.583  0.2134 -0.0462  0.1228
   62MOL   C20522287   2.023   3.825   6.643  0.1665  0.5814 -0.9706
   62MOL   C20622288   2.077   3.697   6.704  0.2845 -0.7397 -0.7680
   62MOL   O20722289   2.141   3.723   6.823  0.3189  0.1578 -0.1531
   62MOL   H20822290   2.248   4.137   6.436  0.7520  1.6446  0.7862
   62MOL   H20922291   2.117   4.244   6.437  1.1087 -1.2421 -2.0951
   62MOL   H21022292   2.012   4.029   6.439  0.3096  0.9653 -0.4349
   62MOL   H21122293   1.987   4.095   6.603  1.2424  1.7674  0.4743
   62MOL   H21222294   2.184   3.964   6.667  0.1995 -1.4183  0.7583
   62MOL   H21322295   2.187   3.885   6.504 -1.0774  1.2687 -1.6368
   62MOL   H21422296   1.943   3.793   6.577  1.6858  0.4237 -2.7744
   62MOL   H21522297   1.967   3.876   6.722 -0.3121 -0.4996 -0.6059
   62MOL   H21622298   1.991   3.630   6.709 -0.6038  0.3304 -1.4958
   62MOL   H21722299   2.143   3.644   6.636 -0.5056 -1.7789 -0.7414
   62MOL   C21822300   2.179   3.607   6.894  0.3777 -0.1286 -0.3029
   62MOL   O21922301   2.152   3.490   6.871 -0.2691  0.0078  0.1872
   62MOL   C22022302   2.286   3.638   6.997  0.7183  0.3751  0.1465
   62MOL   C22122303   2.225   3.665   7.135  0.6551 -0.6314 -0.0144
   62MOL   C22222304   2.303   3.590   7.240 -0.0608  0.0773 -0.1441
   62MOL   C22322305   2.443   3.643   7.259 -0.4278 -0.0711 -0.4979
   62MOL   C22422306   2.503   3.595   7.392 -0.0169  0.4758  0.0493
   62MOL   O22522307   2.630   3.651   7.402  0.2467  0.4009  0.1316
   62MOL   H22622308   2.339   3.721   6.951 -0.2373  0.0917 -1.5085
   62MOL   H22722309   2.352   3.552   6.987  0.7139  0.2065  1.4890
   62MOL   H22822310   2.124   3.625   7.144 -0.0511  1.0835 -0.0535
   62MOL   H22922311   2.216   3.767   7.171 -1.3076 -1.1667  1.0979
   62MOL   H23022312   2.314   3.483   7.220 -0.8200  0.4306 -2.6030
   62MOL   H23122313   2.246   3.587   7.333 -1.1180 -1.4256 -0.8194
   62MOL   H23222314   2.428   3.751   7.261 -0.0260  0.0138 -1.7251
   62MOL   H23322315   2.513   3.636   7.175  2.5946 -0.6357  1.9748
   62MOL   H23422316   2.443   3.612   7.482 -0.7426  1.0062 -0.5294
   62MOL   H23522317   2.527   3.490   7.403  1.1263  0.9393  2.3864
   62MOL   C23622318   2.690   3.644   7.519  0.2569  0.1933 -0.4351
   62MOL   O23722319   2.670   3.550   7.591  0.3843  0.0157  1.0603
   62MOL   C23822320   2.788   3.753   7.550  0.9877 -0.4519  0.2836
   62MOL   C23922321   2.738   3.888   7.602  0.2930  0.4341  0.3405
   62MOL   C24022322   2.733   3.988   7.490 -0.0612  0.5769 -0.8418
   62MOL   C24122323   2.717   4.132   7.544  0.1416  1.1814 -0.6067
   62MOL   C24222324   2.635   4.227   7.452 -0.2503  0.3380  0.7688
   62MOL   O24322325   2.650   4.361   7.499 -0.0950  0.4306  0.2868
   62MOL   H24422326   2.860   3.753   7.468 -0.3370 -0.5222 -0.9076
   62MOL   H24522327   2.865   3.708   7.612 -0.7381 -2.5739  0.9763
   62MOL   H24622328   2.803   3.930   7.680  1.6399 -0.5044 -0.2500
   62MOL   H24722329   2.640   3.869   7.646  0.6070 -1.9301  0.0593
   62MOL   H24822330   2.656   3.967   7.416  1.4324 -1.6295 -1.8151
   62MOL   H24922331   2.829   3.985   7.439  0.7737 -1.4238  0.7728
   62MOL   H25022332   2.814   4.173   7.573 -0.3268  0.5021  1.9414
   62MOL   H25122333   2.645   4.113   7.623  2.5906 -1.5736  1.0166
   62MOL   H25222334   2.680   4.210   7.354 -0.4894 -1.3349  0.9312
   62MOL   H25322335   2.530   4.197   7.446 -0.1434  0.1285 -0.1828
   62MOL   C25422336   2.576   4.415   7.597  0.6179  0.1798 -0.0166
   62MOL   O25522337   2.485   4.353   7.650  0.3923  0.2798  0.0147
   62MOL   C25622338   2.606   4.560   7.631 -0.2127 -0.1790  0.9097
   62MOL   C25722339   2.481   4.647   7.618  0.3393 -0.5266  0.4174
   62MOL   C25822340   2.449   4.674   7.467  0.0859 -0.4444 -0.1189
   62MOL   C25922341   2.299   4.716   7.437  0.6397 -0.8760 -0.2614
   62MOL   C26022342   2.278   4.775   7.298 -0.4434 -0.0196 -0.3106
   62MOL   O26122343   2.146   4.754   7.254 -0.2025  0.2520 -0.8295
   62MOL   H26222344   2.693   4.601   7.580 -2.8079  1.6600 -2.1831
   62MOL   H26322345   2.633   4.551   7.736 -0.7893  2.0190  1.2609
   62MOL   H26422346   2.489   4.744   7.666  1.7713 -0.7093  0.5613
   62MOL   H26522347   2.400   4.595   7.669  0.1042  0.0711  0.6661
   62MOL   H26622348   2.449   4.577   7.417 -0.7659  0.6384 -2.3084
   62MOL   H26722349   2.523   4.732   7.412 -1.6552  0.3073 -1.7517
   62MOL   H26822350   2.269   4.801   7.498  1.5380 -2.0284  1.8093
   62MOL   H26922351   2.236   4.628   7.448  0.0890 -0.8751 -3.0232
   62MOL   H27022352   2.305   4.881   7.303 -0.9211  0.2736 -3.2712
   62MOL   H27122353   2.347   4.725   7.232 -0.4931  1.2645 -1.3709
   62MOL   C27222354   2.088   4.835   7.169 -0.2811 -0.2373  0.5729
   62MOL   O27322355   2.151   4.930   7.115 -0.0101 -0.0435  0.3436
   62MOL   C27422356   1.941   4.801   7.147  0.3971  0.2549 -0.0508
   62MOL   C27522357   1.872   4.730   7.267  0.0166 -0.1641  0.0821
   62MOL   C27622358   1.907   4.582   7.249 -0.3515 -0.2863 -0.2437
   62MOL   C27722359   1.799   4.507   7.341  0.2261  0.1531 -0.0294
   62MOL   C27822360   1.812   4.355   7.324  0.7309  0.0759  0.1946
   62MOL   O27922361   1.728   4.279   7.405  0.0525 -0.6360  0.3855
   62MOL   H28022362   1.916   4.756   7.051  1.0521  1.1889 -0.6666
   62MOL   H28122363   1.893   4.899   7.145  1.9191  1.0375  0.7499
   62MOL   H28222364   1.766   4.755   7.258  0.4062  0.6780 -2.5404
   62MOL   H28322365   1.899   4.765   7.367  0.4467  0.4051 -0.2289
   62MOL   H28422366   2.009   4.556   7.278 -0.4638 -0.1413  0.2894
   62MOL   H28522367   1.899   4.550   7.145 -1.4350  0.5435 -0.4276
   62MOL   H28622368   1.699   4.530   7.303  0.8442  1.0937 -1.1296
   62MOL   H28722369   1.802   4.532   7.447  0.3649  2.2069 -0.4928
   62MOL   H28822370   1.803   4.318   7.222 -1.7332  1.5282 -0.1507
   62MOL   H28922371   1.918   4.349   7.347  0.6077 -0.6394  0.5960
   62MOL   C29022372   1.768   4.157   7.449 -0.0965  0.3502  0.2033
   62MOL   O29122373   1.864   4.094   7.414  0.0244 -0.1691 -0.6118
   62MOL   C29222374   1.668   4.099   7.550  0.1276  0.5066 -0.5597
   62MOL   C29322375   1.647   4.191   7.672  0.3149  0.3837 -0.2603
   62MOL   C29422376   1.764   4.191   7.773  0.1930 -0.9510  0.1885
   62MOL   C29522377   1.716   4.229   0.069  0.6073 -0.0999  0.3986
   62MOL   C29622378   1.823   4.283   0.162 -0.0096 -0.0056  0.1769
   62MOL   O29722379   1.919   4.184   0.185 -0.2218  0.2003  0.2365
   62MOL   H29822380   1.708   4.002   7.580  1.9303  1.4000 -0.0148
   62MOL   H29922381   1.573   4.080   7.499 -1.5012  0.2136  2.4361
   62MOL   H30022382   1.556   4.151   7.716  1.5121 -1.2450  0.7636
   62MOL   H30122383   1.614   4.289   7.637  0.1084  0.2869 -0.3397
   62MOL   H30222384   1.838   4.266   7.744 -0.1501 -0.1933  1.2332
   62MOL   H30322385   1.813   4.094   7.780 -0.4903 -1.3973 -1.2515
   62MOL   H30422386   1.653   4.146   0.100 -1.6385  0.7695 -1.6895
   62MOL   H30522387   1.645   4.311   0.055  1.4138  0.7209  0.9731
   62MOL   H30622388   1.855   4.377   0.118 -0.3983 -0.3873 -0.9608
   62MOL   H30722389   1.779   4.307   0.259 -0.1496 -1.9389  0.6109
   62MOL   C30822390   2.003   4.192   0.290 -0.4743 -0.3446  0.2349
   62MOL   O30922391   2.006   4.302   0.353  0.4430  0.3326 -0.0111
   62MOL   C31022392   2.065   4.055   0.341 -0.0964  0.3180 -0.1808
   62MOL   C31122393   2.054   4.039   0.493  0.4476  0.2486 -0.3573
   62MOL   C31222394   2.097   3.895   0.543  0.2137  0.2953  0.6881
   62MOL   C31322395   2.248   3.881   0.531 -0.3976  0.7586 -0.4631
   62MOL   C31422396   2.295   3.742   0.565  0.6665  0.5714 -0.6167
   62MOL   O31522397   2.311   3.730   0.706  0.3145  0.2723 -0.3110
   62MOL   H31622398   2.168   4.074   0.312  0.8435  1.2862  3.5022
   62MOL   H31722399   2.025   3.965   0.293  2.4980 -0.9892  0.0180
   62MOL   H31822400   1.952   4.053   0.530 -0.0879  0.9053 -2.0431
   62MOL   H31922401   2.112   4.119   0.541 -1.3300  2.3703 -1.6450
   62MOL   H32022402   2.056   3.824   0.471  1.0126 -0.8162  1.3172
   62MOL   H32122403   2.055   3.874   0.641  1.3096 -1.4934  0.7876
   62MOL   H32222404   2.312   3.947   0.589  0.0728 -0.8314  0.8876
   62MOL   H32322405   2.281   3.893   0.428 -0.5631 -1.2246 -0.7788
   62MOL   H32422406   2.229   3.667   0.521  1.4103 -0.7356  0.4619
   62MOL   H32522407   2.393   3.721   0.522  1.9176  2.0845  1.3928
   62MOL   C32622408   2.209   3.666   0.775 -0.6165 -0.8300 -0.2355
   62MOL   O32722409   2.121   3.593   0.726  0.0824  0.6645  0.1880
   62MOL   C32822410   2.220   3.693   0.922 -0.6658 -0.1844 -0.3884
   62MOL   C32922411   2.083   3.715   0.988 -0.4194 -0.2350  0.1216
   62MOL   C33022412   2.075   3.751   1.138 -0.2582 -0.0159  0.6095
   62MOL   C33122413   1.938   3.802   1.189  0.0908  0.0613  0.4463
   62MOL   C33222414   1.948   3.872   1.322 -0.2163  0.1237 -0.2031
   62MOL   O33322415   1.827   3.941   1.354  1.0104  0.1270  0.6770
   62MOL   H33422416   2.289   3.775   0.941  1.6760 -2.6774  2.2950
   62MOL   H33522417   2.277   3.612   0.966 -0.8776  0.5600  1.2903
   62MOL   H33622418   2.021   3.628   0.970 -0.3048 -0.8261  2.5295
   62MOL   H33722419   2.028   3.791   0.933  0.5899  1.2511  1.1321
   62MOL   H33822420   2.147   3.831   1.154 -0.5917  0.4142 -0.0493
   62MOL   H33922421   2.091   3.658   1.193 -2.2814 -0.0579  1.1669
   62MOL   H34022422   1.873   3.715   1.197 -1.0858  0.9425  0.6443
   62MOL   H34122423   1.900   3.877   1.119  0.8314  0.4919  0.5052
   62MOL   H34222424   1.967   3.793   1.396 -0.4385 -0.0680 -0.3479
   62MOL   H34322425   2.038   3.931   1.340 -0.7266  0.8003  0.1328
   62MOL   C34422426   1.812   4.078   1.330 -0.2932 -0.1528 -0.2156
   62MOL   O34522427   1.897   4.145   1.278 -0.0185 -0.6956  0.5438
   62MOL   C34622428   1.674   4.139   1.374 -0.8747  0.9581  0.2258
   62MOL   C34722429   1.572   4.098   1.279  0.3613  0.2466 -0.2476
   62MOL   C34822430   1.583   4.152   1.140  0.7829 -0.1030  0.5389
   62MOL   C34922431   1.449   4.149   1.052  0.2812 -0.4212 -0.1680
   62MOL   C35022432   1.467   4.203   0.907 -0.0662  0.2951 -0.0952
   62MOL   O35122433   1.520   4.102   0.814  0.0649  0.2809  0.0520
   62MOL   H35222434   1.689   4.246   1.389 -0.2621  0.6445  1.9719
   62MOL   H35322435   1.664   4.097   1.475 -0.5374  2.2584  0.8055
   62MOL   H35422436   1.479   4.141   1.317  0.2813 -1.6808  1.8934
   62MOL   H35522437   1.560   3.989   1.282 -0.7180  0.3684  0.0339
   62MOL   H35622438   1.664   4.100   1.088 -0.5770  0.6046 -2.3931
   62MOL   H35722439   1.627   4.251   1.149  3.6828 -1.1297 -1.5446
   62MOL   H35822440   1.378   4.210   1.107  3.4699  0.9948  2.6004
   62MOL   H35922441   1.401   4.051   1.050 -0.1022 -0.2197 -1.5260
   62MOL   H36022442   1.370   4.229   0.864  0.2067  0.3352 -0.6869
   62MOL   H36122443   1.522   4.297   0.906  0.4693 -0.0022  0.6717
   62MOL   H36222444   1.562   4.138   0.737  0.2184 -0.5452 -0.2544
   63MOL     C122445   0.604   6.458   1.540 -0.1871  0.5701  0.2336
   63MOL     O222446   0.530   6.397   1.459 -0.2297 -0.5425  0.3161
   63MOL     C322447   0.751   6.468   1.530  0.1452  0.1334  1.0156
   63MOL     C422448   0.819   6.448   1.390  0.0812  0.2336 -0.0926
   63MOL     C522449   0.892   6.312   1.373  0.3386  0.2285  0.3536
   63MOL     C622450   0.929   6.304   1.230  0.6492  0.0014 -0.2015
   63MOL     C722451   1.030   6.197   1.190  0.7413 -0.3880  0.3605
   63MOL     O822452   1.044   6.210   1.053 -0.1894  0.1094  0.0902
   63MOL     H922453   0.796   6.392   1.594  0.9285 -0.5864 -0.3759
   63MOL    H1022454   0.773   6.570   1.563 -1.1165  1.7412 -2.8640
   63MOL    H1122455   0.892   6.528   1.381  1.3041 -1.0348 -1.6936
   63MOL    H1222456   0.742   6.470   1.316  1.0162  2.3578 -0.4541
   63MOL    H1322457   0.812   6.240   1.386  0.4477 -0.1118 -0.7702
   63MOL    H1422458   0.970   6.280   1.442  1.8798  0.1101 -1.4011
   63MOL    H1522459   0.955   6.405   1.197 -1.3955  0.1648 -1.4408
   63MOL    H1622460   0.833   6.293   1.178  0.9530  0.5488 -0.8942
   63MOL    H1722461   1.119   6.193   1.253  1.1279  1.0559 -0.0880
   63MOL    H1822462   0.990   6.096   1.201 -0.3520  0.0513  0.5316
   63MOL    H1922463   0.566   6.509   1.629  0.2137 -0.0703  0.7729
   63MOL    C2022464   1.161   6.249   0.995  0.9775 -0.3037 -0.3855
   63MOL    O2122465   1.272   6.251   1.046  0.0060  0.1479  1.4302
   63MOL    C2222466   1.152   6.296   0.851  0.5357 -1.0320 -0.0326
   63MOL    C2322467   1.122   6.183   0.746 -0.0503 -0.1251  0.3827
   63MOL    C2422468   1.216   6.068   0.735  0.2901 -0.5072  0.1061
   63MOL    C2522469   1.173   6.002   0.604  0.0062  0.6635  0.1632
   63MOL    C2622470   1.223   5.856   0.595  0.3421  0.3427  0.3365
   63MOL    O2722471   1.359   5.849   0.620 -0.1866 -0.1070 -0.5512
   63MOL    H2822472   1.249   6.345   0.838  1.0500 -1.8914  0.5399
   63MOL    H2922473   1.075   6.373   0.848  0.6401 -0.8838  0.8875
   63MOL    H3022474   1.118   6.237   0.651 -1.6983 -0.3482  0.3232
   63MOL    H3122475   1.022   6.148   0.770 -0.2690 -1.7588 -2.6558
   63MOL    H3222476   1.214   5.990   0.811 -1.0972  1.3742  2.0828
   63MOL    H3322477   1.320   6.101   0.734  0.2893 -0.5049  0.1118
   63MOL    H3422478   1.194   6.069   0.520 -3.1582  0.6827 -0.6727
   63MOL    H3522479   1.064   5.995   0.598 -0.2465  3.0953  1.1634
   63MOL    H3622480   1.170   5.811   0.679 -1.0187  0.8960 -0.2093
   63MOL    H3722481   1.193   5.810   0.501 -2.2650  0.3872  1.1225
   63MOL    C3822482   1.451   5.880   0.534  0.5836  0.4336  0.1549
   63MOL    O3922483   1.432   5.912   0.413  0.4108  0.3540  0.0531
   63MOL    C4022484   1.592   5.870   0.593 -0.0624  0.1111 -0.8862
   63MOL    C4122485   1.604   5.786   0.720  0.8317 -0.0334  0.3161
   63MOL    C4222486   1.560   5.646   0.702  0.0134 -0.5592 -0.0890
   63MOL    C4322487   1.564   5.572   0.832 -0.7764 -0.0781  0.0405
   63MOL    C4422488   1.506   5.430   0.830 -0.3663  0.4232 -0.7793
   63MOL    O4522489   1.522   5.373   0.959  0.5278 -0.3580 -0.3544
   63MOL    H4622490   1.629   5.971   0.609  0.3583  0.0215 -1.2840
   63MOL    H4722491   1.654   5.817   0.521 -0.5085 -0.9385 -0.5208
   63MOL    H4822492   1.540   5.841   0.789 -1.7709 -1.1204 -1.1534
   63MOL    H4922493   1.708   5.784   0.753  0.3779  1.2824  1.8768
   63MOL    H5022494   1.627   5.595   0.631  3.1493  0.6680  1.8797
   63MOL    H5122495   1.462   5.639   0.656 -0.4808 -1.4725  1.0672
   63MOL    H5222496   1.516   5.622   0.916 -3.6723  0.1782 -1.7029
   63MOL    H5322497   1.666   5.568   0.869 -0.6735  1.1233 -0.1188
   63MOL    H5422498   1.399   5.443   0.815  0.0685  4.8454 -0.7208
   63MOL    H5522499   1.550   5.371   0.750 -1.2920 -1.1358 -0.1481
   63MOL    C5622500   1.604   5.266   0.982 -1.3035  0.2260  0.0054
   63MOL    O5722501   1.671   5.204   0.898 -0.3519 -0.1312 -0.2414
   63MOL    C5822502   1.615   5.219   1.128 -0.3680 -0.3089  0.7372
   63MOL    C5922503   1.495   5.134   1.180 -0.2082  0.3074 -0.2921
   63MOL    C6022504   1.521   5.054   1.304 -0.6216  0.4633  0.0471
   63MOL    C6122505   1.396   4.979   1.366 -0.1777  0.3001 -0.2364
   63MOL    C6222506   1.449   4.871   1.457  0.1737  0.1306 -0.1974
   63MOL    O6322507   1.497   4.765   1.375  0.0784 -0.0770  0.0168
   63MOL    H6422508   1.641   5.302   1.193  1.3262  0.0028 -0.3038
   63MOL    H6522509   1.704   5.155   1.125 -1.2390 -1.5349  0.3114
   63MOL    H6622510   1.463   5.059   1.108  3.8011 -0.8334 -1.0211
   63MOL    H6722511   1.410   5.202   1.185  0.0705  0.5336  2.4983
   63MOL    H6822512   1.567   5.127   1.371  1.8270  2.2109 -3.4192
   63MOL    H6922513   1.597   4.977   1.295 -2.2066 -0.9627 -1.5947
   63MOL    H7022514   1.338   4.930   1.289 -2.3352  1.4277  0.6342
   63MOL    H7122515   1.333   5.044   1.427  1.5227 -0.6313  2.6519
   63MOL    H7222516   1.528   4.908   1.522  0.0901 -1.5391  0.8874
   63MOL    H7322517   1.371   4.833   1.522  1.0427  1.3695  1.6020
   63MOL    C7422518   1.427   4.651   1.370 -0.0535 -0.1569 -0.3157
   63MOL    O7522519   1.315   4.631   1.428  0.2050 -0.0423 -0.2189
   63MOL    C7622520   1.484   4.550   1.274  0.6159  0.0323  0.1928
   63MOL    C7722521   1.443   4.573   1.132 -0.3791 -0.8151  0.5005
   63MOL    C7822522   1.508   4.699   1.059  0.1586 -0.3713 -0.0133
   63MOL    C7922523   1.488   4.694   0.911 -0.6974 -0.2784 -0.3588
   63MOL    C8022524   1.545   4.805   0.819 -0.0263  0.5641 -0.3898
   63MOL    O8122525   1.508   4.786   0.685 -0.8390 -0.0973  0.0999
   63MOL    H8222526   1.449   4.451   1.304  1.3637 -0.3530 -0.1827
   63MOL    H8322527   1.593   4.552   1.275  0.6178 -0.3246  1.1507
   63MOL    H8422528   1.335   4.591   1.128 -0.0976  0.9922  0.5541
   63MOL    H8522529   1.468   4.487   1.070 -0.8166 -1.0761  0.6865
   63MOL    H8622530   1.613   4.704   1.088  0.9296  0.2945 -2.8082
   63MOL    H8722531   1.448   4.777   1.106  0.0713 -0.8172  0.6285
   63MOL    H8822532   1.380   4.691   0.893 -0.5366 -2.3675 -1.1958
   63MOL    H8922533   1.521   4.597   0.873 -0.9010 -0.1469 -0.8767
   63MOL    H9022534   1.491   4.893   0.853  0.4629  1.0311 -0.8064
   63MOL    H9122535   1.653   4.819   0.828  0.1004 -0.5068 -0.2043
   63MOL    C9222536   1.514   4.887   0.596 -0.1506  0.0112 -0.0128
   63MOL    O9322537   1.563   4.998   0.608  0.7292  0.0551  0.8391
   63MOL    C9422538   1.436   4.841   0.475  0.3367 -0.5673 -0.1678
   63MOL    C9522539   1.472   4.924   0.341 -0.6461 -0.2632  0.1662
   63MOL    C9622540   1.620   4.921   0.296  0.1118  0.4804 -0.9849
   63MOL    C9722541   1.646   5.010   0.171 -0.3468 -0.1533  0.4408
   63MOL    C9822542   1.789   5.067   0.167  0.2649 -0.2306  0.3082
   63MOL    O9922543   1.801   5.164   0.065 -0.9317  0.6642  0.5264
   63MOL   H10022544   1.329   4.854   0.492  0.7350  0.0592  1.9459
   63MOL   H10122545   1.454   4.734   0.460  0.5503 -0.2921 -1.9694
   63MOL   H10222546   1.433   5.025   0.344 -1.1797 -0.4583 -0.1299
   63MOL   H10322547   1.412   4.879   0.261 -1.0505  1.1679 -0.3492
   63MOL   H10422548   1.637   4.819   0.261 -0.2328  0.6598 -1.6993
   63MOL   H10522549   1.682   4.950   0.380  0.2622 -0.9133 -0.6008
   63MOL   H10622550   1.588   5.101   0.185 -2.1669 -1.3977  1.0830
   63MOL   H10722551   1.612   4.966   0.077  0.5188  0.3790 -0.1297
   63MOL   H10822552   1.804   5.108   0.266 -0.6877  3.0986 -0.8540
   63MOL   H10922553   1.862   4.986   0.156  0.9122  0.1727  1.5952
   63MOL   C11022554   1.914   5.247   0.073 -0.7118  1.0029  0.1307
   63MOL   O11122555   2.007   5.234   0.152 -0.3943 -0.0002 -0.3097
   63MOL   C11222556   1.915   5.361   7.816 -0.2854  0.1773  0.1113
   63MOL   C11322557   1.869   5.495   0.031 -0.1074  0.0324 -0.8907
   63MOL   C11422558   1.858   5.600   7.770 -0.1516  0.2541  0.4151
   63MOL   C11522559   1.812   5.736   7.828  0.4050 -0.0600  0.5246
   63MOL   C11622560   1.761   5.839   7.732 -0.2595 -0.2373 -0.1094
   63MOL   O11722561   1.879   5.870   7.661 -0.1767 -0.2168 -0.4770
   63MOL   H11822562   1.855   5.346   7.727  0.3107  1.4921 -0.5194
   63MOL   H11922563   2.016   5.377   7.776 -1.5994  1.5686 -2.7855
   63MOL   H12022564   1.955   5.529   0.090  0.9955 -0.0614 -2.4077
   63MOL   H12122565   1.778   5.472   0.085  0.4492 -0.3715 -0.1037
   63MOL   H12222566   1.783   5.558   7.703  0.6658  1.7577 -1.4953
   63MOL   H12322567   1.953   5.608   7.717 -0.0043 -1.3322  0.4230
   63MOL   H12422568   1.891   5.783   0.042  0.6626 -2.5413  2.2668
   63MOL   H12522569   1.733   5.729   0.058 -0.4752 -1.1031 -0.4850
   63MOL   H12622570   1.672   5.807   7.676  0.6849 -0.5000 -1.4825
   63MOL   H12722571   1.732   5.928   7.787 -0.3642 -0.4732  0.2146
   63MOL   C12822572   1.864   5.950   7.558 -0.9667 -0.5514 -0.1307
   63MOL   O12922573   1.764   6.006   7.521  0.3413  0.2939 -0.3894
   63MOL   C13022574   1.994   5.980   7.492  0.0846  0.5021 -0.0103
   63MOL   C13122575   2.069   5.855   7.435  0.2281 -0.2704  0.7188
   63MOL   C13222576   2.155   5.771   7.533  0.0884 -0.1990  0.1213
   63MOL   C13322577   2.151   5.620   7.503  0.4455 -0.5402 -0.4156
   63MOL   C13422578   2.237   5.535   7.601  0.3497  0.4468  0.4097
   63MOL   O13522579   2.232   5.397   7.557  0.0745  0.0763  0.0304
   63MOL   H13622580   2.050   6.037   7.565  2.5318  0.5995 -1.8808
   63MOL   H13722581   1.967   6.047   7.411  1.2811 -1.0476 -1.7449
   63MOL   H13822582   2.153   5.889   7.375  0.5312  1.9069  2.3590
   63MOL   H13922583   1.997   5.804   7.370  0.8222  1.8716 -1.6847
   63MOL   H14022584   2.130   5.786   7.638 -2.6375  0.8105 -0.6319
   63MOL   H14122585   2.259   5.799   7.519  0.4276 -2.1333 -1.5068
   63MOL   H14222586   2.185   5.599   7.402  2.2991 -2.2863  0.5215
   63MOL   H14322587   2.046   5.594   7.506 -0.0053  1.1969 -0.9464
   63MOL   H14422588   2.340   5.566   7.617  0.2397  0.5535  0.9255
   63MOL   H14522589   2.211   5.548   7.706 -1.2294 -0.8287  0.1969
   63MOL   C14622590   2.294   5.298   7.623 -0.3895 -0.3555 -0.1572
   63MOL   O14722591   2.353   5.304   7.734  0.7444 -0.2268  0.3483
   63MOL   C14822592   2.284   5.166   7.550  0.4122  0.7343 -0.1501
   63MOL   C14922593   2.143   5.110   7.497 -0.3215 -0.4562  0.0849
   63MOL   C15022594   2.039   5.115   7.603 -0.0243  0.0929  0.2403
   63MOL   C15122595   1.909   5.035   7.568  0.0140  0.8774 -0.4169
   63MOL   C15222596   1.917   4.890   7.625 -0.1686  0.3786 -0.3166
   63MOL   O15322597   1.789   4.818   7.604 -0.0520  0.5093 -0.1082
   63MOL   H15422598   2.304   5.088   7.623 -0.2379 -0.5781 -1.3362
   63MOL   H15522599   2.367   5.147   7.481 -0.4985 -2.6491 -0.4338
   63MOL   H15622600   2.160   5.007   7.466  1.5616 -0.4764  1.0870
   63MOL   H15722601   2.104   5.161   7.409  2.5108  0.0636 -0.9218
   63MOL   H15822602   2.020   5.221   7.624  2.4555  0.8407 -1.0976
   63MOL   H15922603   2.079   5.066   7.692  0.1273 -0.4767 -0.1421
   63MOL   H16022604   1.887   5.033   7.461  2.0389  2.0606 -0.9029
   63MOL   H16122605   1.824   5.085   7.614 -1.6712 -0.9000 -1.5165
   63MOL   H16222606   1.996   4.850   7.562  0.7488  1.7804 -0.0678
   63MOL   H16322607   1.939   4.878   7.731 -0.1052  1.0163 -0.2615
   63MOL   C16422608   1.729   4.757   7.703  0.5012  0.6023  0.1616
   63MOL   O16522609   1.755   4.766   7.820 -0.1014 -0.4696 -0.1136
   63MOL   C16622610   1.610   4.673   7.668 -0.0833 -0.2736 -0.4326
   63MOL   C16722611   1.486   4.767   7.651 -0.1873  0.1125  0.4627
   63MOL   C16822612   1.422   4.756   7.514  0.1542 -0.6763  0.6889
   63MOL   C16922613   1.511   4.815   7.405  0.0552 -0.2535  0.9699
   63MOL   C17022614   1.440   4.840   7.275 -0.2167  0.0981  0.7154
   63MOL   O17122615   1.527   4.865   7.166  0.6751  0.4053 -0.0792
   63MOL   H17222616   1.601   4.599   7.747 -0.6604 -0.3116 -0.5376
   63MOL   H17322617   1.630   4.626   7.571  0.7390 -1.3746  0.2641
   63MOL   H17422618   1.513   4.870   7.671  1.8078 -0.0210 -1.3532
   63MOL   H17522619   1.411   4.729   7.721 -0.5708 -3.1727 -1.5975
   63MOL   H17622620   1.324   4.803   7.517 -0.3247 -1.5065 -1.1811
   63MOL   H17722621   1.391   4.652   7.499  0.3649 -1.0064  2.4391
   63MOL   H17822622   1.592   4.743   7.390 -0.8246 -0.6647 -2.4466
   63MOL   H17922623   1.569   4.905   7.423  0.8637 -0.8433  1.3751
   63MOL   H18022624   1.369   4.760   7.258 -2.1770  2.0128 -0.4035
   63MOL   H18122625   1.373   4.926   7.273 -0.6939 -0.3156 -1.7949
   63MOL   C18222626   1.564   4.770   7.084 -0.7481  0.7263 -0.7904
   63MOL   O18322627   1.523   4.651   7.096 -0.2086  0.4601  0.6763
   63MOL   C18422628   1.641   4.823   6.963 -0.5199 -0.3961 -0.1062
   63MOL   C18522629   1.557   4.905   6.866 -0.3679 -0.1176 -0.4733
   63MOL   C18622630   1.462   4.821   6.772 -0.7456  0.4336 -0.6384
   63MOL   C18722631   1.366   4.912   6.702  0.5244  0.2402 -0.6458
   63MOL   C18822632   1.289   4.848   6.595  0.4203  0.0214  0.5924
   63MOL   O18922633   1.365   4.844   6.477  0.1700  0.5631 -0.0306
   63MOL   H19022634   1.680   4.734   6.913 -0.3862  0.4403 -1.5251
   63MOL   H19122635   1.717   4.895   6.996  0.5434 -0.1869 -2.8983
   63MOL   H19222636   1.619   4.959   6.794 -0.7192  1.2018  0.2205
   63MOL   H19322637   1.504   4.980   6.925 -0.0833 -0.0135 -0.3478
   63MOL   H19422638   1.401   4.745   6.822 -1.9662  1.4485 -0.5605
   63MOL   H19522639   1.501   4.763   6.689 -0.8634 -2.7816  1.4602
   63MOL   H19622640   1.416   5.003   6.668  0.2330  0.6001 -0.1177
   63MOL   H19722641   1.294   4.950   6.774 -0.1691 -0.8783 -0.7299
   63MOL   H19822642   1.255   4.753   6.635 -1.0364 -1.0860 -3.0065
   63MOL   H19922643   1.206   4.915   6.573  1.2237  1.0866  0.7779
   63MOL   C20022644   1.362   4.730   6.391 -0.6916 -0.1862 -1.1881
   63MOL   O20122645   1.307   4.629   6.422  0.9245  0.8236 -0.0656
   63MOL   C20222646   1.441   4.741   6.263 -0.1104 -0.0357 -0.5235
   63MOL   C20322647   1.362   4.797   6.147 -0.7845  0.2237  0.3368
   63MOL   C20422648   1.327   4.953   6.147  0.2533  0.2293 -0.3219
   63MOL   C20522649   1.287   5.004   6.003  0.1423  0.3911  0.2235
   63MOL   C20622650   1.208   5.143   6.014 -0.9800  0.5329 -0.0497
   63MOL   O20722651   1.166   5.189   5.885  0.0049  0.2145  0.4733
   63MOL   H20822652   1.466   4.639   6.233  0.0796  0.6480 -2.7374
   63MOL   H20922653   1.533   4.799   6.275 -0.1596  0.0648 -0.6327
   63MOL   H21022654   1.263   4.752   6.144  0.0224 -1.8143  2.4830
   63MOL   H21122655   1.411   4.770   6.054 -3.3665 -1.1614 -0.6645
   63MOL   H21222656   1.405   5.014   6.193  0.8589 -0.3788 -0.5318
   63MOL   H21322657   1.249   4.967   6.221  0.4485  1.7704 -0.3928
   63MOL   H21422658   1.233   4.921   5.956 -0.1613  1.0651 -0.6257
   63MOL   H21522659   1.372   5.036   5.943  1.1845 -0.2653  1.3540
   63MOL   H21622660   1.122   5.132   6.082  0.5719  0.0045  1.8805
   63MOL   H21722661   1.272   5.225   6.045 -0.0136  0.4436 -1.8090
   63MOL   C21822662   1.154   5.318   5.852  0.2688 -0.5999  0.0994
   63MOL   O21922663   1.198   5.414   5.924 -0.4929 -0.6247  0.3579
   63MOL   C22022664   1.075   5.335   5.720  0.6526  0.2169 -0.2740
   63MOL   C22122665   1.170   5.397   5.611 -0.6199  0.4057  0.0950
   63MOL   C22222666   1.279   5.299   5.573  0.1448 -0.3558  0.0743
   63MOL   C22322667   1.340   5.334   5.436  0.6612 -0.5165  0.5314
   63MOL   C22422668   1.434   5.219   5.395  0.4886 -0.6789 -0.4147
   63MOL   O22522669   1.520   5.181   5.502 -0.0922 -0.1049  0.2668
   63MOL   H22622670   0.990   5.401   5.739  0.4306 -0.1755  0.0895
   63MOL   H22722671   1.039   5.238   5.686  0.4742 -0.2561  1.2167
   63MOL   H22822672   1.199   5.500   5.633  2.5960 -0.3865 -0.2239
   63MOL   H22922673   1.101   5.412   5.528 -0.6778 -0.4171 -0.0077
   63MOL   H23022674   1.235   5.199   5.570 -0.7287 -0.0018  0.9275
   63MOL   H23122675   1.356   5.300   5.649 -1.7983  0.6077  2.1003
   63MOL   H23222676   1.392   5.429   5.446  0.2090 -0.4358  2.2296
   63MOL   H23322677   1.268   5.345   5.355  0.5512 -1.2444  0.5259
   63MOL   H23422678   1.370   5.137   5.360  1.0677 -1.4674  0.3607
   63MOL   H23522679   1.496   5.234   5.307  1.0704 -1.4011 -0.1319
   63MOL   C23622680   1.577   5.054   5.495  0.5873 -0.5348 -0.3504
   63MOL   O23722681   1.552   4.962   5.414  0.1608  0.6513  0.3430
   63MOL   C23822682   1.674   5.030   5.608 -0.3606 -0.1899  0.4035
   63MOL   C23922683   1.612   5.010   5.746 -0.5498  0.3025  0.3739
   63MOL   C24022684   1.714   5.002   5.857  0.1772  0.0336 -0.0498
   63MOL   C24122685   1.662   5.021   6.004  0.7052 -0.3153 -0.0492
   63MOL   C24222686   1.784   5.018   6.101 -0.2913 -0.4038  0.3586
   63MOL   O24322687   1.747   5.008   6.236 -0.2894 -0.5821 -0.0866
   63MOL   H24422688   1.740   5.117   5.608  1.3134 -1.4189  0.7686
   63MOL   H24522689   1.743   4.947   5.592 -0.2641 -0.2818  1.2652
   63MOL   H24622690   1.559   4.915   5.740 -2.6813  1.4405  0.8100
   63MOL   H24722691   1.537   5.086   5.769 -1.8335 -1.0962  0.9421
   63MOL   H24822692   1.808   5.057   5.845  0.6250 -0.8171 -0.5169
   63MOL   H24922693   1.728   4.894   5.854 -0.6619 -0.0577 -1.1410
   63MOL   H25022694   1.611   4.932   6.040  1.4693 -0.5100  0.5732
   63MOL   H25122695   1.610   5.116   6.013  1.6707  0.0879  1.4889
   63MOL   H25222696   1.854   4.937   6.082 -0.0761  0.1042 -1.0869
   63MOL   H25322697   1.848   5.106   6.089 -1.4296  0.8387  3.1700
   63MOL   C25422698   1.772   4.892   6.310 -0.5343  0.7297  0.1801
   63MOL   O25522699   1.822   4.782   6.265 -0.5609 -0.3323 -0.0504
   63MOL   C25622700   1.746   4.912   6.453  0.3756 -0.2235 -0.2812
   63MOL   C25722701   1.854   5.010   6.500 -0.0716  1.1549 -0.1578
   63MOL   C25822702   1.870   4.976   6.649 -0.4806 -0.3986  0.2195
   63MOL   C25922703   2.006   5.045   6.698  0.5575 -0.0267  0.2426
   63MOL   C26022704   2.030   5.011   6.850  0.2457 -0.7697  0.7547
   63MOL   O26122705   1.918   5.035   6.925 -0.3972 -0.1628 -0.0337
   63MOL   H26222706   1.733   4.808   6.484 -0.9973 -1.2495 -3.9977
   63MOL   H26322707   1.647   4.958   6.445  0.3400 -0.2292  0.1376
   63MOL   H26422708   1.836   5.115   6.479  0.6919  1.2072 -0.5637
   63MOL   H26522709   1.948   4.973   6.461 -0.3826 -1.0095  1.0433
   63MOL   H26622710   1.882   4.870   6.673 -0.9412 -0.3100  0.8435
   63MOL   H26722711   1.790   5.018   6.710 -2.1320 -1.2970 -1.2610
   63MOL   H26822712   2.005   5.154   6.688 -0.0885 -0.2660 -3.1501
   63MOL   H26922713   2.091   5.011   6.638 -0.2926  1.7032 -2.0473
   63MOL   H27022714   2.070   4.909   6.858  0.9593 -0.6792 -1.4317
   63MOL   H27122715   2.116   5.066   6.889 -1.5496  2.1790  0.6832
   63MOL   C27222716   1.897   5.165   6.958  0.5136 -0.0053  0.5316
   63MOL   O27322717   1.962   5.259   6.911  0.0919  0.6773  0.0977
   63MOL   C27422718   1.780   5.181   7.058  0.1605 -0.2152  0.2127
   63MOL   C27522719   1.670   5.262   6.990  0.2322 -0.1652  0.2427
   63MOL   C27622720   1.546   5.291   7.074 -0.1161 -0.2400  0.4303
   63MOL   C27722721   1.444   5.379   7.004 -0.0010 -0.2154 -0.1614
   63MOL   C27822722   1.318   5.415   7.082  1.4752 -0.7703  0.2154
   63MOL   O27922723   1.227   5.489   6.994 -0.4142  0.1203 -0.3927
   63MOL   H28022724   1.829   5.215   7.149  3.0264  1.2251 -1.7955
   63MOL   H28122725   1.739   5.084   7.087  1.2517 -0.9710 -0.6671
   63MOL   H28222726   1.640   5.210   6.899  0.0887  0.2630  0.0440
   63MOL   H28322727   1.707   5.361   6.965  1.0360 -0.6066 -0.3622
   63MOL   H28422728   1.571   5.347   7.164  0.5656  2.3397 -1.3058
   63MOL   H28522729   1.517   5.190   7.100 -0.6998  0.3767  2.2929
   63MOL   H28622730   1.415   5.343   6.905  1.0272 -2.1459  0.2138
   63MOL   H28722731   1.493   5.476   6.994  1.3162 -0.8179  0.2902
   63MOL   H28822732   1.261   5.326   7.109 -1.0409  0.8056  0.1806
   63MOL   H28922733   1.337   5.474   7.172 -0.5772  1.6666 -0.8919
   63MOL   C29022734   1.204   5.618   7.024  0.0611  0.2608  0.7274
   63MOL   O29122735   1.246   5.691   7.114 -0.2018 -0.0338 -0.1124
   63MOL   C29222736   1.110   5.676   6.913  0.4795  0.6169 -0.1283
   63MOL   C29322737   1.166   5.668   6.770  0.2950 -0.1639  0.2886
   63MOL   C29422738   1.301   5.737   6.759 -0.2021  0.8505 -0.0568
   63MOL   C29522739   1.364   5.718   6.619  0.1551  0.9577  0.6017
   63MOL   C29622740   1.488   5.809   6.601 -0.1108 -0.9421  0.0634
   63MOL   O29722741   1.525   5.802   6.465 -0.1471  0.4805  0.3036
   63MOL   H29822742   1.107   5.782   6.939 -0.2815  0.2356  1.3587
   63MOL   H29922743   1.011   5.632   6.925  0.1023  1.4918 -0.0253
   63MOL   H30022744   1.108   5.735   6.707 -1.7897 -2.7542 -0.6306
   63MOL   H30122745   1.180   5.572   6.721 -0.8083 -0.4897  0.6055
   63MOL   H30222746   1.377   5.700   6.827  0.4380 -0.3350 -1.3912
   63MOL   H30322747   1.286   5.841   6.786 -0.6238  0.7413  0.1361
   63MOL   H30422748   1.294   5.748   6.541 -3.0964 -0.9702  2.6719
   63MOL   H30522749   1.372   5.613   6.590  0.4652  0.6057  1.9209
   63MOL   H30622750   1.450   5.907   6.632  1.1421 -0.3274 -0.3127
   63MOL   H30722751   1.550   5.772   6.683 -0.8507 -0.8937  0.6534
   63MOL   C30822752   1.586   5.914   6.410 -0.3657 -0.2107 -0.3164
   63MOL   O30922753   1.605   6.027   6.455  0.5025  0.0294  0.1559
   63MOL   C31022754   1.655   5.891   6.272 -0.1522  0.3339 -0.7259
   63MOL   C31122755   1.734   5.765   6.259 -0.0017  0.8591  0.0125
   63MOL   C31222756   1.666   5.623   6.258  0.5736  0.3591  0.5680
   63MOL   C31322757   1.764   5.517   6.209 -1.0832 -0.2406  0.1092
   63MOL   C31422758   1.706   5.380   6.178  0.3698  0.5426  0.4395
   63MOL   O31522759   1.624   5.373   6.062  0.3200  0.2487  0.2665
   63MOL   H31622760   1.714   5.978   6.242  1.7334 -0.9587 -0.8490
   63MOL   H31722761   1.573   5.885   6.200  0.4660 -0.0498 -1.4085
   63MOL   H31822762   1.806   5.775   6.340  0.5604  0.7784 -0.4678
   63MOL   H31922763   1.796   5.775   6.169 -1.1302  0.1500 -0.8558
   63MOL   H32022764   1.578   5.625   6.194 -0.7244 -0.0833  2.2887
   63MOL   H32122765   1.628   5.597   6.357  1.5202 -2.1177  0.3148
   63MOL   H32222766   1.851   5.496   6.273  0.2443 -0.4480 -1.7299
   63MOL   H32322767   1.810   5.555   6.118 -1.7238 -1.3153 -0.6650
   63MOL   H32422768   1.778   5.298   6.179 -1.2965 -0.9786  1.7959
   63MOL   H32522769   1.634   5.357   6.257  0.7660  0.1596  0.6950
   63MOL   C32622770   1.673   5.389   5.943  1.1003  0.0817  0.0395
   63MOL   O32722771   1.794   5.405   5.922 -0.1956 -0.2041 -0.2294
   63MOL   C32822772   1.572   5.390   5.838 -0.9277 -0.3412 -0.3526
   63MOL   C32922773   1.558   5.526   5.764  0.0764  0.6824 -0.0795
   63MOL   C33022774   1.476   5.633   5.844  0.2645  0.4935  0.4548
   63MOL   C33122775   1.492   5.769   5.781 -1.1929  0.5655 -0.9924
   63MOL   C33222776   1.388   5.881   5.815  0.4345 -0.0169 -0.0317
   63MOL   O33322777   1.371   5.902   5.955  0.3711  0.2309 -0.4028
   63MOL   H33422778   1.475   5.357   5.875 -1.7904  0.6644 -1.6639
   63MOL   H33522779   1.606   5.311   5.771 -1.4625 -1.8665  1.1466
   63MOL   H33622780   1.494   5.503   5.679 -0.1278 -1.4536  0.5988
   63MOL   H33722781   1.659   5.558   5.740  0.8193 -0.6702  1.1197
   63MOL   H33822782   1.506   5.630   5.949  1.1365 -2.1760  0.1796
   63MOL   H33922783   1.372   5.603   5.841  0.3221  0.2246  1.0011
   63MOL   H34022784   1.483   5.755   5.673  1.0033 -0.8121 -1.0300
   63MOL   H34122785   1.589   5.809   5.808 -0.1581 -2.4180 -0.0618
   63MOL   H34222786   1.409   5.964   5.748  0.4716  0.0002  0.0022
   63MOL   H34322787   1.288   5.845   5.790  0.3854 -0.0254  0.1737
   63MOL   C34422788   1.288   6.008   5.987 -0.0957  0.1919  0.1626
   63MOL   O34522789   1.210   6.061   5.913 -0.0261  0.6295  0.2802
   63MOL   C34622790   1.274   6.026   6.139 -0.2435 -0.2844  0.1163
   63MOL   C34722791   1.367   6.134   6.182 -0.0233 -0.3533  0.9122
   63MOL   C34822792   1.303   6.273   6.159  0.3580 -0.2689 -0.1988
   63MOL   C34922793   1.398   6.392   6.177 -0.0908 -0.0806  0.5214
   63MOL   C35022794   1.335   6.531   6.137  0.0969 -0.0279  0.6911
   63MOL   O35122795   1.437   6.628   6.114  0.4857 -0.2221 -0.5933
   63MOL   H35222796   1.303   5.940   6.198  1.9587 -0.0284 -0.5549
   63MOL   H35322797   1.167   6.034   6.156 -0.2786 -3.4114  1.7018
   63MOL   H35422798   1.461   6.124   6.128  0.2940 -0.2192  1.4405
   63MOL   H35522799   1.404   6.119   6.284 -0.2666 -1.9020  0.7850
   63MOL   H35622800   1.222   6.280   6.233  2.0496 -0.6677  1.7386
   63MOL   H35722801   1.258   6.283   6.060 -0.5101 -1.1923  0.0917
   63MOL   H35822802   1.483   6.364   6.114  1.7311  2.2374  1.8495
   63MOL   H35922803   1.439   6.383   6.278  0.9498 -1.0361  0.0172
   63MOL   H36022804   1.273   6.539   6.048  1.9974  0.2528 -0.6217
   63MOL   H36122805   1.274   6.579   6.214  0.8493 -0.2198  1.4124
   63MOL   H36222806   1.467   6.651   6.200 -0.1109 -1.2283 -0.1031
   64MOL     C122807   5.303   3.704   5.346 -0.4746 -0.7142 -0.8661
   64MOL     O222808   5.321   3.743   5.234  0.5424 -0.2563  0.1466
   64MOL     C322809   5.408   3.747   5.449  0.1023  0.5637 -0.1418
   64MOL     C422810   5.521   3.653   5.448  0.2788  0.5970 -0.4487
   64MOL     C522811   5.640   3.671   5.352  0.7323  0.4319  0.1750
   64MOL     C622812   5.737   3.567   5.369 -0.7776 -0.1823 -0.2744
   64MOL     C722813   5.854   3.589   5.276  0.0843  0.4022  0.6977
   64MOL     O822814   5.944   3.693   5.299  0.1101 -0.0414 -0.8777
   64MOL     H922815   5.366   3.762   5.549  2.1945  0.4693  0.7834
   64MOL    H1022816   5.442   3.846   5.420  0.7473  0.6744  0.9739
   64MOL    H1122817   5.490   3.549   5.447  0.8873  0.3758  1.6663
   64MOL    H1222818   5.563   3.672   5.546 -1.9422  0.7542  0.4895
   64MOL    H1322819   5.681   3.772   5.356 -0.9325  1.1600 -0.4147
   64MOL    H1422820   5.600   3.676   5.251 -0.3252 -2.7303  0.3745
   64MOL    H1522821   5.698   3.469   5.342 -0.0989 -0.1971 -1.2203
   64MOL    H1622822   5.783   3.566   5.468 -1.6921  0.9179  0.1736
   64MOL    H1722823   5.910   3.495   5.272  0.3986  0.6755 -2.3906
   64MOL    H1822824   5.815   3.597   5.175 -2.1634 -0.0938  1.4859
   64MOL    H1922825   5.218   3.640   5.369 -1.4202  0.6621 -0.4737
   64MOL    C2022826   6.048   3.674   5.385  0.3225  1.1126  0.1985
   64MOL    O2122827   6.085   3.562   5.421 -0.4662  0.8233  0.1114
   64MOL    C2222828   6.114   3.801   5.430  0.0435  0.3828  0.4646
   64MOL    C2322829   6.000   3.888   5.496 -0.8939  0.0981  0.4657
   64MOL    C2422830   6.036   4.025   5.552 -0.2875 -0.2486 -0.0811
   64MOL    C2522831   6.122   4.031   5.679 -0.6102 -0.4118  0.3767
   64MOL    C2622832   6.129   4.164   5.761  0.2862  0.0326 -0.2218
   64MOL    O2722833   6.011   4.206   5.832  0.2862  0.0828  0.0579
   64MOL    H2822834   6.165   3.846   5.345 -1.0905  0.0326 -0.4131
   64MOL    H2922835   6.186   3.757   5.500 -0.1107 -1.3428 -0.4273
   64MOL    H3022836   5.952   3.834   5.578  1.2455  0.4272  1.9827
   64MOL    H3122837   5.918   3.909   5.427  0.8202  0.1149 -1.6125
   64MOL    H3222838   5.939   4.074   5.566 -0.3695 -1.0213  2.2046
   64MOL    H3322839   6.094   4.081   5.478  1.6181 -2.6930 -0.4913
   64MOL    H3422840   6.221   3.993   5.655  0.1167  1.0626  1.0018
   64MOL    H3522841   6.088   3.952   5.746 -1.1969 -0.6368 -0.1705
   64MOL    H3622842   6.213   4.150   5.829  0.8898 -1.5365 -1.2460
   64MOL    H3722843   6.169   4.242   5.696  2.1041 -0.4088  0.3255
   64MOL    C3822844   6.015   4.296   5.932 -0.0888  0.2575 -0.0360
   64MOL    O3922845   6.119   4.347   5.966  0.4401  0.0630 -0.5193
   64MOL    C4022846   5.877   4.307   5.991 -0.0647  0.7587 -0.1454
   64MOL    C4122847   5.873   4.368   6.130  0.0032  0.2035 -0.2856
   64MOL    C4222848   5.735   4.423   6.163  0.1459  0.2090  0.6453
   64MOL    C4322849   5.627   4.323   6.151 -0.6056 -0.1648 -0.6429
   64MOL    C4422850   5.623   4.227   6.275 -0.0355 -0.2469  0.2789
   64MOL    O4522851   5.719   4.119   6.266 -0.1538 -0.2989 -0.4108
   64MOL    H4622852   5.844   4.204   5.999  2.2843 -0.0021  0.0765
   64MOL    H4722853   5.806   4.349   5.919  0.8229 -0.4266 -1.7466
   64MOL    H4822854   5.941   4.453   6.133 -0.4194  0.5573 -0.7114
   64MOL    H4922855   5.913   4.299   6.204  0.9769 -1.8352 -2.6703
   64MOL    H5022856   5.705   4.507   6.100  0.5041 -0.9949 -1.1474
   64MOL    H5122857   5.737   4.463   6.264 -2.7900  0.4873  0.6370
   64MOL    H5222858   5.630   4.267   6.057  1.1093 -0.9389 -0.1317
   64MOL    H5322859   5.526   4.364   6.138 -1.2362 -1.5912 -0.2877
   64MOL    H5422860   5.659   4.283   6.361  1.1713  0.5618 -0.7444
   64MOL    H5522861   5.521   4.200   6.302 -0.1682  1.8388  1.9884
   64MOL    C5622862   5.699   4.005   6.193 -0.1496  0.9393 -0.0777
   64MOL    O5722863   5.598   3.977   6.138  0.3689 -0.2099  0.6639
   64MOL    C5822864   5.818   3.912   6.206 -0.0285  0.4112  0.2106
   64MOL    C5922865   5.942   3.968   6.143  0.2001  0.1867 -0.4710
   64MOL    C6022866   6.071   3.876   6.153 -0.1744 -0.3171 -0.5192
   64MOL    C6122867   6.180   3.964   6.093  0.3886 -0.5544  0.2857
   64MOL    C6222868   6.259   4.049   6.193 -0.3890  0.4575  0.1900
   64MOL    O6322869   6.370   4.108   6.120  0.4924 -0.6311 -0.6864
   64MOL    H6422870   5.792   3.816   6.162  0.5060  0.3966 -0.0768
   64MOL    H6522871   5.836   3.891   6.311  0.2745  0.5723  0.1914
   64MOL    H6622872   5.981   4.050   6.203  0.5788 -0.1533 -0.2481
   64MOL    H6722873   5.911   4.012   6.048  3.3433  0.4011 -1.4791
   64MOL    H6822874   6.056   3.780   6.103  0.2208 -0.3155 -0.6499
   64MOL    H6922875   6.110   3.849   6.251  4.1556  0.7289 -1.8133
   64MOL    H7022876   6.154   4.019   6.003  3.1531 -1.8423 -1.3663
   64MOL    H7122877   6.251   3.896   6.046  0.6854  1.0992 -1.7589
   64MOL    H7222878   6.194   4.132   6.220  0.1441  0.6378  0.9287
   64MOL    H7322879   6.301   3.998   6.280 -3.3492 -2.2034  0.1553
   64MOL    C7422880   6.396   4.239   6.133  0.0348  0.9407 -0.1651
   64MOL    O7522881   6.346   4.317   6.218 -0.6690  0.2398 -0.1065
   64MOL    C7622882   6.508   4.283   6.041  0.4620 -0.0924 -0.5380
   64MOL    C7722883   6.549   4.429   6.064  0.0656  0.2173 -0.6106
   64MOL    C7822884   6.670   4.473   5.987  0.0550 -0.9769  0.4580
   64MOL    C7922885   6.687   4.627   5.994 -0.4082 -0.3881  0.4509
   64MOL    C8022886   6.813   4.677   5.930  0.8342  0.4084 -0.4915
   64MOL    O8122887   6.795   4.713   5.794 -0.6827  0.1902  0.1155
   64MOL    H8222888   6.480   4.267   5.936 -0.4760 -1.1648 -0.1348
   64MOL    H8322889   6.586   4.208   6.048  0.4982 -0.0348 -0.3348
   64MOL    H8422890   6.556   4.445   6.172 -0.0971  0.9256 -0.7044
   64MOL    H8522891   6.468   4.494   6.032  1.2203  1.1907 -1.6216
   64MOL    H8622892   6.656   4.442   5.884  1.1275 -0.1381  0.0501
   64MOL    H8722893   6.759   4.424   6.028  1.2796  0.4172 -0.5033
   64MOL    H8822894   6.689   4.653   6.099 -0.2668 -2.2299  0.9171
   64MOL    H8922895   6.606   4.687   5.951  1.1263  0.1547 -1.7708
   64MOL    H9022896   6.861   4.763   5.977 -2.7232  1.3158  1.6836
   64MOL    H9122897   6.891   4.602   5.942  0.8061  0.0966 -2.1002
   64MOL    C9222898   6.787   4.840   5.750  0.3036  0.3585  0.9073
   64MOL    O9322899   6.765   4.933   5.821  0.1484  0.0870 -0.2220
   64MOL    C9422900   6.765   4.852   5.595 -0.1786 -0.6623  0.0764
   64MOL    C9522901   6.719   4.732   5.521  0.1184 -0.7779 -0.2518
   64MOL    C9622902   6.561   4.701   5.529 -0.4218  0.2897  0.6662
   64MOL    C9722903   6.525   4.629   5.655 -0.1544 -0.0908  0.8583
   64MOL    C9822904   6.382   4.570   5.647 -0.3332 -0.4900 -0.6337
   64MOL    O9922905   6.379   4.450   5.570  0.2135 -0.0520  0.1114
   64MOL   H10022906   6.862   4.861   5.547 -2.0749  1.5079 -3.5638
   64MOL   H10122907   6.705   4.941   5.578 -0.5317 -0.1641  3.4856
   64MOL   H10222908   6.770   4.641   5.555 -1.6540 -0.2567  4.1414
   64MOL   H10322909   6.747   4.737   5.416  0.1538 -3.6928 -0.4244
   64MOL   H10422910   6.547   4.639   5.441  1.6101 -0.1451  0.6265
   64MOL   H10522911   6.501   4.789   5.503 -1.0862 -0.4456 -0.2888
   64MOL   H10622912   6.526   4.700   5.737 -0.9858  0.0919  0.7209
   64MOL   H10722913   6.600   4.551   5.669 -1.2377 -1.8209 -2.4517
   64MOL   H10822914   6.349   4.542   5.747  0.4045  0.2562 -0.1726
   64MOL   H10922915   6.308   4.643   5.614 -0.3454 -0.4793 -0.5824
   64MOL   C11022916   6.264   4.414   5.513 -0.2693  0.4974  0.0060
   64MOL   O11122917   6.158   4.464   5.525 -0.3609  0.6300  0.0378
   64MOL   C11222918   6.278   4.288   5.419 -0.1892 -1.3031 -0.2960
   64MOL   C11322919   6.372   4.329   5.301 -0.2025 -0.0356 -0.1985
   64MOL   C11422920   6.364   4.222   5.191  0.2756  0.3881  0.4649
   64MOL   C11522921   6.416   4.076   5.222 -0.5372  0.3508  0.3569
   64MOL   C11622922   6.400   3.981   5.102  0.2393 -0.0879  0.0799
   64MOL   O11722923   6.262   3.932   5.090  0.2890  0.3209  0.3508
   64MOL   H11822924   6.180   4.258   5.384  0.1736 -0.4835 -2.0528
   64MOL   H11922925   6.319   4.211   5.485  0.6573  0.7925  1.7196
   64MOL   H12022926   6.474   4.358   5.323 -0.7845  0.3265  2.2293
   64MOL   H12122927   6.320   4.417   5.263 -1.8985 -1.4400 -1.2253
   64MOL   H12222928   6.416   4.246   5.098  1.2421  0.2823  0.9725
   64MOL   H12322929   6.262   4.219   5.152  1.3428  1.4233 -2.4875
   64MOL   H12422930   6.374   4.038   5.315  2.1205  3.0035  2.7718
   64MOL   H12522931   6.524   4.083   5.235 -0.7644 -0.4670  3.0703
   64MOL   H12622932   6.423   4.038   5.011 -0.3657  0.9789  0.5802
   64MOL   H12722933   6.479   3.907   5.114 -0.1659 -0.3098  1.4026
   64MOL   C12822934   6.182   4.004   5.016 -0.0420 -0.5696 -0.5408
   64MOL   O12922935   6.211   4.103   4.946 -0.0083  0.6710  0.2846
   64MOL   C13022936   6.037   3.966   5.034 -0.3088 -0.1138  0.1361
   64MOL   C13122937   5.989   3.904   4.905  0.3878  0.1545  0.0778
   64MOL   C13222938   5.831   3.894   4.901 -0.2900 -0.0929  0.1877
   64MOL   C13322939   5.788   3.820   4.778 -0.0416  0.6625 -0.2488
   64MOL   C13422940   5.639   3.785   4.746  0.0177 -0.7083 -0.2051
   64MOL   O13522941   5.586   3.731   4.866  0.2150  0.3756 -0.1967
   64MOL   H13622942   5.978   4.054   5.063  2.2917  1.3760  1.0151
   64MOL   H13722943   6.019   3.887   5.107 -0.5191  2.5289  3.1015
   64MOL   H13822944   6.047   3.813   4.893  0.9293  0.4071  0.7327
   64MOL   H13922945   6.013   3.968   4.820 -0.7675 -0.3332 -0.6319
   64MOL   H14022946   5.798   3.997   4.895  0.8285  0.4221  2.3918
   64MOL   H14122947   5.784   3.848   4.988  0.1847  1.0336  1.0536
   64MOL   H14222948   5.824   3.718   4.786  0.4350  0.8642  0.2176
   64MOL   H14322949   5.837   3.869   4.694  1.1920  0.5719  0.3936
   64MOL   H14422950   5.593   3.881   4.722  1.5296  0.2828  0.7680
   64MOL   H14522951   5.631   3.719   4.659  1.3106 -2.2980  0.8481
   64MOL   C14622952   5.580   3.609   4.911 -0.0081  0.4892  0.1296
   64MOL   O14722953   5.644   3.515   4.865  0.1943 -0.1866  0.3032
   64MOL   C14822954   5.479   3.594   5.021 -0.1071 -0.5969 -0.2241
   64MOL   C14922955   5.347   3.534   4.985 -0.3663  0.1030 -0.0382
   64MOL   C15022956   5.254   3.643   4.921  0.2602 -0.1177  0.0473
   64MOL   C15122957   5.249   3.647   4.764  0.0042  0.1720  0.3710
   64MOL   C15222958   5.164   3.756   4.703 -0.1367  0.1656 -0.1093
   64MOL   O15322959   5.163   3.764   4.561  0.1504 -0.4787  0.2215
   64MOL   H15422960   5.473   3.697   5.056 -0.9673 -0.0060 -2.0444
   64MOL   H15522961   5.533   3.542   5.101 -1.5236  0.9067  1.7506
   64MOL   H15622962   5.288   3.501   5.070 -0.8579 -1.6287 -1.0142
   64MOL   H15722963   5.365   3.453   4.914 -0.6264  0.6604 -0.7421
   64MOL   H15822964   5.288   3.738   4.963  1.2793 -0.7189  0.5907
   64MOL   H15922965   5.153   3.621   4.955  0.2232  0.4003  0.2774
   64MOL   H16022966   5.229   3.552   4.714 -1.1554  2.2923 -3.2755
   64MOL   H16122967   5.351   3.669   4.733 -0.2697  2.8822  1.2838
   64MOL   H16222968   5.064   3.742   4.743 -0.7109 -1.5678 -2.0615
   64MOL   H16322969   5.195   3.855   4.737  1.3760 -0.7416  1.2312
   64MOL   C16422970   5.051   3.798   4.499  0.3406  0.6465  0.4969
   64MOL   O16522971   4.945   3.813   4.552 -0.1693  0.1813  0.0321
   64MOL   C16622972   5.059   3.804   4.339  0.1001 -0.2179 -0.2459
   64MOL   C16722973   5.080   3.667   4.268 -0.0129  0.2567  0.4016
   64MOL   C16822974   4.955   3.581   4.278  0.5991 -0.0069  0.4442
   64MOL   C16922975   4.967   3.458   4.190  0.6717  0.0648 -0.0480
   64MOL   C17022976   4.835   3.376   4.179 -0.4333 -0.4077 -0.2262
   64MOL   O17122977   4.723   3.458   4.179 -0.0959  0.2827  0.1297
   64MOL   H17222978   5.141   3.866   4.302 -0.6005 -0.4863 -2.3258
   64MOL   H17322979   4.967   3.852   4.308  0.4000  0.8908  0.5657
   64MOL   H17422980   5.163   3.609   4.309 -0.9360  0.1512  2.1678
   64MOL   H17522981   5.108   3.675   4.163  0.6560 -2.1987  0.3434
   64MOL   H17622982   4.871   3.637   4.236  0.8462  0.1996  0.2291
   64MOL   H17722983   4.923   3.566   4.381 -1.3732 -1.4482 -0.3360
   64MOL   H17822984   5.047   3.399   4.235  0.7923  1.4427  1.5738
   64MOL   H17922985   4.990   3.494   4.089  1.2126 -3.0158 -1.0904
   64MOL   H18022986   4.837   3.311   4.091 -1.2469  1.8088 -1.9108
   64MOL   H18122987   4.829   3.309   4.265  0.3651  0.0275  0.1717
   64MOL   C18222988   4.612   3.407   4.140  0.1550 -0.8222 -0.9272
   64MOL   O18322989   4.595   3.300   4.092  0.2405  0.1110  0.1680
   64MOL   C18422990   4.493   3.501   4.152 -0.1896  0.4234 -0.2845
   64MOL   C18522991   4.482   3.613   4.048 -0.9395  0.6836 -0.3608
   64MOL   C18622992   4.442   3.560   3.912 -0.1595  0.3903  0.8070
   64MOL   C18722993   4.430   3.671   3.811 -0.0515  0.3758  0.2366
   64MOL   C18822994   4.366   3.625   3.677  0.6679 -0.0798  0.3911
   64MOL   O18922995   4.433   3.521   3.612  0.1229 -0.4804  0.5742
   64MOL   H19022996   4.518   3.542   4.250  0.2463 -1.1391  0.2810
   64MOL   H19122997   4.399   3.453   4.181  0.7650 -1.1619  0.2970
   64MOL   H19222998   4.574   3.667   4.028 -0.3411 -1.0828 -2.6748
   64MOL   H19322999   4.406   3.685   4.078 -1.3898 -0.0356  0.2397
   64MOL   H19423000   4.338   3.529   3.927  0.9857 -2.7808  2.4729
   64MOL   H19523001   4.510   3.490   3.865  0.6762  0.7682  1.4572
   64MOL   H19623002   4.533   3.703   3.794  0.1376 -0.1306  0.4139
   64MOL   H19723003   4.371   3.756   3.844 -0.8492 -0.4907  1.0528
   64MOL   H19823004   4.266   3.594   3.706  1.7284 -2.5799  1.4512
   64MOL   H19923005   4.354   3.704   3.602 -1.7587  1.1464  2.0034
   64MOL   C20023006   4.401   3.395   3.633  0.2064  0.3965  0.1445
   64MOL   O20123007   4.321   3.351   3.712 -0.5983  0.1646 -0.1388
   64MOL   C20223008   4.476   3.301   3.535 -0.1022  0.4054 -0.6492
   64MOL   C20323009   4.627   3.288   3.557  0.7462 -0.3646  0.0890
   64MOL   C20423010   4.713   3.399   3.494  0.1557  0.1124  0.0517
   64MOL   C20523011   4.858   3.394   3.557  0.6544 -0.2598 -0.4566
   64MOL   C20623012   4.945   3.494   3.483 -0.2607 -0.0733  0.5236
   64MOL   O20723013   5.070   3.499   3.551 -0.2826 -0.3367 -0.3275
   64MOL   H20823014   4.450   3.322   3.432  0.3446  1.9415 -0.4585
   64MOL   H20923015   4.428   3.203   3.543  2.7934 -1.1697 -1.7362
   64MOL   H21023016   4.659   3.186   3.537  0.3811 -0.7723  1.5130
   64MOL   H21123017   4.640   3.298   3.665 -0.7692 -0.8930  0.3385
   64MOL   H21223018   4.669   3.498   3.509 -2.6068 -0.7647 -1.8399
   64MOL   H21323019   4.713   3.390   3.385  1.0407  1.2508 -0.0562
   64MOL   H21423020   4.908   3.298   3.545 -0.3357 -1.0200  1.2547
   64MOL   H21523021   4.851   3.418   3.664 -2.0397  0.8574 -0.8368
   64MOL   H21623022   4.949   3.457   3.380  0.8688  0.0840  0.5056
   64MOL   H21723023   4.899   3.593   3.478  2.4212  1.3692  3.1614
   64MOL   C21823024   5.079   3.576   3.657 -0.7972 -0.5804 -0.0511
   64MOL   O21923025   4.995   3.644   3.714  0.2641  0.4822 -0.7609
   64MOL   C22023026   5.215   3.572   3.720  0.0118  0.4229 -0.1377
   64MOL   C22123027   5.212   3.471   3.832  0.6501  0.9196 -0.8159
   64MOL   C22223028   5.346   3.486   3.919 -0.5872  0.8616 -0.1002
   64MOL   C22323029   5.387   3.363   4.007  0.3319 -0.2947 -0.1226
   64MOL   C22423030   5.495   3.383   4.108  0.0220 -0.5611  0.0593
   64MOL   O22523031   5.528   3.263   4.174 -0.1381  0.4106 -0.2996
   64MOL   H22623032   5.245   3.673   3.750  1.8135 -0.1773  0.1263
   64MOL   H22723033   5.285   3.530   3.648  2.1653  0.9867  1.5662
   64MOL   H22823034   5.182   3.371   3.802  2.6840 -0.7646  2.4019
   64MOL   H22923035   5.124   3.498   3.891  1.8676  2.9972  0.1384
   64MOL   H23023036   5.344   3.572   3.987 -0.9029  1.2785 -0.6336
   64MOL   H23123037   5.422   3.520   3.848 -2.8696  1.7913 -2.1758
   64MOL   H23223038   5.411   3.275   3.946  2.2512  0.9401 -1.2030
   64MOL   H23323039   5.289   3.338   4.048  0.8278 -2.7748 -0.3407
   64MOL   H23423040   5.585   3.403   4.050  1.2395  0.4072  2.2583
   64MOL   H23523041   5.480   3.471   4.170 -0.2940 -1.6494  1.5738
   64MOL   C23623042   5.446   3.202   4.260 -0.3530  0.0444 -0.0050
   64MOL   O23723043   5.346   3.255   4.318 -0.6531 -0.2374  0.0903
   64MOL   C23823044   5.490   3.057   4.294 -0.5929  0.8512 -0.3566
   64MOL   C23923045   5.491   3.022   4.445  0.6837 -0.4076 -0.0166
   64MOL   C24023046   5.508   2.870   4.476  0.3558 -0.4710 -0.6052
   64MOL   C24123047   5.571   2.839   4.608  0.2381 -0.2147 -0.0703
   64MOL   C24223048   5.638   2.701   4.613 -0.8563  0.0967 -0.5301
   64MOL   O24323049   5.546   2.597   4.604  0.0283 -0.0560  0.1418
   64MOL   H24423050   5.591   3.043   4.257 -0.2712  1.2232  0.3965
   64MOL   H24523051   5.435   2.983   4.235 -0.6170  0.7581 -0.2185
   64MOL   H24623052   5.403   3.069   4.489  0.5042 -0.7823  0.0259
   64MOL   H24723053   5.582   3.062   4.489  0.7824 -0.4833 -0.1529
   64MOL   H24823054   5.573   2.832   4.397  1.3624 -1.0887  0.4956
   64MOL   H24923055   5.415   2.815   4.463  1.4168 -2.1445 -1.2529
   64MOL   H25023056   5.499   2.857   4.688  0.7847 -2.9548  1.1032
   64MOL   H25123057   5.651   2.903   4.647  0.2704 -0.4115  0.1902
   64MOL   H25223058   5.712   2.707   4.534  0.7566 -2.2128  0.7534
   64MOL   H25323059   5.692   2.688   4.706 -0.5632  1.2483 -0.5430
   64MOL   C25423060   5.598   2.475   4.626 -0.2608  0.0934 -0.5491
   64MOL   O25523061   5.718   2.446   4.634  0.6905  0.1455  0.2485
   64MOL   C25623062   5.491   2.359   4.621 -0.1737  0.5986  0.1657
   64MOL   C25723063   5.494   2.279   4.487 -0.3718 -0.4845 -0.0470
   64MOL   C25823064   5.628   2.229   4.447 -0.6175  0.1779 -0.2392
   64MOL   C25923065   5.614   2.113   4.342 -0.2194  0.2336 -0.2935
   64MOL   C26023066   5.749   2.066   4.290  0.1006 -0.0424 -0.1323
   64MOL   O26123067   5.805   1.973   4.379 -0.4511 -0.0021 -0.3744
   64MOL   H26223068   5.391   2.402   4.628 -1.5668 -2.4192 -0.3704
   64MOL   H26323069   5.498   2.283   4.699 -1.5728 -0.1515 -0.4051
   64MOL   H26423070   5.468   2.354   4.413 -0.5307  0.9167  1.4191
   64MOL   H26523071   5.421   2.198   4.487  0.6464 -1.4134  0.0464
   64MOL   H26623072   5.685   2.180   4.526  0.8896  0.1002 -1.3428
   64MOL   H26723073   5.687   2.308   4.400 -1.7762 -0.0991 -2.2240
   64MOL   H26823074   5.544   2.138   4.262  1.3115  0.3857 -1.6240
   64MOL   H26923075   5.564   2.030   4.391  0.8425 -0.8086 -0.9409
   64MOL   H27023076   5.735   2.011   4.197  1.8071 -0.1363 -0.3502
   64MOL   H27123077   5.817   2.150   4.273  1.2721 -0.5557  1.8850
   64MOL   C27223078   5.926   2.001   4.438 -0.5761 -0.1548 -0.6401
   64MOL   O27323079   6.002   2.094   4.416  0.0008 -0.4336  0.5787
   64MOL   C27423080   5.972   1.892   4.536 -0.4485 -0.0520 -0.4989
   64MOL   C27523081   6.028   1.768   4.461 -0.5862 -0.4155 -0.4620
   64MOL   C27623082   6.166   1.791   4.401  0.1916 -0.2596  0.3596
   64MOL   C27723083   6.280   1.739   4.482 -0.5314  0.0959 -0.0832
   64MOL   C27823084   6.415   1.783   4.420  0.0791 -0.6839 -0.4789
   64MOL   O27923085   6.418   1.928   4.419  0.4142  0.3435  0.5604
   64MOL   H28023086   5.885   1.855   4.592 -0.8997 -0.2772 -1.3428
   64MOL   H28123087   6.043   1.940   4.604  1.1565 -2.1656 -0.6294
   64MOL   H28223088   5.962   1.725   4.385 -2.0658  0.1271  0.4882
   64MOL   H28323089   6.041   1.694   4.540 -0.0803  1.6531  1.4343
   64MOL   H28423090   6.181   1.899   4.412 -1.4050 -0.2096  2.2055
   64MOL   H28523091   6.178   1.759   4.297 -0.7087 -1.1421  0.5223
   64MOL   H28623092   6.281   1.631   4.467  1.3242  0.0925  0.0100
   64MOL   H28723093   6.279   1.756   4.589 -0.4483 -0.7373  0.0570
   64MOL   H28823094   6.498   1.750   4.482  0.2416  0.8817  0.1799
   64MOL   H28923095   6.438   1.736   4.325  0.8059 -1.0734 -0.1119
   64MOL   C29023096   6.457   1.994   4.310 -0.0179 -0.5996 -0.0322
   64MOL   O29123097   6.485   1.944   4.201  0.2305 -0.1474 -0.3077
   64MOL   C29223098   6.450   2.139   4.346  0.7977 -0.6680 -0.6271
   64MOL   C29323099   6.591   2.197   4.370 -0.0673 -0.2248 -0.3370
   64MOL   C29423100   6.653   2.164   4.508 -0.0312 -0.1796  0.6365
   64MOL   C29523101   6.570   2.202   4.631 -0.1256  0.0083  0.4647
   64MOL   C29623102   6.529   2.358   4.632  0.9265  0.5834 -0.3700
   64MOL   O29723103   6.620   2.444   4.700  0.3764 -0.1897  0.4601
   64MOL   H29823104   6.381   2.144   4.430  1.6281 -0.2895  0.0429
   64MOL   H29923105   6.400   2.175   4.257  0.4711  0.3286 -0.0535
   64MOL   H30023106   6.602   2.303   4.347 -0.8614 -0.6085 -2.6202
   64MOL   H30123107   6.661   2.155   4.297 -0.9237 -1.6176 -0.3866
   64MOL   H30223108   6.756   2.199   4.513  0.4186 -1.6296  1.9152
   64MOL   H30323109   6.678   2.058   4.513  0.1672 -0.0791  2.1544
   64MOL   H30423110   6.634   2.171   4.714  0.7849  2.6567  0.7984
   64MOL   H30523111   6.487   2.134   4.649  0.0648 -0.1450  0.7674
   64MOL   H30623112   6.491   2.391   4.535 -0.9774  1.0162  0.4926
   64MOL   H30723113   6.438   2.365   4.691  1.7070 -1.1403  1.0912
   64MOL   C30823114   6.585   2.578   4.713  0.4916 -0.2657  0.6873
   64MOL   O30923115   6.471   2.617   4.679 -0.2501 -0.0155 -0.1459
   64MOL   C31023116   6.688   2.669   4.783  0.1636  0.1355  0.7377
   64MOL   C31123117   6.813   2.698   4.688  0.0760 -0.1709 -0.2952
   64MOL   C31223118   6.918   2.779   4.749 -0.1205  0.1112  0.7517
   64MOL   C31323119   6.953   2.741   4.896 -0.0874 -0.8461  0.1771
   64MOL   C31423120   7.090   2.795   4.943  0.3164 -0.5081 -0.3026
   64MOL   O31523121   7.092   2.935   4.964  0.0607  0.6183 -0.2028
   64MOL   H31623122   6.717   2.624   4.878  2.0197 -0.1921  0.0545
   64MOL   H31723123   6.633   2.759   4.810 -1.5359 -0.5236 -0.4494
   64MOL   H31823124   6.787   2.734   4.589  2.1814 -0.4052 -0.9733
   64MOL   H31923125   6.860   2.601   4.668  1.4940  0.2946  0.6801
   64MOL   H32023126   6.877   2.880   4.753 -0.5164  0.0789 -1.8411
   64MOL   H32123127   7.008   2.773   4.688 -0.1160  0.0610  0.7637
   64MOL   H32223128   6.962   2.633   4.905 -1.5254 -0.9724  0.2032
   64MOL   H32323129   6.871   2.770   4.962 -0.6397 -2.1711  0.0815
   64MOL   H32423130   7.117   2.740   5.033 -1.0459  1.4052  1.3206
   64MOL   H32523131   7.162   2.764   4.868  1.6898  0.1630  0.7289
   64MOL   C32623132   7.165   3.020   4.895  0.5406  0.2824  0.3204
   64MOL   O32723133   7.271   2.995   4.836  0.2678 -0.0296 -0.0495
   64MOL   C32823134   7.098   3.162   4.901 -0.7798 -0.7445  0.3416
   64MOL   C32923135   7.203   3.263   4.854 -0.9974 -0.2919 -0.5685
   64MOL   C33023136   7.158   3.409   4.880 -0.0894  0.3094 -0.1790
   64MOL   C33123137   7.222   3.447   5.017 -0.6816  0.3764  0.3306
   64MOL   C33223138   7.193   3.594   5.051 -0.2380 -0.9594  1.2278
   64MOL   O33323139   7.278   3.631   5.165 -0.2424  0.1589  0.0872
   64MOL   H33423140   7.062   3.172   5.004  1.0891 -0.0460  0.9585
   64MOL   H33523141   7.016   3.175   4.831 -1.8367  1.7902  1.9922
   64MOL   H33623142   7.227   3.245   4.749 -0.3844 -0.7989 -0.3450
   64MOL   H33723143   7.296   3.230   4.900 -0.9938 -1.4081 -1.3681
   64MOL   H33823144   7.051   3.427   4.871  0.1387  1.2703 -0.9884
   64MOL   H33923145   7.199   3.463   4.795 -0.8449  0.9040 -0.1736
   64MOL   H34023146   7.329   3.427   5.006 -0.5487 -0.4013  2.6801
   64MOL   H34123147   7.187   3.381   5.097 -0.0121 -1.5848 -0.9335
   64MOL   H34223148   7.235   3.649   4.967 -1.0904  0.7222  1.8916
   64MOL   H34323149   7.090   3.629   5.055  0.2081  0.4946  0.2992
   64MOL   C34423150   7.289   3.759   5.200  0.0626 -0.3137  0.6246
   64MOL   O34523151   7.216   3.847   5.160  0.0631  0.1337  0.2157
   64MOL   C34623152   7.410   3.793   5.282 -0.0957 -0.2702  0.0183
   64MOL   C34723153   7.541   3.794   5.200 -0.2768 -1.0426  0.1585
   64MOL   C34823154   7.593   3.654   5.170  0.1593 -0.8795 -0.1263
   64MOL   C34923155   7.638   3.571   5.291  0.5620 -0.5060  0.7308
   64MOL   C35023156   7.709   3.438   5.246 -0.6538  0.1205  0.3325
   64MOL   O35123157   7.613   3.341   5.200 -0.1947 -0.3507 -0.1112
   64MOL   H35223158   7.407   3.727   5.368 -1.4598 -0.6126 -0.2825
   64MOL   H35323159   7.398   3.897   5.313  1.5942 -0.5027  1.5079
   64MOL   H35423160   7.619   3.839   5.262 -0.4673 -0.6797  0.1342
   64MOL   H35523161   7.529   3.852   5.108 -1.3283 -1.7516 -0.1519
   64MOL   H35623162   7.676   3.666   5.100  0.3369  0.0071  0.2286
   64MOL   H35723163   7.508   3.617   5.112  0.8421 -2.2834 -0.2480
   64MOL   H35823164   7.561   3.554   5.365 -0.1592 -1.6390 -0.2566
   64MOL   H35923165   7.710   3.628   5.350 -1.6939 -0.4784  3.5324
   64MOL   H36023166   7.796   3.439   5.181  0.0002  1.7923  1.2084
   64MOL   H36123167   7.742   3.391   5.338  1.0239 -2.4926 -1.5158
   64MOL   H36223168   7.594   3.361   5.110  1.1509 -3.0891 -1.0564
   65MOL     C123169   7.239   6.168   0.111  0.1458 -0.0709  0.2625
   65MOL     O223170   7.298   6.266   0.066 -0.5382  0.3833 -0.2690
   65MOL     C323171   7.243   6.153   0.262  0.9161 -0.0740  0.3952
   65MOL     C423172   7.160   6.264   0.327  0.1874 -0.4653  0.2101
   65MOL     C523173   7.004   6.246   0.318 -0.5510  0.7575  0.0706
   65MOL     C623174   6.941   6.364   0.379 -0.1310 -0.2227  0.6616
   65MOL     C723175   6.798   6.395   0.343  0.3553  0.0696 -0.2147
   65MOL     O823176   6.772   6.516   0.407 -0.7860 -0.0071  0.2154
   65MOL     H923177   7.344   6.157   0.303  0.5293  1.2218  1.2474
   65MOL    H1023178   7.202   6.055   0.285  0.7139  0.0063  0.3772
   65MOL    H1123179   7.199   6.360   0.294 -2.2112  1.0784  1.6799
   65MOL    H1223180   7.182   6.272   0.434 -0.2200  0.5787  0.2204
   65MOL    H1323181   6.972   6.153   0.366 -1.0929  0.5700 -0.6380
   65MOL    H1423182   6.973   6.239   0.214 -1.7191 -2.4873  0.5814
   65MOL    H1523183   6.996   6.455   0.357 -0.1050 -0.0687  1.3426
   65MOL    H1623184   6.964   6.357   0.486  1.6965  0.4129  0.3265
   65MOL    H1723185   6.797   6.402   0.235  1.1591 -2.2420 -0.4109
   65MOL    H1823186   6.730   6.315   0.374 -1.6377  1.9367  0.3207
   65MOL    H1923187   7.183   6.091   0.059 -1.3911  0.6167  0.8657
   65MOL    C2023188   6.668   6.595   0.358 -0.6711 -0.9149  0.1514
   65MOL    O2123189   6.592   6.564   0.268 -0.2351  0.5785 -0.0591
   65MOL    C2223190   6.663   6.727   0.435 -0.5298  0.1971 -0.0393
   65MOL    C2323191   6.539   6.730   0.526 -0.3697  0.1525  0.4019
   65MOL    C2423192   6.544   6.637   0.647 -1.1057 -0.0351  0.3370
   65MOL    C2523193   6.416   6.650   0.728 -0.5813 -0.7278  0.2073
   65MOL    C2623194   6.319   6.542   0.705  0.5795 -0.2273  0.1415
   65MOL    O2723195   6.374   6.418   0.746 -0.6813  0.3010  0.0599
   65MOL    H2823196   6.657   6.808   0.362 -0.7548 -0.6456 -0.9596
   65MOL    H2923197   6.751   6.743   0.498  0.7872 -2.1287 -1.2605
   65MOL    H3023198   6.465   6.703   0.451  0.7631 -0.3782 -0.5456
   65MOL    H3123199   6.515   6.835   0.542 -0.1738  0.4340 -1.1056
   65MOL    H3223200   6.625   6.656   0.718  0.4581 -1.6072 -0.9739
   65MOL    H3323201   6.557   6.531   0.624 -0.6768  0.1666 -0.3924
   65MOL    H3423202   6.357   6.739   0.705  1.6394  0.4592 -0.9725
   65MOL    H3523203   6.431   6.668   0.834 -0.8240  0.9339 -0.0294
   65MOL    H3623204   6.226   6.558   0.759  0.2604  1.0224 -0.7664
   65MOL    H3723205   6.283   6.547   0.603 -1.4181 -0.2394  0.8338
   65MOL    C3823206   6.377   6.392   0.879  0.1104  0.3858  0.1391
   65MOL    O3923207   6.342   6.468   0.968  0.5299  0.3613  0.2368
   65MOL    C4023208   6.431   6.251   0.897  0.7844 -0.2662  0.2187
   65MOL    C4123209   6.328   6.144   0.918  0.1423  0.4719 -0.3867
   65MOL    C4223210   6.345   6.022   0.825 -0.3079  0.0652  0.0340
   65MOL    C4323211   6.250   5.907   0.878 -0.0313  0.0423 -0.6772
   65MOL    C4423212   6.239   5.803   0.762  0.1660 -0.1116 -0.2077
   65MOL    O4523213   6.362   5.739   0.744  0.4868  0.3279 -0.3191
   65MOL    H4623214   6.509   6.250   0.974  0.6375  1.1914  0.4035
   65MOL    H4723215   6.484   6.222   0.807  0.0724 -0.4820 -0.1333
   65MOL    H4823216   6.229   6.184   0.893 -0.2437 -0.4588 -0.3682
   65MOL    H4923217   6.324   6.109   1.021 -2.1563 -0.0592 -0.6166
   65MOL    H5023218   6.449   5.989   0.825 -0.2152  0.3642  0.5298
   65MOL    H5123219   6.321   6.048   0.722 -0.3060 -1.4950 -0.3740
   65MOL    H5223220   6.147   5.935   0.902  0.5065  1.3098  0.2105
   65MOL    H5323221   6.274   5.853   0.969  1.1510  1.1304 -0.3278
   65MOL    H5423222   6.175   5.719   0.788 -0.5913  1.0266  1.6390
   65MOL    H5523223   6.209   5.846   0.666 -4.0853  0.6358  1.3738
   65MOL    C5623224   6.388   5.620   0.796 -0.2141 -0.0272  0.1851
   65MOL    O5723225   6.314   5.551   0.862  0.2464  0.3529  0.8886
   65MOL    C5823226   6.526   5.574   0.744  0.0196  0.2266 -0.0324
   65MOL    C5923227   6.549   5.542   0.590 -0.0041  0.5380 -0.2204
   65MOL    C6023228   6.484   5.406   0.540  0.1966 -0.7307  0.1641
   65MOL    C6123229   6.504   5.353   0.398 -0.1180 -0.3817  0.1957
   65MOL    C6223230   6.411   5.234   0.372 -0.7318 -0.5152 -0.0218
   65MOL    O6323231   6.449   5.176   0.253  0.2873 -0.6311 -0.2551
   65MOL    H6423232   6.548   5.482   0.798 -2.4030  0.4157  1.3834
   65MOL    H6523233   6.587   5.660   0.769  1.0693 -0.4365 -0.3045
   65MOL    H6623234   6.658   5.533   0.586 -0.1321 -0.9580 -0.9211
   65MOL    H6723235   6.531   5.626   0.524 -2.7412 -1.8078 -2.5883
   65MOL    H6823236   6.377   5.403   0.561 -0.0857 -0.2602 -1.1166
   65MOL    H6923237   6.532   5.333   0.605  1.6719  0.6626  0.6760
   65MOL    H7023238   6.610   5.333   0.383 -0.2284 -1.9664  1.4361
   65MOL    H7123239   6.481   5.436   0.331  0.0524  0.9937  1.7916
   65MOL    H7223240   6.428   5.152   0.443 -0.9132 -1.1427 -0.6927
   65MOL    H7323241   6.308   5.267   0.386  0.0983  2.3960 -0.6296
   65MOL    C7423242   6.379   5.202   0.141 -0.0213  0.1553  0.0357
   65MOL    O7523243   6.265   5.249   0.139  0.0806 -0.2221  0.4291
   65MOL    C7623244   6.447   5.159   0.009  0.3054  0.3176  0.2809
   65MOL    C7723245   6.381   5.219   7.730 -0.1439  0.4013  0.7258
   65MOL    C7823246   6.470   5.203   7.608 -0.7593  0.6310  0.0114
   65MOL    C7923247   6.453   5.062   7.544 -0.2455  0.4950  0.5867
   65MOL    C8023248   6.314   5.033   7.492 -0.0066  0.0158 -0.0404
   65MOL    O8123249   6.247   5.129   7.411 -0.3732  0.8144 -0.1097
   65MOL    H8223250   6.455   5.050   0.008  0.1349  0.3066 -1.4495
   65MOL    H8323251   6.547   5.200   0.016  0.7780 -0.7029 -0.2984
   65MOL    H8423252   6.354   5.324   7.734 -1.8803  0.0167 -0.5652
   65MOL    H8523253   6.288   5.163   7.724  0.2175 -0.5004  3.0457
   65MOL    H8623254   6.571   5.243   7.620  0.2971 -1.2324 -2.2003
   65MOL    H8723255   6.439   5.271   7.528 -0.1634  2.4363  1.2918
   65MOL    H8823256   6.480   4.981   7.611  1.4541  1.1018  0.6608
   65MOL    H8923257   6.525   5.061   7.461 -0.1888  1.8989  0.6017
   65MOL    H9023258   6.316   4.932   7.452  2.1713  0.6371 -1.6054
   65MOL    H9123259   6.250   5.023   7.579 -1.9272 -0.7320 -1.5094
   65MOL    C9223260   6.238   5.122   7.279 -0.3317  0.1580 -0.6174
   65MOL    O9323261   6.287   5.039   7.208 -0.1651 -0.4047 -0.4556
   65MOL    C9423262   6.148   5.230   7.224  0.2776  0.3850 -0.4310
   65MOL    C9523263   6.031   5.266   7.315 -0.4551 -0.1139  0.1017
   65MOL    C9623264   5.929   5.359   7.242 -0.0710  0.5028 -0.3358
   65MOL    C9723265   5.977   5.504   7.228 -0.0187 -0.5982 -0.7007
   65MOL    C9823266   5.863   5.602   7.177 -0.0670  1.1459 -0.1785
   65MOL    O9923267   5.906   5.737   7.184  0.1120 -0.0181  0.5259
   65MOL   H10023268   6.111   5.192   7.128  1.2147  0.4270 -0.8158
   65MOL   H10123269   6.203   5.321   7.202 -1.3203  1.7234  1.0537
   65MOL   H10223270   6.054   5.318   7.409  0.2714  0.9957 -0.6727
   65MOL   H10323271   5.991   5.169   7.343  1.1370 -0.6358  0.6411
   65MOL   H10423272   5.838   5.353   7.301  1.3065 -1.7111  1.6083
   65MOL   H10523273   5.908   5.317   7.144 -1.2686 -3.2447  1.4477
   65MOL   H10623274   6.056   5.518   7.154  0.8044  1.3916  0.5477
   65MOL   H10723275   6.009   5.528   7.329 -0.7758  0.8088 -0.7910
   65MOL   H10823276   5.835   5.574   7.075 -2.2817  0.7219  0.5236
   65MOL   H10923277   5.782   5.578   7.245 -0.2136 -2.6803 -1.5849
   65MOL   C11023278   5.872   5.811   7.292  0.0156 -0.3418  0.2415
   65MOL   O11123279   5.804   5.770   7.389 -0.2503 -0.9354 -0.5511
   65MOL   C11223280   5.941   5.953   7.303  0.4077  0.5724  0.1305
   65MOL   C11323281   6.010   5.979   7.431 -0.1224  0.1906  0.5954
   65MOL   C11423282   6.068   6.118   7.450  0.2794 -0.4831 -0.3389
   65MOL   C11523283   6.179   6.130   7.557  0.4374 -0.1051 -1.5549
   65MOL   C11623284   6.131   6.078   7.696  0.1865  0.0094  0.2937
   65MOL   O11723285   6.209   6.113   7.809  0.0297 -0.3518  0.2494
   65MOL   H11823286   5.872   6.029   7.267  0.1693  0.4767  0.3793
   65MOL   H11923287   6.019   5.943   7.227 -1.0742  0.1192 -1.3533
   65MOL   H12023288   6.083   5.898   7.432 -0.5214 -0.2662 -2.2705
   65MOL   H12123289   5.936   5.960   7.509  0.6750 -0.2865  1.2439
   65MOL   H12223290   5.984   6.187   7.464  2.4840  2.2882 -0.2530
   65MOL   H12323291   6.105   6.152   7.353  0.5143 -1.1753 -0.4882
   65MOL   H12423292   6.195   6.237   7.572  2.6914 -0.6155 -0.1705
   65MOL   H12523293   6.268   6.076   7.525  0.0599 -1.2037 -0.7729
   65MOL   H12623294   6.034   6.126   7.707 -0.5893 -0.9298 -2.1062
   65MOL   H12723295   6.125   5.969   7.701  0.2506  0.0740  2.4357
   65MOL   C12823296   6.335   6.073   7.822  0.7749 -0.1687  0.4080
   65MOL   O12923297   6.405   6.024   7.736  0.4191 -0.3219 -0.4224
   65MOL   C13023298   6.382   6.104   0.115 -0.2480 -0.2586 -0.0077
   65MOL   C13123299   6.378   6.248   0.160  0.1521 -0.3118 -0.1063
   65MOL   C13223300   6.244   6.297   0.211  0.4418 -0.1391  0.5740
   65MOL   C13323301   6.247   6.448   0.259  0.0449 -0.0604  0.6188
   65MOL   C13423302   6.135   6.496   0.355 -0.3393 -0.7386 -0.1548
   65MOL   O13523303   6.130   6.417   0.472 -0.8483 -0.6695  0.1837
   65MOL   H13623304   6.486   6.074   0.105 -1.5367 -3.8503 -3.9066
   65MOL   H13723305   6.327   6.041   0.184  0.6609  1.5757  2.4885
   65MOL   H13823306   6.421   6.310   0.081 -0.3064  1.2994  0.8963
   65MOL   H13923307   6.456   6.265   0.234 -0.3554 -2.6213  1.0249
   65MOL   H14023308   6.215   6.242   0.300 -1.4964  1.0813  0.7403
   65MOL   H14123309   6.160   6.277   0.144  1.1777 -0.6652 -0.2042
   65MOL   H14223310   6.264   6.527   0.185 -1.1812 -0.2491  0.1292
   65MOL   H14323311   6.328   6.454   0.332  0.3189 -1.9133  0.5065
   65MOL   H14423312   6.154   6.601   0.379 -1.9023 -0.2546 -0.9954
   65MOL   H14523313   6.038   6.504   0.307  0.5321 -0.0277 -1.8580
   65MOL   C14623314   6.018   6.375   0.525  0.5396  0.0089  0.5066
   65MOL   O14723315   5.903   6.406   0.487  0.2341  0.2060  0.2800
   65MOL   C14823316   6.030   6.296   0.650 -0.5558 -0.1729  0.2555
   65MOL   C14923317   6.063   6.142   0.630 -0.2322 -0.4595 -0.5915
   65MOL   C15023318   5.951   6.064   0.557 -0.0707 -0.7056  0.1079
   65MOL   C15123319   5.990   6.013   0.419 -0.1547 -0.3145 -0.2512
   65MOL   C15223320   5.874   5.961   0.339 -0.5930  0.6599 -0.1969
   65MOL   O15323321   5.772   6.054   0.315 -0.3194  1.0567  0.2468
   65MOL   H15423322   5.930   6.292   0.694 -0.2839  0.6805  0.9771
   65MOL   H15523323   6.091   6.345   0.726  0.3040  0.4696 -0.8416
   65MOL   H15623324   6.075   6.090   0.725  2.6559 -1.1467 -1.2787
   65MOL   H15723325   6.165   6.139   0.591 -0.3345 -0.6642 -0.8463
   65MOL   H15823326   5.866   6.132   0.551  0.3721 -0.2728 -1.6044
   65MOL   H15923327   5.902   5.983   0.610 -0.4433  0.1322  1.0494
   65MOL   H16023328   6.058   5.932   0.444 -1.4940 -1.0686  1.0402
   65MOL   H16123329   6.047   6.090   0.368  0.0532  0.1005  0.5901
   65MOL   H16223330   5.894   5.902   0.250 -0.3110  0.1037  0.2259
   65MOL   H16323331   5.825   5.895   0.412  0.3560  0.2436  0.0690
   65MOL   C16423332   5.776   6.130   0.205 -0.4365 -0.0937  0.0370
   65MOL   O16523333   5.860   6.115   0.110  0.4600 -0.3669  0.2072
   65MOL   C16623334   5.670   6.241   0.204 -0.5925  0.2609 -0.1197
   65MOL   C16723335   5.726   6.383   0.187  0.3889  0.5804 -0.0067
   65MOL   C16823336   5.775   6.419   0.044 -0.4574  0.6913 -0.3984
   65MOL   C16923337   5.671   6.465   7.790  0.0864 -0.1762  0.1567
   65MOL   C17023338   5.712   6.557   7.668 -0.1646 -0.3749  0.2627
   65MOL   O17123339   5.594   6.614   7.603 -0.4526 -1.0625 -0.0463
   65MOL   H17223340   5.619   6.248   0.300  0.9465  3.2168  0.5697
   65MOL   H17323341   5.592   6.223   0.130  0.8596 -1.1885 -1.3195
   65MOL   H17423342   5.817   6.398   0.245 -0.0142 -0.5517  0.9518
   65MOL   H17523343   5.651   6.457   0.213  0.2992 -0.1764  1.9661
   65MOL   H17623344   5.836   6.335   0.011  0.8376  0.9310  1.2917
   65MOL   H17723345   5.847   6.501   0.050  1.6004 -1.1958  1.4818
   65MOL   H17823346   5.585   6.519   7.830  0.3285  0.1259  0.2773
   65MOL   H17923347   5.627   6.373   7.753 -0.2685 -0.5303  1.4498
   65MOL   H18023348   5.782   6.630   7.705  1.7320 -2.1230  0.2173
   65MOL   H18123349   5.762   6.497   7.592  0.9419  2.3449 -1.1847
   65MOL   C18223350   5.607   6.668   7.484 -0.0472 -0.0183 -0.3304
   65MOL   O18323351   5.709   6.694   7.426  0.1563  0.5319 -0.3109
   65MOL   C18423352   5.468   6.701   7.415  0.0595  0.0342 -0.5718
   65MOL   C18523353   5.427   6.847   7.424  0.4033 -0.1695  0.3984
   65MOL   C18623354   5.349   6.883   7.556  0.7542  0.0743 -0.2907
   65MOL   C18723355   5.199   6.854   7.538  0.3525  0.1700 -0.7058
   65MOL   C18823356   5.118   6.901   7.658 -0.2977  0.9751 -0.2611
   65MOL   O18923357   4.984   6.852   7.654 -0.6046  0.0967  0.4449
   65MOL   H19023358   5.392   6.649   7.473  0.4448  1.7524  1.5327
   65MOL   H19123359   5.469   6.652   7.318 -0.5910 -0.2406 -0.4437
   65MOL   H19223360   5.371   6.883   7.338  1.5702 -1.7413 -1.0456
   65MOL   H19323361   5.518   6.905   7.409  0.4608 -0.3986 -0.1305
   65MOL   H19423362   5.362   6.990   7.574  0.1322 -0.0674  1.1143
   65MOL   H19523363   5.397   6.830   7.639 -1.7285  1.0169  1.8171
   65MOL   H19623364   5.191   6.747   7.517  1.0007 -0.0425  0.1222
   65MOL   H19723365   5.173   6.912   7.449  1.4951  1.7834 -0.0093
   65MOL   H19823366   5.150   6.866   7.756 -0.2612  1.1580 -0.2077
   65MOL   H19923367   5.113   7.009   7.673  0.2525  0.9173  0.3616
   65MOL   C20023368   4.892   6.920   7.584  0.1840  0.1982 -0.2017
   65MOL   O20123369   4.908   7.021   7.520 -0.6238  0.7794  0.2366
   65MOL   C20223370   4.761   6.837   7.567 -0.3288 -0.6951  0.0324
   65MOL   C20323371   4.695   6.848   7.432  0.3525 -0.3669 -0.3499
   65MOL   C20423372   4.623   6.984   7.426 -0.0258  0.0478  0.6430
   65MOL   C20523373   4.549   7.011   7.298  0.6405 -0.2674 -0.0486
   65MOL   C20623374   4.465   7.140   7.285 -0.2669  0.0191  0.2018
   65MOL   O20723375   4.541   7.253   7.325  0.3479  0.2627  0.4351
   65MOL   H20823376   4.689   6.865   7.644 -0.4438  1.4006 -0.8012
   65MOL   H20923377   4.792   6.735   7.592  0.9848 -0.0550  1.1043
   65MOL   H21023378   4.630   6.766   7.401  1.7897 -1.6081 -0.0894
   65MOL   H21123379   4.772   6.846   7.355  0.3689 -0.8759 -0.3211
   65MOL   H21223380   4.696   7.064   7.436  1.2602 -1.0847  0.3677
   65MOL   H21323381   4.555   7.006   7.509 -0.0350  2.0618  0.1135
   65MOL   H21423382   4.489   6.920   7.286 -1.2951  1.2783 -2.7504
   65MOL   H21523383   4.615   7.005   7.211 -0.6398 -1.1519 -0.9816
   65MOL   H21623384   4.438   7.155   7.180  0.1157 -0.1286  0.0827
   65MOL   H21723385   4.381   7.144   7.354  0.6239 -3.5391  1.5860
   65MOL   C21823386   4.489   7.371   7.324  0.7196  0.1090 -0.0680
   65MOL   O21923387   4.383   7.405   7.275  0.1495  0.4182 -0.2184
   65MOL   C22023388   4.580   7.482   7.378  0.0126  0.2777  0.3775
   65MOL   C22123389   4.586   7.482   7.532  0.6560 -0.2934 -0.2695
   65MOL   C22223390   4.714   7.413   7.587 -0.7131  0.0230 -0.5216
   65MOL   C22323391   4.725   7.435   7.750  0.4020 -0.8105  0.0297
   65MOL   C22423392   4.879   7.409   7.792 -0.8059  0.8805  0.0018
   65MOL   O22523393   4.904   7.511   0.045  0.8756 -0.0613  0.1367
   65MOL   H22623394   4.550   7.579   7.338  0.6103  1.5836  2.9889
   65MOL   H22723395   4.683   7.459   7.348 -0.4208 -2.5684  0.9243
   65MOL   H22823396   4.503   7.433   7.583  0.9689  0.3174  0.8391
   65MOL   H22923397   4.590   7.585   7.566 -0.7576 -0.0061 -0.9217
   65MOL   H23023398   4.802   7.449   7.534  0.0282  0.9753  1.3330
   65MOL   H23123399   4.716   7.306   7.563  0.2513 -0.2708  0.8405
   65MOL   H23223400   4.656   7.363   7.794 -0.8308  0.9993  1.1423
   65MOL   H23323401   4.699   7.537   7.778  0.6965 -0.2774 -1.5528
   65MOL   H23423402   4.895   7.302   7.806 -0.1729  0.6609 -2.1728
   65MOL   H23523403   4.944   7.442   7.710 -1.1193 -0.7457 -0.9226
   65MOL   C23623404   4.994   7.485   0.145  0.1106  0.1335  0.0200
   65MOL   O23723405   5.046   7.373   0.166  0.7190  0.1770  0.8303
   65MOL   C23823406   5.023   7.603   0.229 -0.1846  0.4071  0.3058
   65MOL   C23923407   5.054   7.729   0.152  0.1644  0.5818  0.1097
   65MOL   C24023408   5.191   7.741   0.080  0.0704 -0.4229 -0.3523
   65MOL   C24123409   5.205   0.030   0.007 -0.5947  0.3057 -0.1002
   65MOL   C24223410   5.337   0.080   7.795  0.3565  0.4243  0.4774
   65MOL   O24323411   5.395   7.834   7.702  0.0844  0.3354  0.1084
   65MOL   H24423412   5.111   7.586   0.292 -0.2526  0.6963  0.4778
   65MOL   H24523413   4.937   7.616   0.294  2.6322 -0.2987  4.3301
   65MOL   H24623414   5.033   7.803   0.230 -0.0461 -2.0404  2.6414
   65MOL   H24723415   4.965   7.748   0.093 -0.3507 -0.8915  0.3972
   65MOL   H24823416   5.214   7.662   0.009  1.0879 -1.1423  0.7646
   65MOL   H24923417   5.275   7.730   0.149  1.5110  0.3386 -1.9571
   65MOL   H25023418   5.148   0.103   0.064 -2.6445 -0.6493 -0.8468
   65MOL   H25123419   5.127   0.025   7.774 -0.3104  2.1633 -0.5144
   65MOL   H25223420   5.307   0.176   7.751 -1.7737  0.3687  1.7695
   65MOL   H25323421   5.407   0.101   0.032  1.1439  0.5718 -0.2226
   65MOL   C25423422   5.457   0.039   7.594  0.2863  0.2521  0.2344
   65MOL   O25523423   5.445   0.156   7.552 -0.2633 -0.3475 -0.3171
   65MOL   C25623424   5.543   7.777   7.517 -0.3679 -0.3744  0.2595
   65MOL   C25723425   5.486   7.632   7.504 -0.1425 -1.0329 -0.4053
   65MOL   C25823426   5.543   7.551   7.388  0.5208  0.3943  0.1943
   65MOL   C25923427   5.441   7.555   7.267 -0.1258 -0.3053 -0.2444
   65MOL   C26023428   5.507   7.554   7.128  0.0368  1.1860  0.1901
   65MOL   O26123429   5.580   7.678   7.112 -0.3808  0.0725 -0.1067
   65MOL   H26223430   5.644   7.800   7.551  0.1585 -1.8117 -0.2643
   65MOL   H26323431   5.533   7.821   7.418 -1.0728  1.0017  0.9317
   65MOL   H26423432   5.378   7.624   7.503 -0.1308 -1.2204  0.0494
   65MOL   H26523433   5.504   7.582   7.599 -0.8101 -0.2435  0.1434
   65MOL   H26623434   5.554   7.448   7.422  0.0654  1.0143  2.3540
   65MOL   H26723435   5.640   7.592   7.360  1.1355 -1.1692 -0.0236
   65MOL   H26823436   5.372   7.640   7.270  2.1107  1.5743 -0.9552
   65MOL   H26923437   5.377   7.467   7.259 -0.3815 -0.0894 -0.5902
   65MOL   H27023438   5.569   7.467   7.108  2.3067  2.2981  2.2139
   65MOL   H27123439   5.428   7.562   7.052 -0.1362  2.3702  0.4798
   65MOL   C27223440   5.720   7.672   7.113  0.3203 -0.4735 -0.6154
   65MOL   O27323441   5.784   7.570   7.114  0.1456  0.4206 -0.4173
   65MOL   C27423442   5.785   7.809   7.124  0.3539  0.0656 -0.1014
   65MOL   C27523443   5.726   0.046   7.238  0.4557 -0.5415  0.7981
   65MOL   C27623444   5.802   0.173   7.286  0.0057  0.4686 -0.0860
   65MOL   C27723445   5.754   0.227   7.422 -0.7914  0.1543 -0.8244
   65MOL   C27823446   5.840   0.341   7.478  0.5085  0.0787  0.7883
   65MOL   O27923447   5.944   0.294   7.562 -0.0610  0.0489 -0.5603
   65MOL   H28023448   5.783   0.023   7.032  2.7650 -2.4873 -1.8885
   65MOL   H28123449   5.892   7.791   7.137  0.3511 -0.0239 -0.1872
   65MOL   H28223450   5.714   7.826   7.326  0.4401 -3.2851 -1.1700
   65MOL   H28323451   5.625   0.081   7.216  1.7637  1.7441 -1.8076
   65MOL   H28423452   5.808   0.256   7.216  2.8110 -0.0975 -0.5884
   65MOL   H28523453   5.909   0.150   7.288  0.1473  1.1147 -0.1211
   65MOL   H28623454   5.749   0.147   7.495  0.9268  1.8707  1.2614
   65MOL   H28723455   5.651   0.262   7.421 -1.3280 -1.3527  0.8385
   65MOL   H28823456   5.882   0.403   7.399 -0.4737  1.0592  1.0044
   65MOL   H28923457   5.779   0.411   7.537 -0.8302 -1.3020  1.0743
   65MOL   C29023458   6.035   0.390   7.607  0.3321  0.5698  0.5541
   65MOL   O29123459   6.023   0.510   7.581 -0.2505  0.0558 -0.4432
   65MOL   C29223460   6.141   0.336   7.698 -0.7674 -0.2090 -0.3606
   65MOL   C29323461   6.146   0.392   7.841 -0.0874 -0.3789  0.1982
   65MOL   C29423462   6.027   0.341   0.087  0.0426 -0.4144 -0.2923
   65MOL   C29523463   6.045   0.374   0.233  0.2818  0.4211  0.0972
   65MOL   C29623464   6.053   0.523   0.273 -0.6026  0.0305 -0.1982
   65MOL   O29723465   6.073   0.532   0.412 -0.4989 -0.0133  0.4161
   65MOL   H29823466   6.243   0.360   7.670  0.9460 -2.4306  3.5248
   65MOL   H29923467   6.144   0.227   7.698 -2.0853 -0.2816  2.5988
   65MOL   H30023468   6.152   0.501   7.843 -0.4503 -0.3126 -1.5008
   65MOL   H30123469   6.247   0.369   0.031  0.3684 -1.5491 -1.7933
   65MOL   H30223470   6.011   0.234   0.075 -3.8555  0.2640 -2.0471
   65MOL   H30323471   5.933   0.385   0.054 -1.0275 -2.0255  0.5904
   65MOL   H30423472   6.127   0.314   0.273  1.1939  1.2252 -0.5094
   65MOL   H30523473   5.957   0.341   0.287 -0.6598  1.4186 -0.8148
   65MOL   H30623474   6.138   0.567   0.222  0.3921 -1.0858  0.4464
   65MOL   H30723475   5.972   0.587   0.239  1.1020  3.7264  2.3729
   65MOL   C30823476   6.184   0.598   0.456 -0.3313  0.0864  0.7851
   65MOL   O30923477   6.268   0.649   0.383 -0.5658  0.6637  0.5400
   65MOL   C31023478   6.194   0.596   0.608  0.0824 -0.0800 -0.2104
   65MOL   C31123479   6.248   0.465   0.665 -0.1217 -0.1893 -0.2066
   65MOL   C31223480   6.234   0.468   0.820  0.0597  0.3397 -0.5398
   65MOL   C31323481   6.230   0.322   0.875  0.4502  0.4622  1.0642
   65MOL   C31423482   6.200   0.313   1.023  0.5953  0.4137  0.1216
   65MOL   O31523483   6.070   0.358   1.054  0.2252 -0.1414  0.0945
   65MOL   H31623484   6.103   0.636   0.651 -0.8334 -0.1236 -2.0706
   65MOL   H31723485   6.258   0.682   0.632  0.4318 -0.6071  0.7755
   65MOL   H31823486   6.349   0.441   0.632 -0.1651 -3.9231  2.1303
   65MOL   H31923487   6.170   0.396   0.631  0.3565 -1.2453  0.8097
   65MOL   H32023488   6.147   0.526   0.847  0.3228  1.7618 -2.6245
   65MOL   H32123489   6.321   0.522   0.858 -1.6550  0.7890  2.8950
   65MOL   H32223490   6.320   0.269   0.845 -1.4675 -1.5451 -1.3062
   65MOL   H32323491   6.160   0.258   0.822 -0.0894  2.8874 -1.3175
   65MOL   H32423492   6.214   0.212   1.062  0.1367  0.7282  1.1256
   65MOL   H32523493   6.270   0.380   1.073  1.0887  0.1698 -0.2438
   65MOL   C32623494   6.032   0.375   1.192  0.1658  0.1678 -0.2533
   65MOL   O32723495   6.111   0.388   1.286 -0.6666 -0.3945  0.4153
   65MOL   C32823496   5.880   0.351   1.210 -0.1798  0.2582 -0.4800
   65MOL   C32923497   5.793   0.452   1.139 -0.0984  0.9767 -0.6430
   65MOL   C33023498   5.796   0.598   1.188  0.8476  0.0914 -0.0545
   65MOL   C33123499   5.925   0.680   1.173  0.2709  0.2201 -0.8029
   65MOL   C33223500   5.904   0.818   1.242  0.0604 -0.2518  0.4495
   65MOL   O33323501   5.887   0.797   1.385  0.0673  0.1383  0.7997
   65MOL   H33423502   5.863   0.351   1.318  1.9381 -0.6822 -0.1109
   65MOL   H33523503   5.865   0.250   1.174  2.6528 -0.4170  0.0955
   65MOL   H33623504   5.692   0.413   1.127  0.1014 -0.3383  1.6187
   65MOL   H33723505   5.821   0.456   1.034  1.1665  3.1788 -0.2618
   65MOL   H33823506   5.770   0.591   1.294 -0.4142  1.3483 -0.2640
   65MOL   H33923507   5.713   0.647   1.137  0.2373  1.4568  2.1661
   65MOL   H34023508   5.950   0.678   1.067  1.7277 -2.3933 -0.4520
   65MOL   H34123509   6.003   0.630   1.231 -0.3540 -0.2915 -0.4051
   65MOL   H34223510   5.986   0.884   1.214  0.7268 -1.2177  0.0623
   65MOL   H34323511   5.817   0.863   1.196 -0.9785 -0.0805  2.5263
   65MOL   C34423512   5.995   0.818   1.460 -0.2799  0.7520 -0.4778
   65MOL   O34523513   6.105   0.855   1.419  0.4623 -0.3828  0.2273
   65MOL   C34623514   5.963   0.808   1.610 -0.3217  0.2585  0.4138
   65MOL   C34723515   6.089   0.749   1.684 -0.5554 -0.2143  0.2030
   65MOL   C34823516   6.205   0.852   1.709  0.6532  0.2036  0.1837
   65MOL   C34923517   6.321   0.812   1.802  0.4754 -0.3465 -0.2698
   65MOL   C35023518   6.445   0.908   1.779  0.0290 -0.6980  0.0149
   65MOL   O35123519   6.557   0.861   1.849  0.9123  1.1076 -0.4539
   65MOL   H35223520   5.879   0.739   1.623  0.1238 -0.1496  1.1751
   65MOL   H35323521   5.942   0.908   1.648  0.6618  1.0086 -0.9768
   65MOL   H35423522   6.124   0.657   1.636 -1.9723 -1.2895  1.1960
   65MOL   H35523523   6.053   0.732   1.785  0.7906 -0.3793  0.6676
   65MOL   H35623524   6.149   0.937   1.748 -0.6774 -1.2396  1.4943
   65MOL   H35723525   6.238   0.877   1.609  0.5405 -1.2390 -0.2286
   65MOL   H35823526   6.341   0.707   1.783  2.3788 -0.3844  1.7582
   65MOL   H35923527   6.285   0.817   1.905  1.3219  0.2248  0.0071
   65MOL   H36023528   6.473   0.925   1.674 -0.6714 -2.2183 -0.4276
   65MOL   H36123529   6.415   1.007   1.813 -0.9916 -1.6480  1.9079
   65MOL   H36223530   6.567   0.774   1.813  1.7724  1.1870 -0.4305
   66MOL     C123531   0.294   6.260   5.197  0.0886  0.1232  0.4284
   66MOL     O223532   0.221   6.264   5.097 -0.2297 -0.6895  0.5155
   66MOL     C323533   0.281   6.142   5.289  0.2312  0.1699 -0.4083
   66MOL     C423534   0.154   6.057   5.302 -0.7151  0.2562  0.2364
   66MOL     C523535   0.039   6.117   5.388  0.6947  0.6890 -0.0030
   66MOL     C623536   0.080   6.118   5.543 -0.8465 -0.1357 -0.1282
   66MOL     C723537   7.823   6.188   5.618  0.9463  0.5447  0.1140
   66MOL     O823538   7.692   6.121   5.603 -0.1745  0.4171  0.4009
   66MOL     H923539   0.319   6.167   5.388 -1.7034  0.4802  0.2743
   66MOL    H1023540   0.355   6.072   5.251  1.2970  1.1445 -0.1780
   66MOL    H1123541   0.188   5.965   5.350  0.2665  0.7983  0.5932
   66MOL    H1223542   0.117   6.035   5.202  0.8071 -1.5270  0.0264
   66MOL    H1323543   7.798   6.053   5.365  1.4303 -0.0997 -0.5672
   66MOL    H1423544   0.025   6.215   5.343  5.3691  1.6101  0.2784
   66MOL    H1523545   0.178   6.166   5.554 -0.1257 -2.2292  3.4723
   66MOL    H1623546   0.094   6.018   5.583  1.9749  0.1216 -0.3821
   66MOL    H1723547   0.012   6.181   5.722  2.0876  0.8175 -0.2339
   66MOL    H1823548   7.832   6.292   5.586  2.9535  0.5765  0.7010
   66MOL    H1923549   0.369   6.337   5.217  0.3566 -0.2541  0.8897
   66MOL    C2023550   7.655   6.012   5.680  0.3665  0.0020  0.9450
   66MOL    O2123551   7.704   5.973   5.785  0.1797  0.0196 -0.3917
   66MOL    C2223552   7.518   5.965   5.637 -0.1413  0.4931  0.2895
   66MOL    C2323553   7.397   6.012   5.729  0.6143 -0.1703 -1.0552
   66MOL    C2423554   7.263   5.952   5.701  0.0895  0.0214 -0.5038
   66MOL    C2523555   7.143   6.007   5.785  0.1360  0.3576 -0.0622
   66MOL    C2623556   7.010   5.938   5.759 -0.4375  0.5260  0.2016
   66MOL    O2723557   6.911   6.019   5.814 -0.4341 -0.3904 -0.5574
   66MOL    H2823558   7.524   5.857   5.645  0.2925  0.5244  0.3653
   66MOL    H2923559   7.500   5.991   5.533 -2.3450  0.8768  0.7361
   66MOL    H3023560   7.401   6.118   5.704  0.4127 -0.0573 -0.5966
   66MOL    H3123561   7.423   6.000   5.834 -1.1592  0.1398 -0.5669
   66MOL    H3223562   7.270   5.845   5.723 -0.9705 -0.0243 -0.3403
   66MOL    H3323563   7.240   5.960   5.595 -1.6630  0.9096 -0.0813
   66MOL    H3423564   7.132   6.111   5.753  2.9517  0.4475 -0.8903
   66MOL    H3523565   7.175   6.012   5.889  1.5540  0.1596 -0.4784
   66MOL    H3623566   6.997   5.953   5.652 -1.5465  1.4405  0.4546
   66MOL    H3723567   7.016   5.830   5.773  1.6323  0.6500  0.4313
   66MOL    C3823568   6.874   6.006   5.943  0.8219  0.2299  0.3942
   66MOL    O3923569   6.893   5.901   6.008 -0.1410 -0.4086  0.3505
   66MOL    C4023570   6.806   6.129   5.997 -0.9016 -0.0393 -0.1126
   66MOL    C4123571   6.671   6.102   6.074 -0.1438 -1.1988  0.6370
   66MOL    C4223572   6.666   5.999   6.191  0.3721 -0.3410  0.8558
   66MOL    C4323573   6.526   6.000   6.255  0.4376 -0.2864 -0.2771
   66MOL    C4423574   6.505   5.885   6.356  0.9455  0.2067  0.0625
   66MOL    O4523575   6.564   5.920   6.478  1.0917 -0.2732  0.4552
   66MOL    H4623576   6.794   6.187   5.905  0.1528 -0.2427 -0.3845
   66MOL    H4723577   6.878   6.180   6.060  0.0611 -0.9557 -0.4763
   66MOL    H4823578   6.596   6.078   5.999  0.4268  0.1149 -0.3635
   66MOL    H4923579   6.645   6.201   6.110  0.1644 -1.1597  0.7517
   66MOL    H5023580   6.744   6.031   6.261 -0.1303 -0.9838  1.7271
   66MOL    H5123581   6.703   5.900   6.167  0.8128  0.6392 -2.7606
   66MOL    H5223582   6.439   5.987   6.190  0.4255 -2.9067  0.2166
   66MOL    H5323583   6.510   6.103   6.287  2.0042  0.3714 -1.4988
   66MOL    H5423584   6.400   5.860   6.370  0.0919  2.1108 -2.4023
   66MOL    H5523585   6.542   5.791   6.315 -0.3687 -0.1178 -0.4326
   66MOL    C5623586   6.491   5.936   6.589  0.3768  0.2549  0.0043
   66MOL    O5723587   6.369   5.938   6.597  0.3490 -0.0350 -0.5970
   66MOL    C5823588   6.568   5.946   6.714  0.0591  0.8060  0.4966
   66MOL    C5923589   6.698   5.868   6.703 -0.3019  0.1275 -0.2867
   66MOL    C6023590   6.813   5.958   6.660  0.5792  0.0443 -0.6228
   66MOL    C6123591   6.957   5.906   6.685  0.4512  0.1721 -0.2611
   66MOL    C6223592   7.068   5.977   6.609 -0.1957  0.2819  0.0035
   66MOL    O6323593   7.074   5.929   6.473 -0.7130 -0.3993  0.0170
   66MOL    H6423594   6.508   5.919   6.801  0.5448  0.5452  0.7500
   66MOL    H6523595   6.601   6.049   6.728  0.4496  0.6732  0.5447
   66MOL    H6623596   6.702   5.779   6.640 -2.0735  0.8250 -1.4282
   66MOL    H6723597   6.731   5.823   6.797 -1.0095 -0.7302 -0.4433
   66MOL    H6823598   6.809   6.051   6.717  0.9000  1.0084 -2.1277
   66MOL    H6923599   6.797   5.990   6.557  0.8705  2.0752 -0.0652
   66MOL    H7023600   6.971   5.798   6.675 -0.7055  0.0033 -0.0622
   66MOL    H7123601   6.968   5.927   6.791  0.2526 -0.6841 -0.0695
   66MOL    H7223602   7.060   6.085   6.620  0.6888  0.1534  2.2603
   66MOL    H7323603   7.163   5.950   6.656 -1.2973  0.2461  2.2671
   66MOL    C7423604   7.118   6.005   6.382 -0.1886 -0.4691  0.1524
   66MOL    O7523605   7.159   6.122   6.395  0.0487  0.1518  0.1225
   66MOL    C7623606   7.115   5.925   6.248  0.0070  0.9916  0.3174
   66MOL    C7723607   7.213   5.805   6.257  0.5872 -0.3386  0.0132
   66MOL    C7823608   7.363   5.846   6.251 -0.2842 -0.0421 -0.6404
   66MOL    C7923609   7.407   5.937   6.137 -0.3823 -0.3695 -0.5814
   66MOL    C8023610   7.555   5.960   6.154  0.2541  0.3942 -0.1130
   66MOL    O8123611   7.572   6.052   6.258 -0.0323  0.3137 -0.2586
   66MOL    H8223612   7.109   5.986   6.158 -0.6535  1.7000  0.8428
   66MOL    H8323613   7.012   5.891   6.256 -0.1177  1.1312 -0.7165
   66MOL    H8423614   7.190   5.726   6.186  1.0140 -1.3674  1.0053
   66MOL    H8523615   7.197   5.755   6.353 -1.0856  0.2838  0.0794
   66MOL    H8623616   7.415   5.751   6.239 -0.5054 -0.3105  0.4295
   66MOL    H8723617   7.380   5.893   6.348 -3.6493  2.3581 -1.1084
   66MOL    H8823618   7.358   6.034   6.140 -0.1046 -0.2622  0.8303
   66MOL    H8923619   7.385   5.886   6.043  3.7136 -1.3117 -1.1294
   66MOL    H9023620   7.611   5.867   6.166 -0.2311  0.1193  0.0464
   66MOL    H9123621   7.584   6.011   6.062 -0.5907 -1.5914 -1.5333
   66MOL    C9223622   7.680   6.062   6.335 -0.3224  0.4112  0.1154
   66MOL    O9323623   7.787   5.998   6.323 -0.2687 -0.2959 -0.4030
   66MOL    C9423624   7.663   6.173   6.437 -0.1224  0.6603 -0.6139
   66MOL    C9523625   7.553   6.127   6.534  0.0082  0.1724  0.9795
   66MOL    C9623626   7.554   6.199   6.671  0.2410 -0.2450 -0.3403
   66MOL    C9723627   7.420   6.220   6.746 -0.0454  0.1147 -1.1159
   66MOL    C9823628   7.432   6.300   6.878  0.0971  0.0078  0.0820
   66MOL    O9923629   7.292   6.308   6.921 -0.0871 -0.7960 -0.4679
   66MOL   H10023630   7.633   6.266   6.390  0.5553 -0.1165 -2.6619
   66MOL   H10123631   7.756   6.189   6.492 -0.0614  0.9809 -0.8092
   66MOL   H10223632   7.553   6.019   6.550  0.9015  0.0181 -0.0057
   66MOL   H10323633   7.456   6.137   6.486  1.3501  0.2467 -1.8060
   66MOL   H10423634   7.612   6.291   6.661 -2.4332  1.7398  1.6256
   66MOL   H10523635   7.635   6.146   6.721  0.4511  0.3585 -0.0385
   66MOL   H10623636   7.364   6.126   6.745 -2.6497  1.5904  0.4209
   66MOL   H10723637   7.360   6.282   6.680 -2.1732 -0.4455  0.2452
   66MOL   H10823638   7.505   6.261   6.949  1.6499 -0.3929 -1.6851
   66MOL   H10923639   7.455   6.405   6.857  1.0517  0.1549  1.7626
   66MOL   C11023640   7.256   6.263   7.046  0.0346  0.3352  0.1800
   66MOL   O11123641   7.333   6.226   7.134  0.3602  0.4005 -0.8724
   66MOL   C11223642   7.104   6.274   7.077 -0.0092 -0.0946  0.1726
   66MOL   C11323643   7.048   6.412   7.099 -0.6112  0.1539  0.7453
   66MOL   C11423644   7.021   6.489   6.971 -0.6569 -0.4116 -0.2625
   66MOL   C11523645   6.985   6.637   7.002  0.2458  0.1126  0.3496
   66MOL   C11623646   6.930   6.717   6.880 -0.0452  0.5402  0.1577
   66MOL   O11723647   6.810   6.657   6.851  0.7632  0.1897  0.6089
   66MOL   H11823648   7.084   6.215   7.166 -1.7205 -1.4086 -1.0424
   66MOL   H11923649   7.054   6.215   7.000  1.6327 -2.4966  0.8591
   66MOL   H12023650   7.125   6.457   7.162 -2.1947  3.7356  0.2425
   66MOL   H12123651   6.953   6.410   7.153  0.0559  2.2796  2.0530
   66MOL   H12223652   6.936   6.441   6.924 -0.2904  0.8128 -2.2273
   66MOL   H12323653   7.105   6.495   6.901  0.1313  1.7919  0.8298
   66MOL   H12423654   7.067   6.690   7.050 -0.5160 -1.7345  3.8658
   66MOL   H12523655   6.908   6.651   7.078  0.8343  1.3295  0.7318
   66MOL   H12623656   6.927   6.824   6.899 -0.9342  0.0035  3.3386
   66MOL   H12723657   7.011   6.699   6.809  0.8468 -2.2096  1.7818
   66MOL   C12823658   6.711   6.742   6.826 -0.6716  0.2121 -0.0471
   66MOL   O12923659   6.702   6.856   6.870  0.0815 -0.5006 -0.4671
   66MOL   C13023660   6.596   6.672   6.747 -0.7591  0.4087  0.3695
   66MOL   C13123661   6.521   6.558   6.802  0.8273 -0.1353 -0.0901
   66MOL   C13223662   6.610   6.440   6.828  0.5345  0.0841 -0.1390
   66MOL   C13323663   6.522   6.316   6.857  0.2494  0.0685  0.3306
   66MOL   C13423664   6.447   6.329   6.999 -0.2736 -0.0439 -0.4262
   66MOL   O13523665   6.395   6.202   7.028  0.5690  0.0319  0.5048
   66MOL   H13623666   6.631   6.650   6.646 -2.0096 -1.1511  0.2554
   66MOL   H13723667   6.521   6.750   6.742 -0.9650  0.1446 -0.9513
   66MOL   H13823668   6.443   6.533   6.730  1.0729  0.6788 -0.6360
   66MOL   H13923669   6.471   6.597   6.891  1.0181 -0.2586  0.0715
   66MOL   H14023670   6.683   6.455   6.908  1.6528  0.2257 -1.1720
   66MOL   H14123671   6.669   6.426   6.737 -0.8073 -1.4606 -0.7988
   66MOL   H14223672   6.594   6.235   6.868  0.1130 -0.1143 -0.1070
   66MOL   H14323673   6.446   6.295   6.782  0.4158 -0.6245  0.3606
   66MOL   H14423674   6.518   6.366   7.073 -0.2266 -1.8032  0.4240
   66MOL   H14523675   6.373   6.408   6.986  0.4163  0.4791 -1.2367
   66MOL   C14623676   6.366   6.176   7.156 -0.3239  0.3947 -0.1467
   66MOL   O14723677   6.371   6.252   7.255  0.9618  0.5303  0.2039
   66MOL   C14823678   6.314   6.030   7.166 -0.5202 -0.2002  0.0002
   66MOL   C14923679   6.397   5.921   7.098  0.6731 -0.5969 -0.2144
   66MOL   C15023680   6.308   5.805   7.064 -0.0888 -0.1278 -0.1327
   66MOL   C15123681   6.394   5.686   7.016 -0.3222 -0.4703  0.6846
   66MOL   C15223682   6.306   5.560   7.001 -0.0902 -0.5342 -0.2642
   66MOL   O15323683   6.394   5.453   6.965 -0.3544 -0.3791 -0.0256
   66MOL   H15423684   6.218   6.040   7.116  0.7123  2.1296 -2.0581
   66MOL   H15523685   6.299   6.010   7.272  0.0329  1.9315  0.5202
   66MOL   H15623686   6.478   5.888   7.163  1.3848 -0.0881 -0.8256
   66MOL   H15723687   6.436   5.959   7.004 -1.4071  1.5440 -0.2552
   66MOL   H15823688   6.227   5.835   6.997 -0.2499  2.2243  1.0719
   66MOL   H15923689   6.246   5.775   7.149 -0.4972 -0.4427 -0.5430
   66MOL   H16023690   6.461   5.675   7.102  1.2945  1.8358 -0.2302
   66MOL   H16123691   6.451   5.713   6.928 -0.5773 -0.7670  0.4289
   66MOL   H16223692   6.261   5.533   7.096  1.3532 -1.2339  0.2454
   66MOL   H16323693   6.225   5.576   6.930 -2.1263 -1.9029  1.7259
   66MOL   C16423694   6.459   5.381   7.054  0.9657 -0.6282  0.1394
   66MOL   O16523695   6.466   5.400   7.173  0.0506  0.0247 -0.6509
   66MOL   C16623696   6.515   5.249   6.991  0.5178 -0.1879  0.4961
   66MOL   C16723697   6.663   5.214   7.022  0.0221 -0.5956 -0.6949
   66MOL   C16823698   6.773   5.274   6.930 -0.0636  0.2864  0.2339
   66MOL   C16923699   6.774   5.433   6.914 -0.4796 -0.2291  0.0379
   66MOL   C17023700   6.906   5.478   6.853 -0.2741  0.1376  0.4644
   66MOL   O17123701   6.910   5.465   6.711  0.3843  0.3542 -0.5030
   66MOL   H17223702   6.520   5.247   6.882 -0.9440  1.4141  0.3726
   66MOL   H17323703   6.455   5.162   7.018 -0.1238  0.0874 -0.0168
   66MOL   H17423704   6.667   5.106   7.014  0.4869 -0.5051 -1.8437
   66MOL   H17523705   6.682   5.248   7.123  2.3539 -1.9083 -0.6567
   66MOL   H17623706   6.771   5.234   6.829 -0.9398  0.9314 -0.0061
   66MOL   H17723707   6.869   5.244   6.973 -0.5268  0.9939  1.7739
   66MOL   H17823708   6.773   5.484   7.010 -0.0151  2.0967 -1.1482
   66MOL   H17923709   6.685   5.459   6.857 -0.6605 -0.4414  0.2198
   66MOL   H18023710   6.923   5.585   6.867  0.3381 -0.0698  1.3825
   66MOL   H18123711   6.981   5.434   6.919  0.2815 -1.7950 -1.4046
   66MOL   C18223712   7.036   5.461   6.651 -0.0013  0.2478  0.1355
   66MOL   O18323713   7.139   5.490   6.705 -0.1328  0.0667 -0.3306
   66MOL   C18423714   7.023   5.439   6.500 -0.8367  0.0634  0.1446
   66MOL   C18523715   6.923   5.536   6.440  0.0591 -0.2348  0.2651
   66MOL   C18623716   6.930   5.520   6.285  0.1838  0.3188  0.8671
   66MOL   C18723717   6.854   5.640   6.224  0.7995 -0.1163 -0.5518
   66MOL   C18823718   6.761   5.601   6.109 -0.0001  0.3924  0.4473
   66MOL   O18923719   6.653   5.515   6.152  0.5169  0.4926 -0.5774
   66MOL   H19023720   6.994   5.335   6.487  0.0685 -0.0164 -1.3159
   66MOL   H19123721   7.124   5.442   6.460 -0.9485 -2.2235 -0.4051
   66MOL   H19223722   6.952   5.634   6.477  3.5497 -1.4473  0.9012
   66MOL   H19323723   6.820   5.517   6.471  0.0620 -0.2077  0.2916
   66MOL   H19423724   6.894   5.426   6.243 -3.3685  1.4905  1.1067
   66MOL   H19523725   7.036   5.527   6.260 -0.1676  0.8600 -0.5125
   66MOL   H19623726   6.928   5.714   6.194 -1.4993  3.2462  1.8101
   66MOL   H19723727   6.796   5.699   6.294  0.7119 -0.6602 -0.1616
   66MOL   H19823728   6.723   5.695   6.070  3.3813  1.9994  0.8022
   66MOL   H19923729   6.807   5.551   6.023 -1.0693 -1.0848  0.7090
   66MOL   C20023730   6.547   5.499   6.074 -0.4725  0.0789 -0.6042
   66MOL   O20123731   6.533   5.556   5.965  0.3412  0.8216  0.0481
   66MOL   C20223732   6.436   5.411   6.139  0.4611  0.5857  0.7609
   66MOL   C20323733   6.310   5.481   6.176  0.4109  0.1283  0.0333
   66MOL   C20423734   6.195   5.383   6.192  0.4528 -0.3307 -0.5426
   66MOL   C20523735   6.126   5.363   6.060  0.5204 -0.0663 -0.5868
   66MOL   C20623736   6.013   5.254   6.051  0.2563 -0.6361 -0.6438
   66MOL   O20723737   5.951   5.275   5.934  0.1911  0.5161 -0.1289
   66MOL   H20823738   6.483   5.353   6.219  0.7808 -2.8256 -1.7807
   66MOL   H20923739   6.410   5.328   6.073 -1.3351  0.3294  1.7610
   66MOL   H21023740   6.303   5.561   6.101 -1.9160 -0.6961 -0.6606
   66MOL   H21123741   6.325   5.530   6.272  0.2390  1.1414 -0.4462
   66MOL   H21223742   6.117   5.413   6.261 -1.0808 -1.7461 -1.6202
   66MOL   H21323743   6.227   5.288   6.235 -0.0354 -0.7850 -1.1825
   66MOL   H21423744   6.202   5.353   5.983  0.7778 -2.1715 -0.0759
   66MOL   H21523745   6.070   5.454   6.035  1.3248  0.7070  0.4086
   66MOL   H21623746   6.055   5.154   6.037 -0.8978 -1.3221  0.6767
   66MOL   H21723747   5.949   5.257   6.138 -0.6263 -0.9397 -1.2734
   66MOL   C21823748   5.836   5.215   5.914 -0.5600  0.3494  0.2482
   66MOL   O21923749   5.781   5.143   5.997  0.9328 -0.7900  0.1507
   66MOL   C22023750   5.763   5.273   5.788 -0.2623  0.2235 -0.6964
   66MOL   C22123751   5.609   5.261   5.792  1.1122 -0.2695 -0.8498
   66MOL   C22223752   5.560   5.144   5.718 -0.6818  0.5403  1.1672
   66MOL   C22323753   5.409   5.130   5.684  0.0581  0.1494  0.2580
   66MOL   C22423754   5.363   4.979   5.689 -0.9246 -0.3147  0.5205
   66MOL   O22523755   5.405   4.916   5.813 -0.3359  0.2976  0.2711
   66MOL   H22623756   5.808   5.217   5.706  1.7625  1.6181 -0.5819
   66MOL   H22723757   5.798   5.376   5.796 -0.3055  0.1943 -0.1104
   66MOL   H22823758   5.553   5.342   5.745  2.8095  0.9007 -0.9031
   66MOL   H22923759   5.587   5.260   5.898 -1.2199  1.6211 -1.2615
   66MOL   H23023760   5.598   5.065   5.783  1.7959  0.7394  0.0323
   66MOL   H23123761   5.620   5.128   5.629  1.7448 -0.9391  2.9980
   66MOL   H23223762   5.391   5.175   5.586  0.0832 -2.2184 -0.8794
   66MOL   H23323763   5.345   5.179   5.757  0.9739  0.2035  1.0442
   66MOL   H23423764   5.262   4.963   5.653 -0.8891 -0.4376  0.4745
   66MOL   H23523765   5.423   4.931   5.611 -0.5284  2.0381 -0.6722
   66MOL   C23623766   5.400   4.780   5.824  0.3415  0.3206  0.5469
   66MOL   O23723767   5.339   4.708   5.744 -0.4929  0.0741 -0.7410
   66MOL   C23823768   5.463   4.730   5.956 -0.4061 -0.1597  0.3302
   66MOL   C23923769   5.608   4.785   5.986  0.2335  0.3169 -0.5188
   66MOL   C24023770   5.711   4.735   5.884 -0.4961  0.3014 -0.3797
   66MOL   C24123771   5.855   4.751   5.930  0.1135 -0.3166 -0.8057
   66MOL   C24223772   5.958   4.698   5.818  0.2524 -0.3427  0.0862
   66MOL   O24323773   5.939   4.773   5.700 -0.4258  0.2428  0.5942
   66MOL   H24423774   5.465   4.622   5.940  3.3277 -0.1141 -0.1061
   66MOL   H24523775   5.394   4.746   6.038  0.3198 -1.4939  1.2176
   66MOL   H24623776   5.630   4.744   6.084 -2.2082  1.4971  0.5523
   66MOL   H24723777   5.605   4.894   5.988  1.2394  0.3326  1.2550
   66MOL   H24823778   5.695   4.785   5.789  1.6454  1.9829  0.1215
   66MOL   H24923779   5.694   4.629   5.862 -0.8976  0.3878 -0.4980
   66MOL   H25023780   5.867   4.693   6.022  1.2617 -0.0326 -0.7619
   66MOL   H25123781   5.883   4.853   5.958  1.2072 -1.2057  1.4944
   66MOL   H25223782   6.064   4.699   5.842 -0.4522  1.4777  3.5708
   66MOL   H25323783   5.938   4.593   5.797  0.9185 -1.0467  2.7837
   66MOL   C25423784   6.016   4.882   5.675  0.5948 -0.0806  0.2326
   66MOL   O25523785   6.124   4.911   5.725 -0.5434  0.4200  0.2328
   66MOL   C25623786   5.946   4.968   5.576  0.0130 -0.2485 -0.3583
   66MOL   C25723787   6.017   5.102   5.546 -0.0142 -0.4818 -0.1444
   66MOL   C25823788   5.934   5.185   5.441  0.0189  0.2006  0.1666
   66MOL   C25923789   6.011   5.306   5.396 -0.0896 -0.2210  0.0758
   66MOL   C26023790   5.951   5.388   5.282  0.1375 -0.3380  0.4596
   66MOL   O26123791   5.839   5.459   5.332 -0.1612  0.3148 -0.1707
   66MOL   H26223792   5.850   4.995   5.621  0.3014  1.1277 -0.5377
   66MOL   H26323793   5.929   4.915   5.482 -0.0522 -0.6224 -0.1327
   66MOL   H26423794   6.117   5.080   5.510 -0.2177 -1.9090  0.1338
   66MOL   H26523795   6.032   5.174   5.626  0.1173 -0.0566 -0.5477
   66MOL   H26623796   5.841   5.228   5.479 -0.0490  0.5079 -0.3351
   66MOL   H26723797   5.907   5.122   5.356 -1.0167 -0.1994  0.7801
   66MOL   H26823798   6.109   5.264   5.372  0.2712  0.3330  0.5800
   66MOL   H26923799   6.042   5.376   5.472 -0.2104  0.6553 -0.6755
   66MOL   H27023800   6.016   5.460   5.232 -0.0064  0.4001  1.3222
   66MOL   H27123801   5.921   5.305   5.218 -0.1080  0.2722 -0.2347
   66MOL   C27223802   5.737   5.505   5.255 -0.1174 -0.2612  0.2818
   66MOL   O27323803   5.731   5.491   5.133  0.3279 -0.1402  0.2639
   66MOL   C27423804   5.639   5.585   5.339  0.4858  0.4315 -0.3684
   66MOL   C27523805   5.542   5.498   5.433 -0.8059 -0.3825  0.7545
   66MOL   C27623806   5.531   5.566   5.572  0.0244  0.3666 -0.0757
   66MOL   C27723807   5.408   5.543   5.652 -0.0153  0.3487 -0.1465
   66MOL   C27823808   5.401   5.601   5.791 -0.9120 -0.2716 -0.1925
   66MOL   O27923809   5.302   5.534   5.871 -0.1193  0.2009 -0.0936
   66MOL   H28023810   5.577   5.650   5.277 -1.5347 -0.7803  0.3098
   66MOL   H28123811   5.695   5.654   5.401 -1.6787  0.0708  2.0986
   66MOL   H28223812   5.568   5.393   5.441  1.3738 -0.0853 -1.5944
   66MOL   H28323813   5.438   5.501   5.400 -0.8585  1.8844  1.0312
   66MOL   H28423814   5.547   5.673   5.566 -1.5559  0.6304  0.0134
   66MOL   H28523815   5.622   5.536   5.624 -0.4750  1.5225  1.4978
   66MOL   H28623816   5.388   5.436   5.662  0.1696  0.2703 -0.6400
   66MOL   H28723817   5.316   5.583   5.610  0.0783  2.5866  1.6750
   66MOL   H28823818   5.494   5.588   5.845 -0.6131  3.0239  0.2104
   66MOL   H28923819   5.384   5.709   5.787 -1.6511 -0.2583  2.5478
   66MOL   C29023820   5.316   5.545   6.006  0.2997  0.2247  0.0907
   66MOL   O29123821   5.393   5.612   6.067 -0.3402 -0.2482  0.2847
   66MOL   C29223822   5.225   5.458   6.080 -0.2635  0.2326 -0.2881
   66MOL   C29323823   5.250   5.309   6.048 -0.1241 -0.0512  0.4503
   66MOL   C29423824   5.180   5.201   6.136  0.4578  0.0745 -0.0283
   66MOL   C29523825   5.214   5.060   6.104 -0.5474 -0.2949 -0.1048
   66MOL   C29623826   5.131   4.964   6.195 -0.2955 -0.7087 -0.2006
   66MOL   O29723827   5.172   4.930   6.325 -0.0178  0.0777  0.4404
   66MOL   H29823828   5.122   5.488   6.061 -0.1783  0.4299 -0.4507
   66MOL   H29923829   5.234   5.467   6.188  1.1730  1.7692 -0.5211
   66MOL   H30023830   5.355   5.281   6.044  0.2676  1.4471  0.0429
   66MOL   H30123831   5.213   5.283   5.948  2.0977 -3.0647  0.3261
   66MOL   H30223832   5.074   5.218   6.121  0.5177  0.8460  0.4015
   66MOL   H30323833   5.209   5.225   6.239 -2.0712 -1.5765  1.1132
   66MOL   H30423834   5.319   5.041   6.125 -0.2966 -0.0606 -1.1131
   66MOL   H30523835   5.205   5.028   6.000 -1.0037 -0.8022  0.0938
   66MOL   H30623836   5.026   4.993   6.190 -0.2213 -0.5598 -1.0475
   66MOL   H30723837   5.128   4.863   6.154  2.7000 -1.4722  1.3342
   66MOL   C30823838   5.095   4.861   6.408 -0.1090 -0.3099  1.1430
   66MOL   O30923839   4.985   4.818   6.371 -0.3988  0.5195  0.1830
   66MOL   C31023840   5.157   4.840   6.540 -0.4372 -0.2574 -0.4233
   66MOL   C31123841   5.243   4.717   6.558  0.0584 -0.0069 -0.2402
   66MOL   C31223842   5.384   4.750   6.488 -0.3961  0.3708 -0.4089
   66MOL   C31323843   5.486   4.631   6.519 -0.1103  1.0434  0.5896
   66MOL   C31423844   5.632   4.678   6.516  0.4197  0.0541  0.3579
   66MOL   O31523845   5.713   4.568   6.538  0.1834 -0.1796 -0.0109
   66MOL   H31623846   5.075   4.845   6.611  0.7785 -0.2556  1.0174
   66MOL   H31723847   5.216   4.924   6.576  0.0927 -0.1064 -1.6053
   66MOL   H31823848   5.192   4.631   6.516 -2.5729  1.1541  0.4908
   66MOL   H31923849   5.266   4.708   6.664  0.5821 -0.5659 -0.3967
   66MOL   H32023850   5.412   4.842   6.540  1.3605 -1.2308  1.5907
   66MOL   H32123851   5.383   4.757   6.380 -1.2798 -2.2283 -0.6023
   66MOL   H32223852   5.474   4.552   6.445  0.6714 -0.1745  1.7436
   66MOL   H32323853   5.457   4.605   6.620 -0.3935 -1.1847 -0.0284
   66MOL   H32423854   5.653   4.714   6.415  3.0949  1.1502  1.2535
   66MOL   H32523855   5.650   4.750   6.595 -1.6202 -1.8278  2.6140
   66MOL   C32623856   5.843   4.577   6.550 -0.0887  0.7370 -0.4781
   66MOL   O32723857   5.906   4.686   6.556  0.7130  0.5842  0.3197
   66MOL   C32823858   5.908   4.443   6.572 -0.6121  0.3349 -0.0157
   66MOL   C32923859   5.891   4.380   6.715 -0.2937  0.3080  0.0501
   66MOL   C33023860   6.010   4.409   6.815  0.5485 -0.2089  0.0639
   66MOL   C33123861   5.986   4.364   6.959 -0.1746 -0.0719  0.5876
   66MOL   C33223862   6.071   4.409   7.071  0.3579  0.2388  0.0640
   66MOL   O33323863   6.070   4.556   7.088  0.5731 -0.3101  0.2054
   66MOL   H33423864   6.015   4.450   6.552 -0.0535 -1.6872  2.1481
   66MOL   H33523865   5.883   4.382   6.485  1.2503 -0.3023 -0.1027
   66MOL   H33623866   5.882   4.272   6.701 -0.4670  0.1652  1.1634
   66MOL   H33723867   5.801   4.422   6.760 -0.4618  0.2803 -0.2670
   66MOL   H33823868   6.033   4.516   6.814  0.4772 -0.1857  0.8561
   66MOL   H33923869   6.095   4.351   6.780  0.1445 -0.0854 -1.1309
   66MOL   H34023870   5.984   4.255   6.956  0.0563 -0.0846  0.8945
   66MOL   H34123871   5.883   4.392   6.983 -0.2863 -1.0515  1.2698
   66MOL   H34223872   6.041   4.368   7.167  0.2620  1.4103  0.5444
   66MOL   H34323873   6.173   4.375   7.054  0.3076  0.8773 -1.6876
   66MOL   C34423874   6.113   4.618   7.204 -0.8808 -0.5492  0.4855
   66MOL   O34523875   6.175   4.558   7.290 -0.0465  0.0088  0.1342
   66MOL   C34623876   6.073   4.762   7.217  0.6708  0.5644 -0.2324
   66MOL   C34723877   5.924   4.775   7.254 -0.2849  0.2762  0.3102
   66MOL   C34823878   5.867   4.712   7.385  0.7796  0.6331 -0.3739
   66MOL   C34923879   5.925   4.761   7.519 -0.0373 -0.1477  0.8674
   66MOL   C35023880   5.894   4.902   7.546  0.5272  0.6137  0.1611
   66MOL   O35123881   5.980   4.950   7.650  0.2215  0.6011  0.0833
   66MOL   H35223882   6.100   4.816   7.126 -2.3996  3.1857  0.2910
   66MOL   H35323883   6.123   4.807   7.302  1.3457  1.7022 -1.2225
   66MOL   H35423884   5.869   4.740   7.166  0.5111 -0.2092  0.0019
   66MOL   H35523885   5.913   4.883   7.260  0.1458  0.3576 -0.3130
   66MOL   H35623886   5.887   4.606   7.376 -1.3019 -0.2376  3.9770
   66MOL   H35723887   5.761   4.734   7.376  0.6695 -0.4746 -1.8525
   66MOL   H35823888   6.032   4.757   7.497 -0.3134 -0.5019 -0.5009
   66MOL   H35923889   5.912   4.700   7.609 -1.0877  0.5992  1.2316
   66MOL   H36023890   5.907   4.966   7.459  3.2869 -0.6263 -0.3588
   66MOL   H36123891   5.790   4.919   7.575  0.7413  1.9319  0.1770
   66MOL   H36223892   5.968   5.042   7.665 -2.0154  0.4427 -0.6122
   67MOL     C123893   4.787   5.341   3.769  1.1346 -0.0279  0.1214
   67MOL     O223894   4.865   5.276   3.839 -0.2971  0.0406 -1.1062
   67MOL     C323895   4.698   5.269   3.671 -0.7271 -0.5019  0.0892
   67MOL     C423896   4.557   5.309   3.674  0.3237 -0.0718  0.3926
   67MOL     C523897   4.511   5.452   3.633 -0.3757 -0.3816  0.2015
   67MOL     C623898   4.359   5.481   3.640  0.2959 -0.0088 -0.2901
   67MOL     C723899   4.311   5.608   3.562  0.1643 -0.1974  0.4718
   67MOL     O823900   4.324   5.602   3.416  0.3896 -0.1220  0.4075
   67MOL     H923901   4.703   5.162   3.694 -2.9005 -0.6797 -0.1334
   67MOL    H1023902   4.748   5.294   3.578 -0.7428  1.4078  0.5846
   67MOL    H1123903   4.520   5.291   3.775 -0.8293 -1.7945 -0.3192
   67MOL    H1223904   4.497   5.241   3.613  0.5261 -1.3071  1.5397
   67MOL    H1323905   4.545   5.472   3.531 -0.7481  1.9838  0.5276
   67MOL    H1423906   4.555   5.523   3.702  0.1749 -0.4772 -0.0475
   67MOL    H1523907   4.327   5.491   3.743 -1.3715 -0.9550 -0.6822
   67MOL    H1623908   4.311   5.390   3.602 -0.1870  0.6925 -1.3862
   67MOL    H1723909   4.204   5.626   3.575  0.0249  0.4022 -1.2945
   67MOL    H1823910   4.366   5.693   3.603  0.5019  0.2812 -0.9216
   67MOL    H1923911   4.768   5.448   3.774  0.7620 -0.1224  0.7739
   67MOL    C2023912   4.226   5.546   3.345  0.4255  0.2750 -0.3450
   67MOL    O2123913   4.126   5.486   3.392  0.7057  0.3016 -0.5652
   67MOL    C2223914   4.239   5.548   3.194  0.2411 -1.0783  0.2970
   67MOL    C2323915   4.211   5.413   3.118 -0.3377 -0.3858  0.0353
   67MOL    C2423916   4.314   5.299   3.141 -0.1749  0.2907  0.3817
   67MOL    C2523917   4.274   5.157   3.092 -0.3211  0.2731  0.5331
   67MOL    C2623918   4.397   5.063   3.103  0.2470  0.4243  0.8463
   67MOL    O2723919   4.355   4.934   3.127 -0.4856 -0.0214  0.1282
   67MOL    H2823920   4.332   5.596   3.163 -0.4991  0.1612 -0.0061
   67MOL    H2923921   4.153   5.608   3.165  0.2867 -0.4358  1.4814
   67MOL    H3023922   4.197   5.427   3.011  2.4257 -0.5346 -0.3926
   67MOL    H3123923   4.118   5.375   3.159  0.4428 -0.4249  1.8137
   67MOL    H3223924   4.334   5.303   3.248 -1.3622  0.3861  0.6085
   67MOL    H3323925   4.403   5.322   3.082  0.6103 -1.5347  0.8260
   67MOL    H3423926   4.236   5.159   2.989 -1.4795 -0.6940  0.9384
   67MOL    H3523927   4.191   5.122   3.152 -0.5264  2.0513  1.3296
   67MOL    H3623928   4.476   5.075   3.028 -1.2209  1.1403 -0.6125
   67MOL    H3723929   4.443   5.088   3.199  2.5140 -2.0441  0.4677
   67MOL    C3823930   4.447   4.832   3.106 -0.3502 -0.9354  0.1742
   67MOL    O3923931   4.564   4.848   3.067 -0.8538 -0.0274  0.5295
   67MOL    C4023932   4.379   4.700   3.123  0.1621 -0.0073  1.2325
   67MOL    C4123933   4.326   4.653   2.989 -0.4601 -0.0522 -0.7913
   67MOL    C4223934   4.434   4.616   2.886  0.0429  0.2212 -0.2248
   67MOL    C4323935   4.377   4.562   2.746  0.4140 -0.6668 -0.3169
   67MOL    C4423936   4.500   4.532   2.654  0.4655 -0.0532  0.1615
   67MOL    O4523937   4.574   4.423   2.711 -0.7460 -0.1285  0.5819
   67MOL    H4623938   4.309   4.698   3.207 -0.1853 -0.7918  0.9295
   67MOL    H4723939   4.459   4.640   3.167 -0.1756 -0.5802  1.0684
   67MOL    H4823940   4.252   4.728   2.962  0.5519  1.7334  1.2313
   67MOL    H4923941   4.279   4.556   3.001 -0.9794  0.5016  2.0674
   67MOL    H5023942   4.520   4.561   2.926  1.1839  3.8772  2.6823
   67MOL    H5123943   4.477   4.714   2.868 -0.5291  0.4225 -0.4782
   67MOL    H5223944   4.319   4.644   2.705  0.1008 -0.6302  0.1994
   67MOL    H5323945   4.308   4.479   2.754 -0.0655 -0.0135  3.3012
   67MOL    H5423946   4.473   4.509   2.551  0.9784  0.7422 -0.1575
   67MOL    H5523947   4.567   4.616   2.638 -2.0820  1.5224 -2.8844
   67MOL    C5623948   4.530   4.300   2.682  0.0721 -0.0067 -0.2435
   67MOL    O5723949   4.437   4.278   2.604 -0.3821  0.2476 -0.3964
   67MOL    C5823950   4.600   4.189   2.757  0.1500 -0.0142 -0.0055
   67MOL    C5923951   4.542   4.149   2.897 -0.0378 -0.7220  1.0294
   67MOL    C6023952   4.533   4.268   2.994 -0.0993 -0.7591  0.1740
   67MOL    C6123953   4.542   4.220   3.142  0.5042 -0.3409  0.2310
   67MOL    C6223954   4.519   4.320   3.251  0.3860 -0.6087 -0.2446
   67MOL    O6323955   4.596   4.435   3.224 -0.3330  0.0053 -0.4998
   67MOL    H6423956   4.705   4.216   2.764  0.5072 -1.4648  0.4756
   67MOL    H6523957   4.600   4.102   2.691 -0.9798 -0.6721  0.8287
   67MOL    H6623958   4.608   4.068   2.932  0.2531 -0.7317  0.4600
   67MOL    H6723959   4.444   4.101   2.893 -0.3902  0.1594 -2.4893
   67MOL    H6823960   4.441   4.325   2.990  0.0273 -0.5233  0.5887
   67MOL    H6923961   4.612   4.342   2.981  0.6314 -1.2708  1.5575
   67MOL    H7023962   4.643   4.179   3.144  1.4363  1.7367 -1.7323
   67MOL    H7123963   4.490   4.125   3.147  1.6068 -0.9386  0.4326
   67MOL    H7223964   4.413   4.345   3.260  0.6397 -0.5736  2.8808
   67MOL    H7323965   4.543   4.273   3.346 -2.2432 -0.4544  0.5583
   67MOL    C7423966   4.735   4.434   3.242  0.0100 -0.2776 -0.0514
   67MOL    O7523967   4.798   4.337   3.292  0.0710 -0.4569  0.2113
   67MOL    C7623968   4.805   4.564   3.217  0.0237  0.3110 -0.3048
   67MOL    C7723969   4.835   4.636   3.345 -0.1399 -0.8685  0.3396
   67MOL    C7823970   4.924   4.758   3.317  0.0797 -0.2205 -0.1183
   67MOL    C7923971   4.973   4.816   3.452 -1.1520  0.5012 -0.2431
   67MOL    C8023972   5.107   4.760   3.501 -0.2028  0.4498  1.2249
   67MOL    O8123973   5.218   4.806   3.427 -1.3835  0.0824 -0.3886
   67MOL    H8223974   4.748   4.629   3.151 -0.5597 -1.3360 -1.4510
   67MOL    H8323975   4.893   4.536   3.159  1.8281  3.7802  0.6370
   67MOL    H8423976   4.859   4.570   3.428 -0.4633  0.5110  1.5585
   67MOL    H8523977   4.734   4.670   3.368 -0.4081 -1.7154  0.4373
   67MOL    H8623978   4.878   4.829   3.249  1.9377  1.1514  0.0353
   67MOL    H8723979   5.022   4.736   3.274  0.5582 -2.2447  1.9354
   67MOL    H8823980   4.895   4.797   3.526 -0.2213 -2.9931 -0.0475
   67MOL    H8923981   4.981   4.924   3.445  1.3287  0.3133 -0.6552
   67MOL    H9023982   5.118   4.782   3.607 -0.4724  0.5412  1.2350
   67MOL    H9123983   5.113   4.651   3.500 -0.2979  0.4415 -1.3928
   67MOL    C9223984   5.343   4.790   3.472  0.2680  0.3543 -0.1238
   67MOL    O9323985   5.373   4.745   3.585 -0.6965  0.0793  0.9390
   67MOL    C9423986   5.457   4.837   3.381  0.1467 -0.4387  0.5002
   67MOL    C9523987   5.591   4.771   3.420 -0.2965 -0.2776  0.1261
   67MOL    C9623988   5.700   4.810   3.321 -0.1180  0.3135 -0.8800
   67MOL    C9723989   5.836   4.753   3.371 -0.7424 -0.6077  0.2024
   67MOL    C9823990   5.952   4.792   3.276  0.2062 -0.0008  0.5795
   67MOL    O9923991   5.934   4.751   3.144  0.4411  0.1802  0.3446
   67MOL   H10023992   5.471   4.945   3.378 -0.7450 -0.3458 -0.9790
   67MOL   H10123993   5.431   4.807   3.279  0.5381  0.1382  0.2272
   67MOL   H10223994   5.584   4.663   3.436  0.5878 -0.5719 -1.4687
   67MOL   H10323995   5.626   4.806   3.517 -0.0046  1.7309 -0.6778
   67MOL   H10423996   5.719   4.916   3.305 -2.5172  0.8114 -0.5423
   67MOL   H10523997   5.679   4.764   3.224  1.8901  0.3537 -1.3594
   67MOL   H10623998   5.825   4.647   3.393 -3.0789 -0.9714 -2.4438
   67MOL   H10723999   5.858   4.805   3.464  1.7897 -1.1949 -0.0286
   67MOL   H10824000   5.947   4.900   3.271 -3.1816 -0.1102 -0.0929
   67MOL   H10924001   6.050   4.762   3.313  0.6068 -0.5581 -0.8948
   67MOL   C11024002   6.013   4.796   3.052 -0.1824  0.0171 -0.1622
   67MOL   O11124003   6.116   4.856   3.073 -0.3358  0.3353 -0.3812
   67MOL   C11224004   5.964   4.772   2.908  0.0194 -0.2010 -0.2231
   67MOL   C11324005   5.843   4.853   2.863 -0.4821  0.1185 -0.3286
   67MOL   C11424006   5.874   5.004   2.846 -0.3927 -0.4215  0.1834
   67MOL   C11524007   5.755   5.082   2.785 -0.0130  0.6262 -0.5094
   67MOL   C11624008   5.783   5.229   2.813  0.0928  0.5736 -0.0403
   67MOL   O11724009   5.794   5.297   2.689  0.5263 -0.4077  0.3572
   67MOL   H11824010   5.940   4.666   2.903  0.6038 -0.2955 -1.2121
   67MOL   H11924011   6.050   4.798   2.847  0.3690  3.7143  1.8287
   67MOL   H12024012   5.769   4.840   2.942 -0.4626 -0.1653 -0.3575
   67MOL   H12124013   5.810   4.806   2.770  1.1766  1.9472 -1.9000
   67MOL   H12224014   5.968   5.021   2.792  0.0094  2.2078  1.6235
   67MOL   H12324015   5.888   5.036   2.950 -2.1016 -1.1227  0.6440
   67MOL   H12424016   5.666   5.048   2.839 -1.3012  1.8757 -1.8242
   67MOL   H12524017   5.750   5.059   2.679 -0.5968 -0.4946 -0.2553
   67MOL   H12624018   5.703   5.267   2.877  1.1783  1.4001  0.8764
   67MOL   H12724019   5.879   5.244   2.863  0.7911 -0.6708 -0.9804
   67MOL   C12824020   5.921   5.308   2.627  0.8028 -0.7769 -0.3732
   67MOL   O12924021   6.029   5.258   2.650 -0.0272 -0.0162  0.2285
   67MOL   C13024022   5.907   5.393   2.503  0.4061  0.4338  0.1779
   67MOL   C13124023   5.893   5.538   2.540  0.0688 -0.1173  0.5946
   67MOL   C13224024   5.873   5.626   2.416  0.5616 -0.1514 -0.0001
   67MOL   C13324025   5.745   5.602   2.335  0.7244 -0.5129 -0.0345
   67MOL   C13424026   5.715   5.723   2.246 -0.0200 -0.3101 -0.1464
   67MOL   O13524027   5.594   5.702   2.178  0.0781  0.5864 -0.0725
   67MOL   H13624028   5.821   5.355   2.448  0.2308 -0.5457  1.1021
   67MOL   H13724029   5.989   5.382   2.433 -0.6156 -0.2250 -0.9227
   67MOL   H13824030   5.985   5.573   2.586  0.7550  1.2860 -1.7510
   67MOL   H13924031   5.812   5.563   2.608  1.9639 -1.5351  3.4574
   67MOL   H14024032   5.958   5.613   2.348 -0.2371  0.3776 -1.1146
   67MOL   H14124033   5.890   5.730   2.443  0.5474  0.3331 -1.8024
   67MOL   H14224034   5.662   5.579   2.401 -0.9198  1.5772 -1.3017
   67MOL   H14324035   5.759   5.510   2.277  0.6269 -0.3076 -0.3886
   67MOL   H14424036   5.688   5.810   2.305 -2.1769 -2.6340  2.4762
   67MOL   H14524037   5.802   5.732   2.181 -0.4947 -0.9182 -0.8843
   67MOL   C14624038   5.510   5.800   2.143  0.2844  0.4169  0.6941
   67MOL   O14724039   5.527   5.920   2.159  0.0623  0.4942 -0.7011
   67MOL   C14824040   5.378   5.743   2.078  1.0093  0.2368  0.7324
   67MOL   C14924041   5.254   5.832   2.067  0.9972 -0.7840 -0.4366
   67MOL   C15024042   5.278   5.968   1.990 -0.3240  0.0077  0.1365
   67MOL   C15124043   5.316   5.952   1.840 -0.5419 -0.0300 -0.0191
   67MOL   C15224044   5.290   6.068   1.744  0.3877 -0.0312 -0.4096
   67MOL   O15324045   5.336   6.037   1.612  0.5126 -0.5614 -0.0490
   67MOL   H15424046   5.363   5.656   2.143  0.5732  1.1508  1.8773
   67MOL   H15524047   5.409   5.722   1.976 -0.0057  1.4447  0.1667
   67MOL   H15624048   5.204   5.862   2.160 -1.5520 -3.0452 -1.0183
   67MOL   H15724049   5.173   5.776   2.021 -0.0095  0.9237 -0.7977
   67MOL   H15824050   5.358   6.024   2.038 -2.8386  3.0982  0.9311
   67MOL   H15924051   5.191   6.034   1.991  0.5353  1.2654 -2.7953
   67MOL   H16024052   5.272   5.857   1.809 -0.0057  0.2569 -1.7348
   67MOL   H16124053   5.423   5.932   1.837 -0.4149  0.6192  0.3118
   67MOL   H16224054   5.181   6.071   1.733  0.4898 -0.1622 -1.5645
   67MOL   H16324055   5.320   6.169   1.773 -4.5694  1.2932  0.7176
   67MOL   C16424056   5.442   6.103   1.565 -0.7395 -0.8741  0.5750
   67MOL   O16524057   5.494   6.199   1.620 -0.6458 -0.1312  0.2905
   67MOL   C16624058   5.505   6.053   1.437  0.7625  0.0866  0.6863
   67MOL   C16724059   5.654   6.017   1.436 -0.7859 -0.0731  0.2026
   67MOL   C16824060   5.707   5.961   1.565 -0.0657  0.0277  0.8794
   67MOL   C16924061   5.841   5.892   1.556 -0.0711  0.4508 -0.1497
   67MOL   C17024062   5.853   5.794   1.674  0.0162 -1.6720  0.6224
   67MOL   O17124063   5.912   5.838   1.795 -0.0870 -0.2137  0.7654
   67MOL   H17224064   5.476   6.121   1.357 -0.9557 -0.1183  1.1265
   67MOL   H17324065   5.443   5.966   1.414 -1.2749  1.0280  2.4933
   67MOL   H17424066   5.704   6.112   1.421 -1.7976  0.3294 -0.6699
   67MOL   H17524067   5.676   5.956   1.349 -1.3651  1.7862 -1.2882
   67MOL   H17624068   5.627   5.901   1.608 -0.4396  0.0968  0.2836
   67MOL   H17724069   5.720   6.042   1.636 -0.2873  0.2273  0.6914
   67MOL   H17824070   5.919   5.969   1.549 -1.2890  1.6939 -0.2838
   67MOL   H17924071   5.834   5.829   1.467  2.7296  0.0004 -0.1207
   67MOL   H18024072   5.757   5.751   1.703 -0.8367  0.7149  1.4061
   67MOL   H18124073   5.911   5.707   1.644  1.1199 -0.4363 -0.9124
   67MOL   C18224074   5.842   5.907   1.890 -0.0079 -0.9119 -0.1429
   67MOL   O18324075   5.722   5.949   1.892 -0.0122 -0.1648  0.0261
   67MOL   C18424076   5.940   5.920   2.008 -0.4084  0.4287  0.2129
   67MOL   C18524077   5.892   6.016   2.114 -0.1230  0.3591  0.0575
   67MOL   C18624078   5.977   5.999   2.240  0.1358  0.1252  0.3893
   67MOL   C18724079   5.925   6.087   2.362  0.2334  0.1490 -0.2267
   67MOL   C18824080   6.013   6.091   2.489  0.1145 -0.2843 -0.8504
   67MOL   O18924081   6.042   5.961   2.536  0.4787 -0.2346 -0.4076
   67MOL   H19024082   6.025   5.957   1.952  0.9471  0.6787  2.3639
   67MOL   H19124083   5.975   5.822   2.040  0.7011  0.4839 -0.8256
   67MOL   H19224084   5.790   6.007   2.151 -0.2228  1.4052  0.0499
   67MOL   H19324085   5.901   6.122   2.088 -1.8855  0.8545  1.4197
   67MOL   H19424086   6.075   6.033   2.209  0.5872  2.7121  4.2209
   67MOL   H19524087   5.979   5.900   2.285  2.0780 -0.1297 -0.2327
   67MOL   H19624088   5.829   6.052   2.398  0.8694 -1.3806  0.0241
   67MOL   H19724089   5.917   6.189   2.326 -0.7112  0.4498  0.8203
   67MOL   H19824090   6.101   6.151   2.467  0.0759 -0.5368 -1.7071
   67MOL   H19924091   5.964   6.145   2.570  3.1203  0.9416  0.2416
   67MOL   C20024092   6.139   5.956   2.627 -0.5756 -0.3953  0.0935
   67MOL   O20124093   6.197   6.051   2.678 -0.6140 -0.4841  0.6123
   67MOL   C20224094   6.179   5.816   2.674  0.1030  1.2150 -0.5076
   67MOL   C20324095   6.290   5.744   2.581 -1.1065 -0.3546 -0.9231
   67MOL   C20424096   6.425   5.774   2.641  0.6538  0.8375 -0.6106
   67MOL   C20524097   6.541   5.757   2.550 -0.2951  0.4252 -0.0270
   67MOL   C20624098   6.671   5.836   2.588 -0.8034 -0.1462 -0.4629
   67MOL   O20724099   6.785   5.804   2.516 -0.3007 -0.2638 -0.0949
   67MOL   H20824100   6.081   5.768   2.679 -1.0059  3.5411  0.6583
   67MOL   H20924101   6.222   5.819   2.774  1.4464  2.3276 -1.1028
   67MOL   H21024102   6.273   5.781   2.480 -2.0739  1.5668 -0.0816
   67MOL   H21124103   6.280   5.635   2.579  0.4192 -0.5539  1.1300
   67MOL   H21224104   6.428   5.722   2.736 -3.1238 -0.8112 -1.2982
   67MOL   H21324105   6.427   5.881   2.661 -0.9627  0.3191  2.5593
   67MOL   H21424106   6.519   5.796   2.451  0.3321  0.1595 -0.2681
   67MOL   H21524107   6.565   5.653   2.530  1.8147  1.2187 -1.8261
   67MOL   H21624108   6.648   5.943   2.581 -0.0374  0.0450 -0.1193
   67MOL   H21724109   6.696   5.823   2.693 -0.4438  0.9996 -0.3970
   67MOL   C21824110   6.839   5.897   2.435  0.0724  0.1177 -0.7570
   67MOL   O21924111   6.811   6.021   2.440  0.0028 -0.0554 -0.0016
   67MOL   C22024112   6.943   5.833   2.344  0.0927  0.4260 -0.6628
   67MOL   C22124113   6.994   5.931   2.234  0.0266 -0.2015  1.0465
   67MOL   C22224114   6.904   5.936   2.111 -0.9185 -0.1024  0.4020
   67MOL   C22324115   6.763   5.976   2.139 -0.5642 -0.8966  0.3794
   67MOL   C22424116   6.689   5.997   2.007  0.4243  0.0087  0.3337
   67MOL   O22524117   6.560   6.045   2.051 -0.2346 -0.4658  0.3244
   67MOL   H22624118   6.905   5.744   2.294 -0.8390  0.8631 -0.7354
   67MOL   H22724119   7.032   5.805   2.400  0.2000  0.5245 -0.7827
   67MOL   H22824120   7.094   5.902   2.201  0.5446  0.2991  2.1652
   67MOL   H22924121   6.991   6.032   2.274  0.5060  0.5516 -0.7531
   67MOL   H23024122   6.897   5.838   2.063  0.2705 -0.5745  1.1573
   67MOL   H23124123   6.935   6.009   2.037  1.2695 -0.9552  0.4207
   67MOL   H23224124   6.758   6.063   2.203 -2.2777  0.1329 -1.1083
   67MOL   H23324125   6.719   5.894   2.197 -0.7653  1.7579  4.1274
   67MOL   H23424126   6.739   6.068   1.941  0.7972 -1.2214 -0.7427
   67MOL   H23524127   6.675   5.903   1.952 -1.0134  2.2318 -3.2545
   67MOL   C23624128   6.511   6.166   2.009 -0.2207  0.0717  0.6171
   67MOL   O23724129   6.570   6.245   1.932  0.5653 -0.2125  0.0528
   67MOL   C23824130   6.370   6.189   2.063  0.0972 -0.5559  0.1263
   67MOL   C23924131   6.352   6.158   2.213  0.1149  0.5405 -0.5184
   67MOL   C24024132   6.453   6.234   2.307  0.0125 -0.2191 -0.6585
   67MOL   C24124133   6.402   6.236   2.451 -0.0008  0.1625  0.5875
   67MOL   C24224134   6.511   6.256   2.553  0.6922  0.5140  0.0759
   67MOL   O24324135   6.463   6.262   2.688 -0.2939  0.5178 -0.6798
   67MOL   H24424136   6.307   6.121   2.004 -2.0189  2.8572 -1.6795
   67MOL   H24524137   6.334   6.289   2.041  0.7964 -0.3675 -0.1810
   67MOL   H24624138   6.365   6.052   2.238 -0.9339  0.4858 -0.1676
   67MOL   H24724139   6.250   6.177   2.248 -1.0266  0.1201 -3.5095
   67MOL   H24824140   6.462   6.338   2.276 -1.1652  0.6933  1.8930
   67MOL   H24924141   6.554   6.193   2.307  0.6808  1.3299  1.9071
   67MOL   H25024142   6.337   6.159   2.494  2.6146 -1.9507  0.8379
   67MOL   H25124143   6.330   6.318   2.451 -1.2756 -0.9226  0.4900
   67MOL   H25224144   6.579   6.172   2.541  1.0358  0.6544  1.0293
   67MOL   H25324145   6.569   6.347   2.534  0.3939  0.7542  0.3120
   67MOL   C25424146   6.545   6.250   2.791  0.0289 -0.0181  0.0486
   67MOL   O25524147   6.665   6.234   2.792 -0.3308 -0.2362  0.1445
   67MOL   C25624148   6.479   6.282   2.923  0.8570  0.2380  0.4647
   67MOL   C25724149   6.355   6.191   2.952  0.2860 -0.0389  0.0552
   67MOL   C25824150   6.407   6.060   3.006  0.9312  0.1463 -0.1982
   67MOL   C25924151   6.299   5.970   3.056  0.1067 -0.1381  0.4761
   67MOL   C26024152   6.254   5.997   3.197 -0.0300 -0.0157 -0.6590
   67MOL   O26124153   6.184   6.121   3.201  0.3903 -0.1333  0.5009
   67MOL   H26224154   6.449   6.387   2.919  0.9747  0.2406 -0.3815
   67MOL   H26324155   6.551   6.273   3.004 -0.3658  1.2279  1.7042
   67MOL   H26424156   6.280   6.183   2.873 -1.6724  0.2470  1.8525
   67MOL   H26524157   6.290   6.242   3.023 -0.5569  1.6085 -1.8259
   67MOL   H26624158   6.480   6.081   3.085  1.5655  2.0065 -1.2494
   67MOL   H26724159   6.462   6.012   2.926  0.5532  0.2918 -0.5452
   67MOL   H26824160   6.336   5.867   3.049  1.2778  0.3786 -1.0711
   67MOL   H26924161   6.211   5.982   2.994 -0.6350 -1.7089  1.1851
   67MOL   H27024162   6.186   5.922   3.237 -0.7966 -0.1021 -2.0969
   67MOL   H27124163   6.333   5.990   3.272 -0.3173 -0.3317 -0.3842
   67MOL   C27224164   6.061   6.134   3.267  0.4267  0.5483 -0.3318
   67MOL   O27324165   6.017   6.067   3.359  0.2148  0.1526 -0.0691
   67MOL   C27424166   5.980   6.263   3.224  0.3838  0.0717 -0.5783
   67MOL   C27524167   5.957   6.273   3.075 -0.2560 -0.3073  0.0970
   67MOL   C27624168   5.873   6.153   3.013 -0.2329  0.1677 -0.4246
   67MOL   C27724169   5.830   6.182   2.869 -0.2014 -0.4936  0.8985
   67MOL   C27824170   5.783   6.052   2.797  0.1251  0.0248 -0.0458
   67MOL   O27924171   5.728   6.071   2.668  0.0535 -0.6443  0.2475
   67MOL   H28024172   6.032   6.347   3.271 -1.4632  1.6807 -1.3255
   67MOL   H28124173   5.887   6.266   3.280 -0.0268  0.0062 -1.2523
   67MOL   H28224174   6.052   6.274   3.022  0.6894  0.4664  1.7846
   67MOL   H28324175   5.921   6.371   3.045 -0.7336 -0.1351  1.1963
   67MOL   H28424176   5.789   6.135   3.080 -0.9308  0.5766 -1.1824
   67MOL   H28524177   5.942   6.068   3.016  0.2592  0.5469 -0.9396
   67MOL   H28624178   5.919   6.223   2.820  0.4165 -1.4046  1.2564
   67MOL   H28724179   5.755   6.260   2.882 -0.4242 -0.9395  2.3151
   67MOL   H28824180   5.860   5.977   2.781  0.9808  1.6902 -4.4842
   67MOL   H28924181   5.711   6.006   2.865  0.5376 -1.7787 -0.8051
   67MOL   C29024182   5.643   5.978   2.624  0.8479  0.3847  0.1253
   67MOL   O29124183   5.615   5.868   2.676 -0.6601  0.4781 -0.0197
   67MOL   C29224184   5.571   6.032   2.497  0.1187 -0.0329 -0.0390
   67MOL   C29324185   5.412   6.037   2.503 -0.4734  0.2027  0.0746
   67MOL   C29424186   5.345   5.895   2.495 -0.0757 -0.2050  0.8013
   67MOL   C29524187   5.193   5.894   2.475  0.5808 -0.7094 -0.1308
   67MOL   C29624188   5.140   5.761   2.436  0.5466  0.2551  0.3422
   67MOL   O29724189   5.004   5.769   2.407  0.4315 -0.1096  0.7106
   67MOL   H29824190   5.594   5.965   2.414  1.7637 -1.5498  1.5897
   67MOL   H29924191   5.606   6.130   2.464  0.0785  0.1876  0.5699
   67MOL   H30024192   5.380   6.098   2.418  1.2665 -1.9317 -2.1879
   67MOL   H30124193   5.376   6.084   2.594 -0.9041  0.2316 -0.1120
   67MOL   H30224194   5.367   5.854   2.593  0.3174 -0.2524  0.6985
   67MOL   H30324195   5.397   5.835   2.420  0.7081  1.6859 -0.2177
   67MOL   H30424196   5.174   5.963   2.393 -0.4588  0.5947  1.1947
   67MOL   H30524197   5.146   5.942   2.561 -0.8679  0.6826 -1.6597
   67MOL   H30624198   5.188   5.728   2.344  0.6288 -0.3151  0.5892
   67MOL   H30724199   5.167   5.684   2.508  2.7333 -0.6165 -1.3467
   67MOL   C30824200   4.918   5.726   2.509  0.6457 -0.5583  0.9571
   67MOL   O30924201   4.957   5.688   2.622 -0.5830  0.3689  0.1945
   67MOL   C31024202   4.771   5.735   2.469 -0.0450  0.2384 -0.3576
   67MOL   C31124203   4.729   5.636   2.361 -0.2390  0.0558  0.0111
   67MOL   C31224204   4.727   5.487   2.408  0.2763 -0.6354  0.9431
   67MOL   C31324205   4.704   5.393   2.284 -0.3571 -0.0131  0.7966
   67MOL   C31424206   4.689   5.243   2.312 -0.7231 -0.1776 -0.8445
   67MOL   O31524207   4.791   5.201   2.405  0.3006 -0.1057  0.0137
   67MOL   H31624208   4.754   5.834   2.429  0.4779 -0.8824 -3.4552
   67MOL   H31724209   4.700   5.724   2.551 -1.1329  2.0543 -1.0330
   67MOL   H31824210   4.807   5.634   2.284 -0.3870  0.6293 -0.1631
   67MOL   H31924211   4.638   5.662   2.307 -0.7977  2.0415  1.8464
   67MOL   H32024212   4.656   5.466   2.487  0.1974  1.1422  1.3510
   67MOL   H32124213   4.824   5.476   2.457  0.2328 -0.3718  1.0861
   67MOL   H32224214   4.787   5.398   2.213 -1.2453 -0.4098 -0.2855
   67MOL   H32324215   4.618   5.425   2.226 -1.2737  3.0014  3.6299
   67MOL   H32424216   4.588   5.226   2.350 -1.4180  0.2224 -2.4855
   67MOL   H32524217   4.702   5.197   2.215  1.8303 -1.8323  0.2314
   67MOL   C32624218   4.829   5.075   2.416 -0.1520 -0.2135 -0.1275
   67MOL   O32724219   4.800   4.990   2.332  0.5801  0.0340 -0.3860
   67MOL   C32824220   4.922   5.050   2.539  0.2205  0.7053  0.9198
   67MOL   C32924221   5.028   4.948   2.515 -0.5049  0.4376 -1.0430
   67MOL   C33024222   5.132   4.966   2.401 -0.1558  0.5319  0.4794
   67MOL   C33124223   5.218   4.843   2.365 -0.1306 -0.7004 -0.2216
   67MOL   C33224224   5.138   4.732   2.287 -0.1462 -0.1572 -0.3587
   67MOL   O33324225   5.044   4.658   2.368 -0.4494 -0.6793  0.2268
   67MOL   H33424226   4.855   5.011   2.615 -2.1912  1.6418 -0.6811
   67MOL   H33524227   4.972   5.140   2.577  0.4715  1.7016 -1.5926
   67MOL   H33624228   4.971   4.855   2.513  0.1021  0.0459 -0.5347
   67MOL   H33724229   5.086   4.939   2.607 -0.7184  1.7723 -0.7688
   67MOL   H33824230   5.196   5.053   2.418  1.5587 -0.7733  0.9438
   67MOL   H33924231   5.077   4.998   2.313  0.0815 -0.2658  0.0329
   67MOL   H34024232   5.258   4.797   2.455 -2.4586  0.1578  1.3018
   67MOL   H34124233   5.299   4.880   2.302 -0.0753 -0.0268  0.2424
   67MOL   H34224234   5.088   4.764   2.195  1.6528  2.1376 -0.5642
   67MOL   H34324235   5.216   4.665   2.250  0.1581 -0.0393  0.0759
   67MOL   C34424236   5.087   4.551   2.433  0.1095  0.2419  0.0732
   67MOL   O34524237   5.205   4.503   2.438 -0.5977  0.8810 -0.6311
   67MOL   C34624238   4.974   4.476   2.500  0.5662 -0.0224 -0.4716
   67MOL   C34724239   4.971   4.513   2.644 -0.5457 -0.5315 -0.1547
   67MOL   C34824240   4.919   4.658   2.690  0.4615 -0.0073 -0.0858
   67MOL   C34924241   4.893   4.663   2.843  0.1083  0.0520  0.1284
   67MOL   C35024242   4.851   4.807   2.888 -0.0620  0.5235 -0.4323
   67MOL   O35124243   4.732   4.848   2.828  0.1109  0.4143  0.2463
   67MOL   H35224244   5.000   4.371   2.487 -0.1457 -0.2066 -0.4385
   67MOL   H35324245   4.884   4.502   2.444 -1.0080 -0.7736  1.6336
   67MOL   H35424246   5.061   4.492   2.702 -0.1309  1.6118  0.0196
   67MOL   H35524247   4.902   4.441   2.689 -0.4593  0.6849  2.0211
   67MOL   H35624248   4.832   4.688   2.631 -0.7406 -1.8847  0.6725
   67MOL   H35724249   5.007   4.719   2.674  0.4279  1.1669  3.7390
   67MOL   H35824250   4.970   4.614   2.903  1.1592 -0.1431 -1.3522
   67MOL   H35924251   4.806   4.600   2.862 -2.3156  3.8973  2.2264
   67MOL   H36024252   4.838   4.792   2.995  1.2441 -1.5752 -0.5421
   67MOL   H36124253   4.929   4.880   2.870  1.4446 -1.1246 -0.7253
   67MOL   H36224254   4.658   4.808   2.871 -0.2986  0.2266 -0.6122
   68MOL     C124255   5.100   5.947   1.366 -0.5279  0.6240 -0.4839
   68MOL     O224256   5.125   5.831   1.345  0.7421  0.5384 -0.2671
   68MOL     C324257   4.969   5.984   1.442  0.2511 -0.1613 -0.5603
   68MOL     C424258   4.857   5.898   1.401  0.9263  0.0626  0.7142
   68MOL     C524259   4.724   5.930   1.471 -0.0216  0.5325  0.4192
   68MOL     C624260   4.607   5.848   1.424  0.9775  0.3933  0.3189
   68MOL     C724261   4.481   5.882   1.494 -0.5577 -0.5363 -0.7473
   68MOL     O824262   4.516   5.848   1.626  0.2232 -0.3706 -0.6521
   68MOL     H924263   4.931   6.083   1.419 -1.1201 -1.4908 -4.5362
   68MOL    H1024264   4.985   5.971   1.549  0.1454 -1.9717 -0.7387
   68MOL    H1124265   4.887   5.797   1.432 -0.3755 -0.6743 -0.3819
   68MOL    H1224266   4.850   5.905   1.293  1.3985 -0.5197  0.6429
   68MOL    H1324267   4.701   6.037   1.469  2.1221  1.0481  2.1477
   68MOL    H1424268   4.733   5.896   1.574  1.8151 -0.8231 -0.1636
   68MOL    H1524269   4.636   5.744   1.437 -1.2578 -0.9087 -4.2354
   68MOL    H1624270   4.586   5.858   1.317 -0.2565 -1.8661  0.3344
   68MOL    H1724271   4.457   5.989   1.488 -0.7477 -0.5486 -0.1962
   68MOL    H1824272   4.408   5.816   1.447 -1.6262  0.5181 -0.5848
   68MOL    H1924273   5.158   6.035   1.337 -2.2348  1.2750 -1.9886
   68MOL    C2024274   4.417   5.799   1.705 -0.2286 -0.0027 -0.6042
   68MOL    O2124275   4.305   5.763   1.670  0.0817 -0.1408  0.7167
   68MOL    C2224276   4.462   5.768   1.850  0.4721 -0.6757  1.0682
   68MOL    C2324277   4.578   5.677   1.885  0.2557 -0.0062 -0.3357
   68MOL    C2424278   4.539   5.532   1.877  0.8389 -0.0743  0.1194
   68MOL    C2524279   4.661   5.447   1.917 -0.1945 -0.5346  0.1509
   68MOL    C2624280   4.629   5.305   1.928 -0.5324  0.8357  0.1913
   68MOL    O2724281   4.745   5.214   1.918  0.5533  0.4787 -0.0999
   68MOL    H2824282   4.371   5.722   1.887 -1.0188  1.4911  0.2336
   68MOL    H2924283   4.463   5.867   1.896  2.0553  0.3580 -1.0650
   68MOL    H3024284   4.623   5.710   1.978 -2.1900  1.4996  0.3316
   68MOL    H3124285   4.660   5.687   1.813 -0.4575 -0.9689 -1.2948
   68MOL    H3224286   4.502   5.490   1.783  0.5621 -2.9089  1.4626
   68MOL    H3324287   4.456   5.524   1.948  1.9337 -1.5567  1.2571
   68MOL    H3424288   4.697   5.489   2.011  0.4406 -2.3930  0.7539
   68MOL    H3524289   4.746   5.458   1.851  1.1158  0.4339  1.9522
   68MOL    H3624290   4.588   5.291   2.029  2.9624 -0.8616  1.4498
   68MOL    H3724291   4.559   5.267   1.854  0.5833 -1.6463  0.3901
   68MOL    C3824292   4.784   5.155   1.804  0.0978  0.1517 -1.0657
   68MOL    O3924293   4.715   5.165   1.702 -0.1284 -0.2257 -0.0582
   68MOL    C4024294   4.914   5.081   1.815  0.3968  0.6214 -0.1525
   68MOL    C4124295   4.909   4.974   1.932 -0.5026 -0.1760 -0.1097
   68MOL    C4224296   4.892   4.836   1.880  0.0036  0.5274 -0.9692
   68MOL    C4324297   4.766   4.817   1.789  0.2093 -0.0719 -0.2993
   68MOL    C4424298   4.738   4.672   1.750  0.0278 -0.6020  0.3160
   68MOL    O4524299   4.846   4.622   1.683 -0.0682 -0.4320  0.4395
   68MOL    H4624300   4.998   5.150   1.818 -0.2301  1.3939 -0.1033
   68MOL    H4724301   4.953   5.033   1.725  0.6781 -0.5761  0.5894
   68MOL    H4824302   4.830   5.005   2.001 -0.1018  2.6739 -0.8453
   68MOL    H4924303   5.001   4.994   1.986  0.6925 -2.5289 -1.2398
   68MOL    H5024304   4.880   4.772   1.968 -1.5396  2.4585  0.2757
   68MOL    H5124305   4.986   4.812   1.831  0.6691  1.3985 -0.1442
   68MOL    H5224306   4.771   4.882   1.702  0.8290  3.2814  2.1579
   68MOL    H5324307   4.677   4.864   1.831  0.2794 -0.5841  0.4498
   68MOL    H5424308   4.715   4.621   1.843  1.6243  0.6436  1.4301
   68MOL    H5524309   4.655   4.661   1.680  1.0917 -0.6759 -0.9715
   68MOL    C5624310   4.845   4.498   1.623 -0.3863  0.1299 -0.0174
   68MOL    O5724311   4.746   4.433   1.596  0.0505 -0.1220  0.2000
   68MOL    C5824312   4.979   4.440   1.611 -0.5887  0.8701 -0.0520
   68MOL    C5924313   5.026   4.348   1.725 -0.1798  0.0369 -0.5730
   68MOL    C6024314   5.006   4.386   1.873 -0.1903 -0.4084  0.4366
   68MOL    C6124315   5.062   4.291   1.984 -0.3480 -0.0497 -0.5084
   68MOL    C6224316   5.056   4.373   2.114 -0.1592 -0.3079 -0.2485
   68MOL    O6324317   4.926   4.410   2.139 -0.1226 -0.4272  0.6275
   68MOL    H6424318   5.049   4.522   1.596  0.9316 -0.2923  0.5872
   68MOL    H6524319   4.975   4.375   1.524 -0.7573  0.8160 -0.0035
   68MOL    H6624320   5.132   4.325   1.718  0.0364  0.6182  0.6672
   68MOL    H6724321   4.978   4.251   1.713  0.2330 -0.1692 -0.5752
   68MOL    H6824322   4.902   4.410   1.897  0.1795  0.0559  1.6055
   68MOL    H6924323   5.058   4.481   1.880  2.2015 -1.8320  3.1394
   68MOL    H7024324   5.161   4.261   1.949 -0.3755 -0.2776 -0.3939
   68MOL    H7124325   5.011   4.196   2.001  3.1808 -1.8034  1.1041
   68MOL    H7224326   5.107   4.333   2.202  0.9774  1.4095 -0.1160
   68MOL    H7324327   5.113   4.465   2.105  1.0393 -0.7248  2.5868
   68MOL    C7424328   4.843   4.324   2.192 -0.4544 -0.1137  0.7777
   68MOL    O7524329   4.867   4.211   2.235 -0.2294 -0.5970  0.0102
   68MOL    C7624330   4.697   4.376   2.182  0.7493  0.1714 -0.4405
   68MOL    C7724331   4.657   4.467   2.305  0.6547  1.0458  0.4784
   68MOL    C7824332   4.686   4.609   2.284  0.0464  0.2146 -0.2429
   68MOL    C7924333   4.580   4.685   2.193 -0.0892  0.1272 -0.5534
   68MOL    C8024334   4.594   4.834   2.186  0.1795  0.3517  0.2330
   68MOL    O8124335   4.500   4.869   2.086  0.2255  0.0180  0.0505
   68MOL    H8224336   4.628   4.295   2.157  2.3601 -1.6223  0.8136
   68MOL    H8324337   4.681   4.453   2.106 -2.0739  0.6306  0.5572
   68MOL    H8424338   4.709   4.439   2.396  0.1600  2.2814  1.1596
   68MOL    H8524339   4.552   4.457   2.334  0.3427  2.3457 -0.1612
   68MOL    H8624340   4.784   4.626   2.238 -0.2397  2.6362 -0.0475
   68MOL    H8724341   4.693   4.657   2.381  0.1719 -0.4951  0.0994
   68MOL    H8824342   4.478   4.681   2.233  0.9918  1.7258  2.5355
   68MOL    H8924343   4.593   4.644   2.094  2.3699 -1.1829  0.2832
   68MOL    H9024344   4.563   4.875   2.282 -0.6915  0.1087  0.0609
   68MOL    H9124345   4.696   4.868   2.171 -0.6138  2.7932  0.2266
   68MOL    C9224346   4.469   4.997   2.089  0.6056 -0.2004  0.1957
   68MOL    O9324347   4.478   5.082   2.176  0.0816 -0.1196  0.1875
   68MOL    C9424348   4.419   5.047   1.950 -0.4844 -0.0930 -0.3439
   68MOL    C9524349   4.274   5.011   1.919 -0.1287 -0.0131  0.0397
   68MOL    C9624350   4.239   5.005   1.766 -0.0644  0.4644 -0.2372
   68MOL    C9724351   4.184   5.133   1.693  0.1108 -0.0031 -0.2181
   68MOL    C9824352   4.199   5.129   1.538 -0.3166 -1.1655 -0.5269
   68MOL    O9924353   4.109   5.028   1.495 -0.1482  0.4626 -0.1050
   68MOL   H10024354   4.491   5.024   1.871 -1.4349  1.8618 -1.8064
   68MOL   H10124355   4.418   5.156   1.945 -2.8191 -0.0735  0.0832
   68MOL   H10224356   4.206   5.078   1.970  0.6876  1.0156 -0.2154
   68MOL   H10324357   4.254   4.913   1.962 -1.3142  1.1964  2.2842
   68MOL   H10424358   4.176   4.916   1.760  2.0842 -1.1299  0.2051
   68MOL   H10524359   4.334   4.978   1.721  0.4502  1.1508  0.4401
   68MOL   H10624360   4.239   5.216   1.737  1.4881 -0.8786 -0.2767
   68MOL   H10724361   4.081   5.155   1.723  0.8788  2.3540  0.7654
   68MOL   H10824362   4.164   5.230   1.515  1.3012  0.2342  2.8104
   68MOL   H10924363   4.299   5.111   1.499  0.3780 -0.0027  0.6552
   68MOL   C11024364   4.040   5.047   1.381  0.3212 -0.0298  0.0815
   68MOL   O11124365   4.046   5.144   1.306  0.0440 -0.1893  0.2897
   68MOL   C11224366   3.939   4.935   1.350 -0.1592  0.2446 -0.1478
   68MOL   C11324367   3.819   4.922   1.437  0.1484  0.0499 -0.2337
   68MOL   C11424368   3.847   4.883   1.582 -0.0839 -0.2956 -0.2892
   68MOL   C11524369   3.724   4.839   1.665 -0.5782  0.5129  0.7991
   68MOL   C11624370   3.614   4.940   1.678  0.2358  0.8949  0.4307
   68MOL   O11724371   3.508   4.876   1.750 -0.8795  0.0597 -0.2639
   68MOL   H11824372   3.996   4.842   1.355 -0.2804  0.0370 -2.1725
   68MOL   H11924373   3.919   4.931   1.243  0.5677 -1.9085 -0.2162
   68MOL   H12024374   3.758   4.842   1.396  0.6377 -0.0982 -0.6739
   68MOL   H12124375   3.757   5.012   1.440 -0.0855 -0.1138 -0.1338
   68MOL   H12224376   3.905   4.961   1.632 -0.4272 -0.7530  0.8456
   68MOL   H12324377   3.915   4.799   1.574 -3.5653 -3.1224 -1.4142
   68MOL   H12424378   3.761   4.817   1.766  1.6752  0.0855 -0.0786
   68MOL   H12524379   3.690   4.748   1.616 -0.3917  1.2688 -0.7505
   68MOL   H12624380   3.648   5.029   1.730 -1.8933  1.7634  0.3626
   68MOL   H12724381   3.572   4.974   1.584 -1.2378 -0.5752  0.5363
   68MOL   C12824382   3.399   4.949   1.782  0.0158  0.4469 -0.0694
   68MOL   O12924383   3.373   5.064   1.748 -0.0472 -0.0465  0.2985
   68MOL   C13024384   3.302   4.863   1.859  0.1738  0.4254  0.3529
   68MOL   C13124385   3.311   4.893   2.015  0.6599  0.4431  0.8570
   68MOL   C13224386   3.258   5.034   2.045 -1.1350  0.1743 -0.2480
   68MOL   C13324387   3.260   5.046   2.197  0.4436 -0.2345 -0.3372
   68MOL   C13424388   3.220   5.190   2.241  0.3572 -1.1036  0.4387
   68MOL   O13524389   3.079   5.211   2.228 -0.0327 -0.2033 -0.6803
   68MOL   H13624390   3.323   4.756   1.846  2.1386  0.8949 -0.5369
   68MOL   H13724391   3.204   4.877   1.814  0.9157  0.3418 -1.3242
   68MOL   H13824392   3.416   4.872   2.040  0.6633 -2.4271 -1.3710
   68MOL   H13924393   3.254   4.821   2.074  2.1314  0.7828  2.7494
   68MOL   H14024394   3.165   5.048   1.990 -1.2003  0.3219 -0.0982
   68MOL   H14124395   3.324   5.105   1.995 -1.1448  0.0695 -0.4101
   68MOL   H14224396   3.365   5.032   2.222  0.2500 -3.3082 -1.0720
   68MOL   H14324397   3.209   4.969   2.255  0.2110 -0.1405 -0.4163
   68MOL   H14424398   3.249   5.202   2.345  0.1055  0.0351  0.3744
   68MOL   H14524399   3.280   5.262   2.185  1.8824 -1.2699  1.8169
   68MOL   C14624400   3.037   5.272   2.121 -0.0737 -0.1429  0.7087
   68MOL   O14724401   3.106   5.332   2.032 -0.3747 -0.2758  0.4765
   68MOL   C14824402   2.882   5.253   2.102 -0.7133 -0.0633  0.1230
   68MOL   C14924403   2.827   5.305   1.967 -0.2042  0.0612  0.2732
   68MOL   C15024404   2.880   5.223   1.850  1.1819 -0.0184  0.1677
   68MOL   C15124405   2.824   5.262   1.710  0.1852 -0.0917  0.2326
   68MOL   C15224406   2.852   5.155   1.600  0.5279  0.7748  0.4260
   68MOL   O15324407   2.821   5.221   1.475 -1.0489  0.2322 -0.2356
   68MOL   H15424408   2.829   5.302   2.184  0.6271  0.5998  0.6180
   68MOL   H15524409   2.846   5.152   2.123  0.4260 -0.3276  0.8360
   68MOL   H15624410   2.855   5.410   1.959 -0.9849  0.0478 -3.5655
   68MOL   H15724411   2.718   5.299   1.975 -0.2190  0.9445  0.7673
   68MOL   H15824412   2.859   5.116   1.862 -1.8932  0.5224  0.0142
   68MOL   H15924413   2.988   5.229   1.840  1.1379  2.2763  0.9802
   68MOL   H16024414   2.881   5.347   1.673 -0.9242  0.0704 -1.1862
   68MOL   H16124415   2.717   5.281   1.705  0.4600  1.6172  0.6223
   68MOL   H16224416   2.953   5.117   1.595  1.1519  2.5461 -1.2462
   68MOL   H16324417   2.786   5.070   1.614 -2.4872  3.0476  0.6610
   68MOL   C16424418   2.695   5.233   1.440  0.1705 -0.1502  0.4769
   68MOL   O16524419   2.596   5.193   1.510 -0.2275 -0.1138 -0.0424
   68MOL   C16624420   2.673   5.320   1.311  0.7295 -0.0071 -0.3426
   68MOL   C16724421   2.768   5.442   1.312 -0.0928 -0.6263  0.4393
   68MOL   C16824422   2.706   5.573   1.263 -0.2990  0.6860 -0.2764
   68MOL   C16924423   2.678   5.557   1.117 -0.1898 -0.2143 -0.2478
   68MOL   C17024424   2.605   5.671   1.062 -1.0972 -0.0058 -0.3615
   68MOL   O17124425   2.577   5.642   0.931 -0.2517 -0.4032  0.0852
   68MOL   H17224426   2.565   5.334   1.318  0.7592  0.6975 -1.1553
   68MOL   H17324427   2.693   5.259   1.223 -0.7415  0.0872 -0.7477
   68MOL   H17424428   2.854   5.411   1.252 -1.1098 -0.1310 -1.2881
   68MOL   H17524429   2.813   5.458   1.410  0.8889  1.3538 -0.3105
   68MOL   H17624430   2.768   5.662   1.279 -1.7399  1.4220  1.5053
   68MOL   H17724431   2.613   5.584   1.320 -0.1612 -0.0734  0.0906
   68MOL   H17824432   2.617   5.469   1.097 -0.6766  0.3246 -1.1687
   68MOL   H17924433   2.770   5.551   1.059 -1.2504 -0.2527 -1.9635
   68MOL   H18024434   2.519   5.668   1.129  0.2861 -0.2403  1.4705
   68MOL   H18124435   2.661   5.762   1.084  1.7959 -1.6876 -0.5907
   68MOL   C18224436   2.458   5.684   0.874  0.2953  0.3430 -0.5069
   68MOL   O18324437   2.366   5.733   0.936 -0.0945 -0.5791  0.2536
   68MOL   C18424438   2.450   5.654   0.732 -0.1609  0.1157 -0.3150
   68MOL   C18524439   2.479   5.779   0.646 -0.2057  0.2552  0.3062
   68MOL   C18624440   2.499   5.741   0.498  0.0044 -0.9084  0.5627
   68MOL   C18724441   2.629   5.672   0.453  0.0597 -0.7393  0.4486
   68MOL   C18824442   2.756   5.768   0.445  0.8394  0.3225 -0.4342
   68MOL   O18924443   2.784   5.822   0.571  0.3341  0.0993 -0.3957
   68MOL   H19024444   2.351   5.614   0.708  0.5888 -1.1632 -1.3636
   68MOL   H19124445   2.513   5.568   0.709  0.1777  0.2348  0.1522
   68MOL   H19224446   2.565   5.836   0.680  0.2230 -0.0408 -0.2796
   68MOL   H19324447   2.402   5.855   0.661 -0.7844 -0.6530  2.1031
   68MOL   H19424448   2.485   5.825   0.430  3.7671 -2.4982 -2.3679
   68MOL   H19524449   2.413   5.675   0.483 -1.8268  1.4121  0.6168
   68MOL   H19624450   2.609   5.641   0.350  1.8124  0.3433 -0.2332
   68MOL   H19724451   2.650   5.582   0.511 -0.6287 -2.6598 -2.1504
   68MOL   H19824452   2.843   5.710   0.413 -0.2002 -1.2936 -0.4034
   68MOL   H19924453   2.736   5.843   0.369 -0.3685  0.1865 -0.2575
   68MOL   C20024454   2.861   5.753   0.658 -0.0975  0.1720  0.0001
   68MOL   O20124455   2.906   5.635   0.633 -0.1180 -0.2427  0.0429
   68MOL   C20224456   2.886   5.840   0.790  0.1175 -0.4972  0.7714
   68MOL   C20324457   2.935   5.982   0.760 -0.0834 -0.0105 -0.1069
   68MOL   C20424458   3.038   5.988   0.642  0.4207 -0.4236 -0.0711
   68MOL   C20524459   3.157   5.888   0.654  0.0691 -0.5818 -0.4916
   68MOL   C20624460   3.230   5.831   0.521  0.4776  0.1697 -0.1559
   68MOL   O20724461   3.147   5.736   0.469 -0.8424  0.1938 -0.3736
   68MOL   H20824462   2.960   5.787   0.851  1.2400  0.7339  0.4902
   68MOL   H20924463   2.799   5.844   0.856  0.0849 -1.2086  0.7848
   68MOL   H21024464   2.979   6.026   0.849 -0.9510 -0.7482  0.7083
   68MOL   H21124465   2.851   6.049   0.740 -1.2634 -1.3109  0.3565
   68MOL   H21224466   3.073   6.090   0.625 -0.4029 -0.3020 -1.0407
   68MOL   H21324467   2.982   5.960   0.553 -1.2700 -2.5436  1.6178
   68MOL   H21424468   3.123   5.801   0.711 -2.3585  0.0567 -0.8895
   68MOL   H21524469   3.233   5.928   0.721 -1.5608  2.6655 -0.4925
   68MOL   H21624470   3.244   5.909   0.445 -1.1885  3.0439  2.3475
   68MOL   H21724471   3.327   5.790   0.548  0.6305 -0.5162 -1.6919
   68MOL   C21824472   3.195   5.632   0.409  0.2671  0.0798  0.9306
   68MOL   O21924473   3.315   5.603   0.409 -0.0487 -0.1913  0.2045
   68MOL   C22024474   3.100   5.550   0.332 -0.3206  0.1407  0.4850
   68MOL   C22124475   3.069   5.608   0.191 -0.1840 -0.0953  0.9757
   68MOL   C22224476   2.950   5.703   0.183  0.0140 -0.1526  1.1029
   68MOL   C22324477   2.922   5.741   0.033  0.2184 -0.2126  0.1289
   68MOL   C22424478   2.812   5.847   0.029 -0.3446  0.8146  0.4167
   68MOL   O22524479   2.685   5.784   0.049 -0.7768 -0.0698  0.3797
   68MOL   H22624480   3.008   5.519   0.382  0.5616 -3.0532  0.2653
   68MOL   H22724481   3.159   5.459   0.324  1.0071  1.0032  0.4069
   68MOL   H22824482   3.048   5.521   0.129  1.5508 -0.9621  1.5584
   68MOL   H22924483   3.155   5.661   0.151 -1.8412  1.3665 -0.7180
   68MOL   H23024484   2.969   5.795   0.240  2.5113 -0.3845  0.7209
   68MOL   H23124485   2.863   5.646   0.217 -0.0942 -0.8454 -0.3369
   68MOL   H23224486   2.883   5.657   7.820 -0.5431 -0.8176  1.4887
   68MOL   H23324487   3.012   5.790   7.843 -0.7939  1.4788 -0.1517
   68MOL   H23424488   2.826   5.925   0.104 -1.2658  0.0100  1.4347
   68MOL   H23524489   2.827   5.893   7.776 -0.6030  1.4797  0.6885
   68MOL   C23624490   2.573   5.846   0.088  0.4093  1.0141 -1.3238
   68MOL   O23724491   2.568   5.956   0.132  0.0745  0.0671  0.2429
   68MOL   C23824492   2.456   5.749   0.099  0.9937  0.3658  0.0605
   68MOL   C23924493   2.321   5.813   0.058  0.0610  0.0630  0.0670
   68MOL   C24024494   2.274   5.916   0.159  0.1361 -0.0752  0.3167
   68MOL   C24124495   2.127   5.940   0.141 -0.2337  0.6966  0.0954
   68MOL   C24224496   2.076   6.054   0.236  0.2379  0.1169 -0.0449
   68MOL   O24324497   1.957   6.116   0.191  0.3664 -0.4389 -0.1668
   68MOL   H24424498   2.447   5.712   0.201 -0.0836  0.7093  0.1009
   68MOL   H24524499   2.462   5.661   0.036  0.3794  1.4035 -1.4737
   68MOL   H24624500   2.245   5.735   0.048  0.2018  0.2345 -2.7544
   68MOL   H24724501   2.326   5.860   7.804  0.8685 -0.5547 -0.1939
   68MOL   H24824502   2.325   6.013   0.156 -1.0210  0.5550  0.5702
   68MOL   H24924503   2.290   5.883   0.261  1.6177 -0.5850 -0.0741
   68MOL   H25024504   2.070   5.850   0.162  0.9132 -0.0141  0.2111
   68MOL   H25124505   2.101   5.969   0.040  0.3475 -1.7027 -0.7655
   68MOL   H25224506   2.080   6.035   0.344  1.1868  1.3924  0.1481
   68MOL   H25324507   2.155   6.125   0.211  0.3480 -0.0619 -0.2077
   68MOL   C25424508   1.840   6.061   0.233  0.9682  0.5123 -0.7551
   68MOL   O25524509   1.829   5.969   0.317  0.0405 -0.4185 -0.6692
   68MOL   C25624510   1.715   6.137   0.179 -0.2166 -0.3899 -0.2287
   68MOL   C25724511   1.666   6.264   0.250  0.2450 -0.5579  0.1561
   68MOL   C25824512   1.571   6.233   0.364  0.2302 -0.1039  0.3174
   68MOL   C25924513   1.503   6.355   0.411  0.2581 -0.3178 -0.6883
   68MOL   C26024514   1.402   6.342   0.525  0.5182  0.2601 -0.1371
   68MOL   O26124515   1.334   6.465   0.538  0.1115  0.3802  0.4816
   68MOL   H26224516   1.630   6.069   0.192 -0.6914  0.1075 -0.7135
   68MOL   H26324517   1.734   6.158   0.074 -0.7633  0.4243 -0.1654
   68MOL   H26424518   1.623   6.337   0.182 -0.2859 -2.0015 -1.0921
   68MOL   H26524519   1.749   6.309   0.304  0.6413 -0.1599 -0.7809
   68MOL   H26624520   1.619   6.177   0.445 -0.0908  1.8910  1.9357
   68MOL   H26724521   1.498   6.165   0.321 -0.2134  0.2725  0.4732
   68MOL   H26824522   1.457   6.401   0.324  1.2088 -1.2104 -1.6741
   68MOL   H26924523   1.576   6.430   0.443  0.4260 -1.0710  0.7457
   68MOL   H27024524   1.322   6.270   0.510  1.0087 -0.1889 -0.6510
   68MOL   H27124525   1.451   6.321   0.620 -0.4220  0.5555  0.4207
   68MOL   C27224526   1.369   6.560   0.630 -0.5042 -0.1904 -0.0478
   68MOL   O27324527   1.464   6.561   0.714  0.3408  0.0148 -0.5724
   68MOL   C27424528   1.259   6.670   0.623 -0.4560 -0.8503  0.4472
   68MOL   C27524529   1.121   6.628   0.660 -0.3494  0.9372  0.0430
   68MOL   C27624530   1.028   6.750   0.663  0.2855 -0.2229  0.0678
   68MOL   C27724531   0.874   6.725   0.675  0.1931 -0.1715  0.0045
   68MOL   C27824532   0.788   6.852   0.678 -0.2161  0.4698 -0.4560
   68MOL   O27924533   0.791   6.919   0.555  0.1145  0.4047 -0.3732
   68MOL   H28024534   1.256   6.701   0.518  1.8864 -1.2062  0.2502
   68MOL   H28124535   1.284   6.757   0.684 -1.5018 -0.1085 -0.1697
   68MOL   H28224536   1.127   6.599   0.765 -0.7655  0.3400 -0.0927
   68MOL   H28324537   1.078   6.548   0.599 -0.6352  0.4531  0.8579
   68MOL   H28424538   1.040   6.812   0.574 -1.3390 -0.9857 -0.7068
   68MOL   H28524539   1.060   6.816   0.744  3.3201 -3.1770  1.3986
   68MOL   H28624540   0.851   6.663   0.761 -1.9923 -2.2010 -1.9858
   68MOL   H28724541   0.842   6.653   0.600  2.1584 -1.7888  0.6860
   68MOL   H28824542   0.686   6.814   0.687 -0.3646  0.9423 -0.1350
   68MOL   H28924543   0.795   6.910   0.770 -2.9445  2.3984 -1.4155
   68MOL   C29024544   0.874   7.029   0.543 -0.5628  0.5140  0.5441
   68MOL   O29124545   0.950   7.064   0.633  0.0209 -0.2852 -0.0444
   68MOL   C29224546   0.867   7.104   0.411 -0.1719  0.2710 -0.3788
   68MOL   C29324547   0.761   7.215   0.392  0.3693  0.1816 -0.5292
   68MOL   C29424548   0.771   7.339   0.485 -0.6458 -0.4497  0.0923
   68MOL   C29524549   0.685   7.454   0.447 -0.4335 -0.3988 -0.3391
   68MOL   C29624550   0.684   7.546   0.572 -0.3304 -1.1449 -0.3886
   68MOL   O29724551   0.636   7.675   0.520 -0.0893  0.0826 -0.5982
   68MOL   H29824552   0.852   7.026   0.337  1.4433 -0.6226  0.2124
   68MOL   H29924553   0.967   7.145   0.394 -0.4906  1.4137  0.3826
   68MOL   H30024554   0.664   7.166   0.405  0.0827 -0.0191 -3.1729
   68MOL   H30124555   0.778   7.245   0.289  1.6817 -0.6477 -0.5775
   68MOL   H30224556   0.875   7.372   0.483 -0.3858 -1.2713 -0.5384
   68MOL   H30324557   0.739   7.302   0.582 -4.3287 -0.0584 -0.8804
   68MOL   H30424558   0.590   7.418   0.409 -0.5950  0.4371 -0.7250
   68MOL   H30524559   0.741   7.498   0.365  0.2899 -0.3889  0.1532
   68MOL   H30624560   0.613   7.512   0.647  0.8800 -1.1578  0.7649
   68MOL   H30724561   0.782   7.563   0.617 -1.7689  3.8293  1.1603
   68MOL   C30824562   0.629   7.766   0.623 -0.2808  0.6175 -0.5488
   68MOL   O30924563   0.665   7.755   0.740 -0.0401 -0.0450 -0.6981
   68MOL   C31024564   0.610   0.062   0.583  0.5447 -0.1661  0.4127
   68MOL   C31124565   0.465   0.096   0.579 -0.4746  0.2427 -0.0882
   68MOL   C31224566   0.430   0.235   0.516  0.0412 -0.2262  0.2379
   68MOL   C31324567   0.472   0.349   0.612 -0.6988 -0.2202  0.0392
   68MOL   C31424568   0.452   0.477   0.533 -0.3207  0.0948 -0.4132
   68MOL   O31524569   0.486   0.586   0.615 -0.2082 -0.3467  0.2925
   68MOL   H31624570   0.667   0.080   0.492  0.3601 -1.6762 -0.0025
   68MOL   H31724571   0.658   0.116   0.664 -0.2151 -0.4491  1.0578
   68MOL   H31824572   0.414   0.085   0.675 -1.1263  0.7802 -0.3631
   68MOL   H31924573   0.417   0.023   0.514  0.4276 -1.4451  1.1051
   68MOL   H32024574   0.321   0.234   0.512  0.0663 -0.8277 -0.3778
   68MOL   H32124575   0.476   0.235   0.418 -0.2396  0.7890  0.1032
   68MOL   H32224576   0.578   0.336   0.633 -0.5210  2.2046  0.7709
   68MOL   H32324577   0.412   0.350   0.703 -0.2981 -0.5577  0.3090
   68MOL   H32424578   0.518   0.471   0.447 -0.7464  0.4247 -0.7704
   68MOL   H32524579   0.349   0.475   0.496  0.3361 -0.6202 -2.2227
   68MOL   C32624580   0.455   0.711   0.576 -0.3134 -0.3674 -0.1639
   68MOL   O32724581   0.385   0.737   0.479  0.7113  0.0481 -0.4132
   68MOL   C32824582   0.526   0.818   0.655  0.3226 -0.3942  0.1884
   68MOL   C32924583   0.627   0.903   0.572  0.0026  0.8859  0.2858
   68MOL   C33024584   0.560   1.002   0.474 -0.7898  0.0168  0.1919
   68MOL   C33124585   0.654   1.130   0.463  0.0899  0.4467  0.1691
   68MOL   C33224586   0.578   1.240   0.381  0.5306 -0.1403  0.1890
   68MOL   O33324587   0.671   1.339   0.366 -0.4769  0.0039 -0.1258
   68MOL   H33424588   0.576   0.777   0.742 -0.2494 -1.3697  0.0532
   68MOL   H33524589   0.443   0.878   0.690  0.3247  1.1161 -2.2494
   68MOL   H33624590   0.698   0.832   0.530 -0.1861  2.2700 -2.4588
   68MOL   H33724591   0.677   0.961   0.649 -1.2541  0.6690  1.2736
   68MOL   H33824592   0.465   1.035   0.515 -1.4783 -1.5386 -0.1160
   68MOL   H33924593   0.551   0.948   0.380 -0.6456 -0.1312  0.2630
   68MOL   H34024594   0.743   1.098   0.410 -1.4600 -0.7107 -1.8143
   68MOL   H34124595   0.676   1.165   0.564  1.5906 -0.0790  0.0389
   68MOL   H34224596   0.557   1.187   0.288 -1.2403 -3.0048  2.1462
   68MOL   H34324597   0.481   1.274   0.417 -0.1228 -2.1761  0.3960
   68MOL   C34424598   0.654   1.446   0.294 -0.2658 -0.2222 -0.6151
   68MOL   O34524599   0.542   1.488   0.262  0.0821 -0.1629  0.0097
   68MOL   C34624600   0.788   1.528   0.270  0.5105  0.1158 -0.0138
   68MOL   C34724601   0.898   1.433   0.213 -0.3539  0.0607 -0.3251
   68MOL   C34824602   1.036   1.498   0.192  0.2075  0.1536  0.1270
   68MOL   C34924603   1.041   1.604   0.084 -0.3104  0.5197  0.6683
   68MOL   C35024604   1.190   1.666   0.076 -1.0755  0.1757  0.3354
   68MOL   O35124605   1.284   1.566   0.048  0.6433  0.3371  0.3484
   68MOL   H35224606   0.814   1.571   0.366  1.9629 -1.5934  0.3885
   68MOL   H35324607   0.755   1.606   0.202  0.6883  0.4438  0.2777
   68MOL   H35424608   0.863   1.390   0.120  1.2138 -1.4583 -0.2482
   68MOL   H35524609   0.917   1.345   0.276 -1.0122  0.3444  0.2770
   68MOL   H35624610   1.109   1.426   0.157  0.6193  1.4964 -1.8325
   68MOL   H35724611   1.081   1.538   0.283 -0.9711  0.5819  0.5329
   68MOL   H35824612   0.966   1.682   0.095 -0.6495  0.3978 -0.6966
   68MOL   H35924613   1.020   1.569   7.827 -3.2339 -0.9167  1.7016
   68MOL   H36024614   1.191   1.735   7.836 -0.3844  0.2702  0.4171
   68MOL   H36124615   1.212   1.714   0.172  3.0398 -0.8787  0.0041
   68MOL   H36224616   1.284   1.507   0.122 -0.6859 -1.7798 -1.2940
   69MOL     C124617   4.916   3.216   2.172 -0.7533 -0.2200  0.2082
   69MOL     O224618   4.828   3.299   2.207 -0.1365 -0.3652 -0.3261
   69MOL     C324619   4.882   3.072   2.128 -0.1818  0.0608  0.5558
   69MOL     C424620   4.740   3.027   2.163  0.0848 -0.6920 -0.2882
   69MOL     C524621   4.735   2.975   2.302 -0.2754  0.2321  0.4601
   69MOL     C624622   4.584   2.948   2.334 -0.0737 -0.2156 -0.3010
   69MOL     C724623   4.559   2.838   2.438 -0.3638 -0.3890 -0.0489
   69MOL     O824624   4.628   2.869   2.559  0.0973  0.0872  0.3783
   69MOL     H924625   4.956   3.012   2.180  1.8653  1.3059 -0.8105
   69MOL    H1024626   4.905   3.060   2.022  3.3550  0.5368  1.1799
   69MOL    H1124627   4.716   2.937   2.106  0.9539  0.0337 -1.8533
   69MOL    H1224628   4.658   3.096   2.144  0.2643 -0.0255  1.3411
   69MOL    H1324629   4.771   3.034   2.387  0.7010 -2.2088  1.7648
   69MOL    H1424630   4.785   2.879   2.307  0.5310  0.6149 -0.1010
   69MOL    H1524631   4.540   2.923   2.238  1.7115  1.9427 -1.7265
   69MOL    H1624632   4.542   3.041   2.371 -1.6884 -1.3112  0.6978
   69MOL    H1724633   4.451   2.833   2.451 -0.4101 -0.1278 -0.3128
   69MOL    H1824634   4.594   2.741   2.403 -3.2217 -0.2917 -3.3619
   69MOL    H1924635   5.020   3.244   2.162 -0.4103 -1.9063 -1.3729
   69MOL    C2024636   4.604   2.801   2.670 -0.0829 -0.6757  0.0317
   69MOL    O2124637   4.521   2.709   2.683 -0.3498  0.5134  1.0979
   69MOL    C2224638   4.686   2.844   2.789  0.0040 -0.1965  0.0883
   69MOL    C2324639   4.838   2.853   2.751 -0.3312 -0.7145 -0.0809
   69MOL    C2424640   4.913   2.923   2.861  0.0076  0.0860  0.6692
   69MOL    C2524641   5.061   2.938   2.838  0.0340  0.4741 -0.3681
   69MOL    C2624642   5.117   3.009   2.954 -0.3145  0.3138  0.1064
   69MOL    O2724643   5.095   2.936   3.077  0.9936 -0.6356  0.1882
   69MOL    H2824644   4.669   2.771   2.868 -0.7100 -0.6398 -0.4698
   69MOL    H2924645   4.648   2.941   2.821 -1.6456 -0.8798  0.2353
   69MOL    H3024646   4.860   2.898   2.654 -0.6857  0.4387  0.3560
   69MOL    H3124647   4.878   2.752   2.745 -1.4093 -1.1244 -0.5903
   69MOL    H3224648   4.886   2.860   2.946 -3.2135  0.6147  0.0865
   69MOL    H3324649   4.870   3.021   2.881  0.5306 -0.4548  4.8087
   69MOL    H3424650   5.078   2.991   2.745  0.6763  0.2721 -0.3669
   69MOL    H3524651   5.103   2.837   2.831 -0.4795  0.1751  0.7114
   69MOL    H3624652   5.221   3.034   2.930  0.3289 -2.5671 -0.3360
   69MOL    H3724653   5.064   3.103   2.960  1.1423  1.0208  2.3747
   69MOL    C3824654   5.105   3.000   3.193  0.1218 -0.1744 -0.3035
   69MOL    O3924655   5.129   3.121   3.207  0.1178  0.3886  0.1371
   69MOL    C4024656   5.091   2.911   3.316  0.3818  0.1385  0.9461
   69MOL    C4124657   5.200   2.799   3.309  0.3118  0.1780  0.0864
   69MOL    C4224658   5.205   2.712   3.443  0.1463  0.1766  0.0921
   69MOL    C4324659   5.165   2.791   3.570  0.6408  0.5358  0.7651
   69MOL    C4424660   5.172   2.715   3.704  0.2611 -0.7245  0.0004
   69MOL    O4524661   5.296   2.647   3.711 -0.1707 -0.7157 -0.0675
   69MOL    H4624662   4.991   2.868   3.311 -0.4183  2.2169 -5.5944
   69MOL    H4724663   5.078   2.975   3.403 -0.0716 -0.4876  1.3466
   69MOL    H4824664   5.300   2.837   3.289 -0.0956  1.2600  0.0876
   69MOL    H4924665   5.185   2.719   3.236  1.5675 -0.5146  0.5741
   69MOL    H5024666   5.308   2.679   3.447  0.0337 -0.2650 -0.5585
   69MOL    H5124667   5.129   2.634   3.438 -0.7534  1.0694 -0.5069
   69MOL    H5224668   5.061   2.823   3.557  0.8880  0.8571 -0.4868
   69MOL    H5324669   5.226   2.880   3.583  0.0055  0.7954  2.1626
   69MOL    H5424670   5.161   2.778   3.792  3.6408  1.3838 -0.9855
   69MOL    H5524671   5.097   2.638   3.723  1.2593 -1.3581  1.3645
   69MOL    C5624672   5.309   2.514   3.729 -0.5891  0.1894  0.4501
   69MOL    O5724673   5.219   2.437   3.753 -0.2864  0.0708  0.1651
   69MOL    C5824674   5.457   2.465   3.735 -1.1606 -0.1831  0.9043
   69MOL    C5924675   5.514   2.421   3.594  0.7210 -1.0632 -0.4178
   69MOL    C6024676   5.442   2.318   3.497 -0.4359  0.1616 -0.3211
   69MOL    C6124677   5.331   2.377   3.408 -0.5487  0.0731 -1.5103
   69MOL    C6224678   5.284   2.289   3.290 -0.2694  0.2762 -0.7148
   69MOL    O6324679   5.245   2.164   3.338 -0.1061 -0.4111 -0.3257
   69MOL    H6424680   5.452   2.381   3.803  0.5150 -0.4193  0.7597
   69MOL    H6524681   5.524   2.537   3.782 -1.4199  0.6134  0.0760
   69MOL    H6624682   5.610   2.374   3.612  1.8310  1.8537  1.7827
   69MOL    H6724683   5.539   2.513   3.541 -2.3902  0.2861  0.3248
   69MOL    H6824684   5.409   2.225   3.543 -0.2138  0.6270  0.8165
   69MOL    H6924685   5.517   2.276   3.431 -1.0273  0.4236 -1.1631
   69MOL    H7024686   5.365   2.471   3.364  2.7081  0.3128  1.3352
   69MOL    H7124687   5.241   2.396   3.465 -0.8222  1.1344 -2.2889
   69MOL    H7224688   5.201   2.341   3.241 -1.5953  0.5218  1.7068
   69MOL    H7324689   5.360   2.282   3.212 -0.4955  0.9520 -1.0033
   69MOL    C7424690   5.200   2.069   3.255 -0.5236 -0.4439  0.0586
   69MOL    O7524691   5.208   2.070   3.131  0.7140  0.2523  0.0865
   69MOL    C7624692   5.161   1.942   3.328 -0.2016  0.1059  0.7476
   69MOL    C7724693   5.128   1.822   3.228  0.1335 -0.3551  0.0685
   69MOL    C7824694   4.993   1.841   3.147  0.2090  0.5010  0.8633
   69MOL    C7924695   4.966   1.714   3.049  0.0259  0.5570 -0.1400
   69MOL    C8024696   4.859   1.751   2.943 -0.8739  0.1453 -0.4784
   69MOL    O8124697   4.859   1.662   2.830 -0.5622 -0.4363  0.2815
   69MOL    H8224698   5.075   1.963   3.392 -0.9823 -1.6821  0.3086
   69MOL    H8324699   5.242   1.905   3.391  0.3386  0.1675  0.0975
   69MOL    H8424700   5.101   1.739   3.295  0.5673 -2.2921 -2.0963
   69MOL    H8524701   5.214   1.796   3.167 -0.2096  2.6585 -1.7793
   69MOL    H8624702   5.002   1.930   3.084  1.0480  0.4912  0.9585
   69MOL    H8724703   4.915   1.851   3.221 -2.6439  0.3718 -1.9978
   69MOL    H8824704   4.940   1.626   3.109 -1.0248  0.3743 -0.8410
   69MOL    H8924705   5.057   1.693   2.994 -0.8015 -0.0849 -1.2986
   69MOL    H9024706   4.760   1.763   2.986 -0.9386  2.4884 -1.2282
   69MOL    H9124707   4.876   1.850   2.902  1.4265 -0.0552 -0.0991
   69MOL    C9224708   4.781   1.549   2.825 -0.4167 -0.2790  0.1393
   69MOL    O9324709   4.698   1.513   2.908 -0.1891 -0.7101  0.5851
   69MOL    C9424710   4.815   1.477   2.698 -0.6105  0.1883 -0.1477
   69MOL    C9524711   4.836   1.326   2.686 -0.3895  0.2208 -0.3443
   69MOL    C9624712   4.969   1.286   2.743  0.6687  0.3176  0.4335
   69MOL    C9724713   4.994   1.139   2.774  0.0037 -0.1070 -0.2059
   69MOL    C9824714   5.138   1.096   2.787  0.2836 -0.4080 -0.6086
   69MOL    O9924715   5.135   0.957   2.823  0.5932 -0.1545 -0.0471
   69MOL   H10024716   4.905   1.511   2.648  1.5349  0.6732  3.8622
   69MOL   H10124717   4.733   1.505   2.632 -0.0628 -0.9546 -1.3376
   69MOL   H10224718   4.832   1.303   2.579  0.7601 -1.2239 -0.0989
   69MOL   H10324719   4.751   1.277   2.733  0.4982  0.2191  1.3031
   69MOL   H10424720   4.990   1.347   2.830  2.1000  0.5591 -0.0575
   69MOL   H10524721   5.042   1.320   2.670  0.6829 -0.1615  0.2199
   69MOL   H10624722   4.947   1.078   2.697 -0.2299  0.1242 -0.2473
   69MOL   H10724723   4.938   1.111   2.863 -0.0415 -4.6864 -1.5934
   69MOL   H10824724   5.195   1.114   2.695 -0.3724  0.2422 -0.8949
   69MOL   H10924725   5.186   1.161   2.860  0.6438  0.7538 -1.8520
   69MOL   C11024726   5.140   0.861   2.724  0.4344  0.3387 -0.0833
   69MOL   O11124727   5.166   0.881   2.601 -0.9442  0.4973 -0.1581
   69MOL   C11224728   5.084   0.721   2.771  0.1758  0.1576 -0.0891
   69MOL   C11324729   5.171   0.636   2.865  0.1178  0.4371  0.8441
   69MOL   C11424730   5.180   0.681   3.017  0.3315 -0.3223  0.1875
   69MOL   C11524731   5.263   0.581   3.108  0.3934 -0.0466 -0.9969
   69MOL   C11624732   5.188   0.449   3.144  0.6765 -0.1342 -0.2688
   69MOL   O11724733   5.068   0.465   3.213  0.0855 -0.0250  1.0571
   69MOL   H11824734   5.050   0.661   2.686 -0.0607  1.2942 -0.8051
   69MOL   H11924735   5.003   0.753   2.836  1.3015  0.9639  0.9454
   69MOL   H12024736   5.263   0.630   2.806 -0.5587 -1.7979 -0.0180
   69MOL   H12124737   5.133   0.534   2.866 -1.6172  1.0849  1.2262
   69MOL   H12224738   5.076   0.676   3.049  0.7345 -1.0518  1.4361
   69MOL   H12324739   5.205   0.785   3.038  1.7949 -0.2260 -1.8836
   69MOL   H12424740   5.290   0.627   3.203 -0.8842  1.1663 -1.1928
   69MOL   H12524741   5.357   0.554   3.061  0.9429  0.5570 -0.2732
   69MOL   H12624742   5.171   0.403   3.047 -1.3407  0.8518 -0.3927
   69MOL   H12724743   5.263   0.378   3.181 -0.3089 -1.9090 -1.5791
   69MOL   C12824744   4.964   0.374   3.218  0.6934  0.2237 -0.4919
   69MOL   O12924745   4.946   0.268   3.157 -0.1410 -0.1321  0.3980
   69MOL   C13024746   4.846   0.438   3.304 -0.9878  0.2742  0.0142
   69MOL   C13124747   4.892   0.470   3.448 -0.3229 -0.8007 -0.2057
   69MOL   C13224748   4.828   0.593   3.521 -0.2929  0.5909  0.1505
   69MOL   C13324749   4.866   0.599   3.668  0.0819 -0.4676  0.8103
   69MOL   C13424750   4.806   0.718   3.739  0.9173  0.2531  0.0386
   69MOL   O13524751   4.865   0.841   3.685  0.1111 -0.1588 -0.1442
   69MOL   H13624752   4.761   0.371   3.308 -0.4577 -0.4280 -0.3367
   69MOL   H13724753   4.814   0.527   3.250 -0.1841  0.7310  0.2668
   69MOL   H13824754   4.997   0.500   3.449 -0.4443 -0.3842  1.7058
   69MOL   H13924755   4.885   0.393   3.524 -4.5202  0.2379  0.5582
   69MOL   H14024756   4.720   0.581   3.512 -0.1321  0.4079 -1.7171
   69MOL   H14124757   4.851   0.684   3.466  0.6671  0.8376  0.9458
   69MOL   H14224758   4.974   0.600   3.684 -0.1689  0.0301  2.5563
   69MOL   H14324759   4.829   0.503   3.704 -1.0975 -0.4739 -0.4061
   69MOL   H14424760   4.698   0.709   3.725  0.5396 -0.6818  3.2951
   69MOL   H14524761   4.818   0.731   3.846 -0.2261  0.1104  0.1858
   69MOL   C14624762   4.790   0.946   3.661 -0.3552  0.1885  0.5052
   69MOL   O14724763   4.669   0.950   3.639 -0.4435  0.0392  0.4728
   69MOL   C14824764   4.868   1.075   3.652  0.2444  0.5437 -0.3219
   69MOL   C14924765   4.797   1.204   3.685 -0.7279 -0.3512 -0.3464
   69MOL   C15024766   4.900   1.305   3.724 -0.3707 -0.4039  0.1920
   69MOL   C15124767   4.859   1.454   3.704 -0.2473 -0.0948  0.0715
   69MOL   C15224768   4.952   1.556   3.767  0.3699  0.4509  0.0656
   69MOL   O15324769   5.074   1.566   3.698  0.8767  0.1533 -0.0840
   69MOL   H15424770   4.935   1.078   3.566 -1.3188  2.0629 -1.5307
   69MOL   H15524771   4.941   1.071   3.733 -0.3376 -0.6965  0.1591
   69MOL   H15624772   4.743   1.202   3.780  2.2043 -0.6659  1.3686
   69MOL   H15724773   4.730   1.232   3.604 -1.5659  0.2794  0.5464
   69MOL   H15824774   4.994   1.280   3.675 -0.1641 -0.7393  0.7627
   69MOL   H15924775   4.920   1.307   3.831 -2.3976 -2.7956  0.6668
   69MOL   H16024776   4.759   1.476   3.743 -0.1611 -1.1222  0.8786
   69MOL   H16124777   4.841   1.471   3.598 -3.9874  0.6505  0.7297
   69MOL   H16224778   4.908   1.655   3.776  2.0805  1.1812  0.5807
   69MOL   H16324779   4.984   1.520   3.865  2.1198  1.7051 -0.0174
   69MOL   C16424780   5.176   1.644   3.745  0.1871  0.8145  0.8712
   69MOL   O16524781   5.165   1.722   3.835 -0.1055 -0.1213  0.1643
   69MOL   C16624782   5.302   1.639   3.665  0.0247 -0.4627  0.2876
   69MOL   C16724783   5.338   1.495   3.630  0.2394 -0.1789  0.0949
   69MOL   C16824784   5.488   1.490   3.596 -0.1131 -0.3019  0.4032
   69MOL   C16924785   5.551   1.350   3.586 -0.5591  0.2785  0.6791
   69MOL   C17024786   5.695   1.370   3.545 -0.7602  0.5642 -0.1992
   69MOL   O17124787   5.770   1.450   3.629  0.3405 -0.2302  0.0456
   69MOL   H17224788   5.379   1.681   3.729 -1.5687  0.3602  1.7048
   69MOL   H17324789   5.302   1.704   3.578  1.5119 -1.4009 -0.4206
   69MOL   H17424790   5.284   1.451   3.547 -1.9814  1.3249  0.7200
   69MOL   H17524791   5.308   1.436   3.717  0.6492 -1.6507 -0.7364
   69MOL   H17624792   5.536   1.531   3.684  2.1057 -1.5446 -0.2018
   69MOL   H17724793   5.516   1.552   3.511 -1.9470 -1.9114 -1.4216
   69MOL   H17824794   5.503   1.293   3.506 -1.5945 -2.9582  3.4934
   69MOL   H17924795   5.532   1.295   3.677  2.6957  0.3218  1.4325
   69MOL   H18024796   5.740   1.271   3.543  0.6207  1.2005 -2.5060
   69MOL   H18124797   5.695   1.410   3.444  0.4331  2.0519  0.3678
   69MOL   C18224798   5.894   1.465   3.604 -0.7943 -0.3729  0.1384
   69MOL   O18324799   5.950   1.442   3.499  0.2862 -0.3416  0.1948
   69MOL   C18424800   5.973   1.508   3.734  0.2007 -0.4860  0.4434
   69MOL   C18524801   5.994   1.388   3.823 -0.3678 -0.2409 -0.7918
   69MOL   C18624802   6.048   1.425   3.966  0.3509 -0.3342 -0.0845
   69MOL   C18724803   6.084   1.300   4.051  0.1848 -0.2611  0.1773
   69MOL   C18824804   6.128   1.334   4.194  0.1428 -0.0876 -0.0532
   69MOL   O18924805   6.251   1.415   4.187  0.0284  0.4304  0.5222
   69MOL   H19024806   5.929   1.598   3.778  0.4588  0.8668 -1.9715
   69MOL   H19124807   6.071   1.548   3.707  0.8746 -3.0167 -0.9985
   69MOL   H19224808   6.070   1.334   3.767 -0.3648  0.2009 -1.2097
   69MOL   H19324809   5.906   1.323   3.827 -1.0698  0.7029 -0.6465
   69MOL   H19424810   5.975   1.477   4.028  0.5981 -1.1896  0.9482
   69MOL   H19524811   6.132   1.495   3.961  0.0488  0.0019 -0.5079
   69MOL   H19624812   6.168   1.253   4.000 -2.0775 -2.5494 -1.5605
   69MOL   H19724813   6.002   1.228   4.046  0.1575 -0.0966 -2.9928
   69MOL   H19824814   6.050   1.385   4.252  1.1741  2.2881 -0.6699
   69MOL   H19924815   6.157   1.247   4.252 -0.2910 -0.2795 -0.1177
   69MOL   C20024816   6.370   1.361   4.163  0.6383 -0.3367  0.5729
   69MOL   O20124817   6.391   1.247   4.139  0.1403  0.0404  0.1853
   69MOL   C20224818   6.479   1.461   4.156 -0.2200  0.2000  0.3494
   69MOL   C20324819   6.454   1.531   4.021 -1.1256 -0.0546 -0.1530
   69MOL   C20424820   6.529   1.461   3.897  0.2700  0.1696 -0.0412
   69MOL   C20524821   6.486   1.320   3.855  0.5324  0.3974 -0.0386
   69MOL   C20624822   6.496   1.304   3.703  0.4263 -0.3695  0.8060
   69MOL   O20724823   6.620   1.322   3.641 -0.3591 -0.2781 -0.4244
   69MOL   H20824824   6.575   1.409   4.156 -0.2669  0.1027 -0.4979
   69MOL   H20924825   6.466   1.526   4.243 -1.0526  1.9266 -1.0460
   69MOL   H21024826   6.481   1.635   4.035 -0.7372 -0.3322  1.3065
   69MOL   H21124827   6.347   1.543   4.005 -1.3247 -0.3060  0.9116
   69MOL   H21224828   6.637   1.468   3.902  0.1814 -0.6381  4.9681
   69MOL   H21324829   6.502   1.526   3.813 -2.2353  1.5529  1.7727
   69MOL   H21424830   6.383   1.302   3.883  1.3313 -1.6871  1.6553
   69MOL   H21524831   6.535   1.237   3.905 -1.4798 -1.0303 -0.4105
   69MOL   H21624832   6.474   1.204   3.666 -0.6113  0.7367 -1.6842
   69MOL   H21724833   6.422   1.364   3.650 -0.5934 -1.9348  0.4393
   69MOL   C21824834   6.647   1.426   3.567 -0.1003 -0.3239 -0.1844
   69MOL   O21924835   6.587   1.531   3.567 -0.4124 -0.6932 -0.6456
   69MOL   C22024836   6.771   1.389   3.481  0.5948  0.4214  0.7704
   69MOL   C22124837   6.898   1.383   3.562 -0.0268 -0.2192  0.3195
   69MOL   C22224838   7.018   1.429   3.478 -0.2506 -0.4990  1.2545
   69MOL   C22324839   7.032   1.583   3.466  0.3873 -0.2149  0.1188
   69MOL   C22424840   7.161   1.633   3.401 -0.3548  0.2144  0.2135
   69MOL   O22524841   7.277   1.620   3.481 -0.0040 -0.0410 -0.5004
   69MOL   H22624842   6.756   1.469   3.408  0.3591 -0.2829  0.0479
   69MOL   H22724843   6.743   1.293   3.438 -0.9103  0.7213  1.0657
   69MOL   H22824844   6.905   1.276   3.581 -2.5413 -0.5920 -0.6620
   69MOL   H22924845   6.905   1.438   3.657  1.9314  1.9153 -1.0026
   69MOL   H23024846   7.020   1.382   3.379  1.4124 -0.9491  1.4786
   69MOL   H23124847   7.105   1.397   3.535  1.5357  0.3334 -0.9287
   69MOL   H23224848   7.016   1.620   3.567 -0.2490 -0.3200  0.0593
   69MOL   H23324849   6.951   1.622   3.403  0.3945 -0.1980  0.1202
   69MOL   H23424850   7.179   1.571   3.313  0.7872  1.1197 -0.1974
   69MOL   H23524851   7.160   1.732   3.357 -0.9939 -0.7488 -2.0231
   69MOL   C23624852   7.303   1.707   3.578  0.7832 -0.4941  0.2351
   69MOL   O23724853   7.230   1.806   3.604  0.0160 -0.3648 -0.3555
   69MOL   C23824854   7.440   1.683   3.648  0.0723 -0.0420 -0.0224
   69MOL   C23924855   7.432   1.574   3.751  0.7159 -0.4978  0.0833
   69MOL   C24024856   7.399   1.632   3.889  0.2258  0.6588  0.0687
   69MOL   C24124857   7.401   1.527   3.998 -0.0104  0.0180  0.1373
   69MOL   C24224858   7.330   1.579   4.127  0.4029 -1.2837 -0.0855
   69MOL   O24324859   7.286   1.463   4.192 -0.7071  0.5201  0.2230
   69MOL   H24424860   7.485   1.775   3.685 -0.3562  0.5440 -0.9648
   69MOL   H24524861   7.516   1.653   3.575 -0.1198 -4.1695  1.3072
   69MOL   H24624862   7.525   1.518   3.760  1.0445  0.2572  1.6099
   69MOL   H24724863   7.363   1.495   3.719 -2.0052  1.5249  0.7372
   69MOL   H24824864   7.303   1.682   3.877  0.9499  1.7815 -1.2432
   69MOL   H24924865   7.470   1.712   3.909  0.9093 -0.6454  3.0187
   69MOL   H25024866   7.497   1.478   4.009  0.2099 -0.7178 -4.1842
   69MOL   H25124867   7.333   1.447   3.968  1.7293 -1.8091  0.9637
   69MOL   H25224868   7.407   1.622   4.192  2.9452 -0.5130 -3.4567
   69MOL   H25324869   7.251   1.650   4.102  0.9187  0.4838  3.0813
   69MOL   C25424870   7.239   1.470   4.317 -0.0688  0.1882 -0.4674
   69MOL   O25524871   7.220   1.566   4.385 -0.8132  0.5794  0.3729
   69MOL   C25624872   7.197   1.333   4.384  0.2749  0.1566  0.0772
   69MOL   C25724873   7.317   1.236   4.394  0.8633 -0.0432 -0.1323
   69MOL   C25824874   7.419   1.278   4.500 -0.0534 -0.2129  0.2034
   69MOL   C25924875   7.555   1.218   4.487 -0.4730  0.1065 -0.1782
   69MOL   C26024876   7.659   1.287   4.579  0.4526  0.8702  0.0385
   69MOL   O26124877   7.624   1.261   4.717  0.0431 -0.4866 -0.3563
   69MOL   H26224878   7.122   1.297   4.313  1.6304  0.6519 -1.6621
   69MOL   H26324879   7.148   1.344   4.481 -0.7468  2.2184 -0.6281
   69MOL   H26424880   7.366   1.232   4.297  2.2353 -1.7888  0.5938
   69MOL   H26524881   7.281   1.134   4.408 -1.4504  0.6850 -0.4725
   69MOL   H26624882   7.371   1.241   4.591  0.3090  0.0808  0.5173
   69MOL   H26724883   7.437   1.385   4.512  1.3824 -0.4779  0.5484
   69MOL   H26824884   7.595   1.245   4.389 -0.3059 -1.6222 -0.6014
   69MOL   H26924885   7.566   1.110   4.477 -0.7236  0.0819 -0.1926
   69MOL   H27024886   7.750   1.235   4.549  1.5198  1.4259  2.2202
   69MOL   H27124887   7.678   1.391   4.553 -0.4025  0.6209 -1.6409
   69MOL   C27224888   7.725   1.278   4.805 -0.4341  0.1528 -0.7060
   69MOL   O27324889   7.841   1.269   4.777 -0.1395 -0.2567 -0.0849
   69MOL   C27424890   7.680   1.291   4.948  0.3090 -0.7013 -0.1796
   69MOL   C27524891   7.558   1.379   4.977  0.4258 -0.1182  0.6820
   69MOL   C27624892   7.429   1.301   5.007  0.2776  0.0038  0.0886
   69MOL   C27724893   7.396   1.185   4.914 -0.3493 -0.1512 -0.7779
   69MOL   C27824894   7.268   1.119   4.930 -0.8049 -0.4592  0.7048
   69MOL   O27924895   7.168   1.225   4.933  0.1802  0.1337  0.2661
   69MOL   H28024896   7.766   1.318   5.009  2.0914 -2.1509 -1.9810
   69MOL   H28124897   7.665   1.186   4.973  1.9388 -1.3209 -1.6803
   69MOL   H28224898   7.536   1.434   4.886 -0.1120  0.1840  0.9926
   69MOL   H28324899   7.584   1.450   5.056 -2.2416  1.8311 -0.1113
   69MOL   H28424900   7.347   1.372   5.017  0.3422  0.2224 -0.9032
   69MOL   H28524901   7.440   1.259   5.107  1.4675  0.3067  0.0933
   69MOL   H28624902   7.472   1.107   4.919 -0.9220 -0.7168 -0.9502
   69MOL   H28724903   7.395   1.210   4.807  2.6014 -0.0623 -0.8211
   69MOL   H28824904   7.260   1.049   4.847  0.8655  0.0460  0.1046
   69MOL   H28924905   7.262   1.055   5.018  1.7401 -0.9012  0.5828
   69MOL   C29024906   7.120   1.266   4.817  0.2000  0.5482  0.4135
   69MOL   O29124907   7.138   1.215   4.705  0.0910  0.6363 -0.2726
   69MOL   C29224908   7.027   1.389   4.824 -0.5924  0.3250  0.1340
   69MOL   C29324909   7.092   1.518   4.874 -0.0276 -0.3297  0.1321
   69MOL   C29424910   7.167   1.589   4.761 -1.2090  0.0836 -0.7182
   69MOL   C29524911   7.311   1.552   4.747 -0.0425  0.1983  0.6767
   69MOL   C29624912   7.392   1.657   4.675 -0.1772  0.1525  0.1494
   69MOL   O29724913   7.528   1.625   4.694  0.2260 -0.4835  0.4157
   69MOL   H29824914   6.938   1.366   4.883  0.0759  1.2364  1.5045
   69MOL   H29924915   6.983   1.385   4.724 -0.2092  0.3641 -0.0356
   69MOL   H30024916   7.146   1.521   4.969 -1.4591  2.5287  0.9255
   69MOL   H30124917   7.000   1.573   4.893 -0.1670 -1.0530  1.6432
   69MOL   H30224918   7.164   1.697   4.777  1.5413 -0.2857  3.0510
   69MOL   H30324919   7.117   1.568   4.666 -0.4854 -0.3574 -1.0003
   69MOL   H30424920   7.323   1.452   4.706  1.0961  0.4146  0.4664
   69MOL   H30524921   7.347   1.549   4.850 -1.0572 -0.4401  1.0128
   69MOL   H30624922   7.371   1.653   4.568 -1.6587  1.0781  0.3900
   69MOL   H30724923   7.377   1.759   4.713 -1.8355 -0.2045  0.4979
   69MOL   C30824924   7.618   1.673   4.601  0.1245  0.1735  0.0545
   69MOL   O30924925   7.593   1.732   4.502 -0.4382 -0.1986 -0.0126
   69MOL   C31024926   7.764   1.630   4.635 -0.0250 -0.1962 -0.5367
   69MOL   C31124927   0.013   1.742   4.688  0.2115 -0.2138 -0.2185
   69MOL   C31224928   7.805   1.810   4.812 -0.7870  0.4222 -0.2186
   69MOL   C31324929   0.029   1.942   4.843  0.4879  0.2133 -0.2105
   69MOL   C31424930   0.016   1.972   4.991 -0.2622  0.0127  0.8298
   69MOL   O31524931   7.723   1.964   5.038 -0.1348 -0.2484 -0.5642
   69MOL   H31624932   7.807   1.605   4.538 -0.3551 -0.4536 -0.6184
   69MOL   H31724933   7.768   1.541   4.698 -2.3188 -0.4499 -0.7173
   69MOL   H31824934   0.028   1.810   4.605 -2.4248 -1.5946 -1.8918
   69MOL   H31924935   0.106   1.696   4.722  0.0936 -0.2105  0.1097
   69MOL   H32024936   7.808   1.745   4.899 -1.4241 -1.9139 -1.9090
   69MOL   H32124937   7.700   1.833   4.796 -0.9549 -1.0909 -1.4003
   69MOL   H32224938   7.830   2.014   4.774  0.9948  0.6150 -0.1133
   69MOL   H32324939   0.134   1.950   4.815  0.7046 -0.6096  0.3290
   69MOL   H32424940   0.076   1.900   5.048  0.6194 -0.1648 -0.3024
   69MOL   H32524941   0.063   2.068   5.010 -0.2259  0.1896 -0.1168
   69MOL   C32624942   7.693   1.977   5.169 -0.8673 -0.2978  0.0404
   69MOL   O32724943   7.771   2.008   5.250  0.6568  0.0014  0.3436
   69MOL   C32824944   7.550   1.953   5.206 -0.4170  0.1701  0.1078
   69MOL   C32924945   7.536   1.811   5.254  0.0017  0.9387  0.2053
   69MOL   C33024946   7.392   1.760   5.246 -0.0199 -0.5351 -0.5451
   69MOL   C33124947   7.373   1.618   5.296  0.5228 -0.5969 -0.6152
   69MOL   C33224948   7.229   1.559   5.297  0.0994 -0.5135 -0.3399
   69MOL   O33324949   7.132   1.624   5.385 -0.6069 -0.0560  0.1375
   69MOL   H33424950   7.505   1.955   5.107  0.0300 -0.1772 -0.1002
   69MOL   H33524951   7.510   2.038   5.262  1.5435  1.5005 -0.4807
   69MOL   H33624952   7.566   1.806   5.358 -2.5408 -0.6969  0.9077
   69MOL   H33724953   7.598   1.743   5.196 -2.2408 -0.8824 -0.1724
   69MOL   H33824954   7.361   1.748   5.142  2.3174 -0.2427 -1.2859
   69MOL   H33924955   7.324   1.827   5.299  1.9941  2.1925 -1.3258
   69MOL   H34024956   7.418   1.600   5.394  1.8870  0.1191 -1.0895
   69MOL   H34124957   7.426   1.543   5.237  3.2410  1.7710 -1.2936
   69MOL   H34224958   7.190   1.555   5.195  0.9313  1.6103 -0.7551
   69MOL   H34324959   7.245   1.455   5.325  0.8451 -0.3200 -0.0437
   69MOL   C34424960   7.113   1.589   5.505  0.7197  0.9592 -0.1578
   69MOL   O34524961   7.157   1.490   5.567 -0.9213 -0.0654 -0.3942
   69MOL   C34624962   7.005   1.679   5.564 -0.1736  0.5868  0.0851
   69MOL   C34724963   7.042   1.707   5.712 -0.1148  0.0566  0.2019
   69MOL   C34824964   6.937   1.809   5.770 -0.4897 -0.2525 -0.4775
   69MOL   C34924965   6.952   1.842   5.915  0.3683  0.4069  0.2075
   69MOL   C35024966   6.867   1.962   5.957  0.3093  0.6876 -0.1994
   69MOL   O35124967   6.937   2.077   5.923 -0.1562  0.4941 -0.1716
   69MOL   H35224968   6.911   1.626   5.567 -1.0258  2.0780  0.3099
   69MOL   H35324969   6.979   1.772   5.513 -2.0754 -0.9008 -1.7022
   69MOL   H35424970   7.144   1.743   5.719  0.0936 -0.7188  1.2622
   69MOL   H35524971   7.039   1.616   5.773 -1.1871  0.4279  0.7121
   69MOL   H35624972   6.833   1.799   5.739 -0.5335  0.3781 -0.5414
   69MOL   H35724973   6.964   1.907   5.730  1.0498 -1.3556 -2.2144
   69MOL   H35824974   7.057   1.854   5.941  0.7546  1.2318 -1.5847
   69MOL   H35924975   6.918   1.759   5.976 -0.2760 -0.0233 -0.7059
   69MOL   H36024976   6.767   1.972   5.914  1.4781  1.2203 -2.9177
   69MOL   H36124977   6.879   1.975   6.064  2.1436  0.3941 -0.3578
   69MOL   H36224978   7.003   2.105   5.985 -0.2977  0.2549  0.0875
   70MOL     C124979   0.481   6.851   2.566  0.1458 -0.0737  0.2314
   70MOL     O224980   0.431   6.764   2.492  0.0907 -0.6375  0.0147
   70MOL     C324981   0.580   6.955   2.516  0.2039  0.0650  0.1857
   70MOL     C424982   0.534   7.097   2.518 -0.0847  0.4895  0.1791
   70MOL     C524983   0.396   7.121   2.445 -0.1795  0.1175  0.1862
   70MOL     C624984   0.353   7.269   2.464  0.4685  0.1584  0.6251
   70MOL     C724985   0.304   7.316   2.606 -0.6914  0.8005 -0.5650
   70MOL     O824986   0.192   7.249   2.658  0.6478  0.5320  0.1306
   70MOL     H924987   0.614   6.927   2.416 -0.4199  0.2615 -0.0815
   70MOL    H1024988   0.657   6.921   2.586 -0.0308 -1.1796 -0.1406
   70MOL    H1124989   0.611   7.170   2.493  0.3077 -0.2648 -0.8140
   70MOL    H1224990   0.516   7.132   2.620  0.0143 -2.0232  1.0947
   70MOL    H1324991   0.315   7.058   2.482 -2.5764  3.0987  0.2100
   70MOL    H1424992   0.401   7.100   2.339 -1.1223 -0.4867  0.2581
   70MOL    H1524993   0.281   7.296   2.387  0.1319 -0.5754  0.6831
   70MOL    H1624994   0.434   7.338   2.439  1.9364 -2.1883 -1.2589
   70MOL    H1724995   0.393   7.300   2.666 -1.2371 -0.2105 -0.0214
   70MOL    H1824996   0.276   7.422   2.602 -2.6012  0.2941 -1.6459
   70MOL    H1924997   0.472   6.851   2.674 -2.0107 -1.2117  0.0889
   70MOL    C2024998   0.211   7.154   2.751  0.0887  0.5325 -0.1677
   70MOL    O2124999   0.318   7.101   2.778 -0.6427 -0.2459  0.1978
   70MOL    C2225000   0.077   7.099   2.809  0.5398 -0.4327 -0.1452
   70MOL    C2325001   7.816   7.066   2.707  0.1707 -0.3369 -0.2216
   70MOL    C2425002   7.829   6.924   2.645 -0.8812 -0.2768  0.1381
   70MOL    C2525003   7.732   6.904   2.531 -0.8696  0.0751 -0.2637
   70MOL    C2625004   7.762   6.980   2.404 -0.3016  0.2879  0.3921
   70MOL    O2725005   0.051   6.963   2.376 -0.0423 -0.2693 -0.5883
   70MOL    H2825006   0.029   7.163   2.882 -1.6082 -1.0132 -1.0239
   70MOL    H2925007   0.114   7.008   2.857 -2.4735 -0.2309  2.7367
   70MOL    H3025008   7.818   7.137   2.624 -0.0230 -0.8431 -0.6658
   70MOL    H3125009   7.718   7.079   2.753 -1.7772  0.4096 -4.3197
   70MOL    H3225010   7.812   6.844   2.717  1.9043 -1.0735 -0.0185
   70MOL    H3325011   0.089   6.905   2.619  0.0469  1.2470  2.5724
   70MOL    H3425012   7.629   6.907   2.566  0.1822 -0.2192  2.9261
   70MOL    H3525013   7.741   6.800   2.500 -0.5129  0.1976 -0.5811
   70MOL    H3625014   7.696   6.950   2.324 -0.0018 -2.3168  1.0737
   70MOL    H3725015   7.756   7.088   2.417  2.0364  0.7964 -2.2596
   70MOL    C3825016   0.079   6.873   2.274 -0.5392 -0.0032 -0.8738
   70MOL    O3925017   7.839   6.825   2.197 -0.1349 -0.0527  0.3830
   70MOL    C4025018   0.237   6.843   2.274 -0.1402 -0.6951  0.2574
   70MOL    C4125019   0.288   6.902   2.142  0.0505  0.5678  0.5653
   70MOL    C4225020   0.439   6.869   2.128  0.4686  0.0058  0.3701
   70MOL    C4325021   0.495   6.905   1.988 -0.6826 -0.2821 -0.4058
   70MOL    C4425022   0.648   6.920   1.987 -0.2610  0.2134  0.1814
   70MOL    O4525023   0.704   7.016   2.080  0.2620 -0.0616  0.2069
   70MOL    H4625024   0.260   6.737   2.265  0.0300 -0.6846  0.5560
   70MOL    H4725025   0.292   6.889   2.356 -0.5906  0.9236 -0.3297
   70MOL    H4825026   0.268   7.009   2.132 -0.0981  0.4337 -0.6042
   70MOL    H4925027   0.234   6.863   2.056  0.3783  1.6468 -0.1416
   70MOL    H5025028   0.456   6.762   2.144  2.2168  0.2492  0.2514
   70MOL    H5125029   0.496   6.931   2.197  3.1503 -1.0440 -0.7940
   70MOL    H5225030   0.455   7.000   1.951  0.1951  0.9360  1.7030
   70MOL    H5325031   0.472   6.831   1.911  2.1782 -1.9699  0.2736
   70MOL    H5425032   0.687   6.819   2.003  1.8462  1.0137  0.3247
   70MOL    H5525033   0.693   6.942   1.890  2.2467 -0.3671  1.1569
   70MOL    C5625034   0.694   7.147   2.069  0.5326 -0.4678  0.4544
   70MOL    O5725035   0.637   7.210   1.972  0.3761  0.1562  0.1700
   70MOL    C5825036   0.771   7.207   2.187 -0.2457  0.3745 -0.4289
   70MOL    C5925037   0.789   7.351   2.180  0.3543  0.4513 -0.2289
   70MOL    C6025038   0.667   7.444   2.189 -0.1060 -0.5041  0.9257
   70MOL    C6125039   0.693   7.591   2.201 -0.5964  0.0015  0.1511
   70MOL    C6225040   0.552   7.652   2.224 -0.6591 -0.0101  0.4296
   70MOL    O6325041   0.562   7.794   2.246 -0.1967  0.6138  0.1442
   70MOL    H6425042   0.876   7.177   2.186  0.1488  1.5594  1.7458
   70MOL    H6525043   0.728   7.163   2.276 -0.4308 -1.8228 -1.5613
   70MOL    H6625044   0.866   7.381   2.109  0.8950 -1.5963 -0.5408
   70MOL    H6725045   0.848   7.368   2.269 -0.1971  0.0911  0.2047
   70MOL    H6825046   0.601   7.419   2.272 -0.0011  0.1897  1.2226
   70MOL    H6925047   0.603   7.432   2.101  0.8586  2.2083 -0.1900
   70MOL    H7025048   0.735   7.624   2.106  1.5470 -0.0097  1.0712
   70MOL    H7125049   0.763   7.619   2.281  0.2197  0.6955 -0.7883
   70MOL    H7225050   0.498   7.644   2.130  0.2943  0.0931 -0.1307
   70MOL    H7325051   0.505   7.596   2.305  0.1056 -0.6619  0.4271
   70MOL    C7425052   0.604   7.835   2.363  0.3517  0.2071 -0.2107
   70MOL    O7525053   0.643   7.770   2.457 -0.1008 -0.2204 -0.3554
   70MOL    C7625054   0.588   0.142   2.365  0.2503 -0.3373 -0.7237
   70MOL    C7725055   0.512   0.182   2.486 -0.7288 -1.1158 -0.1439
   70MOL    C7825056   0.375   0.104   2.503 -0.1556  0.0325 -0.0585
   70MOL    C7925057   0.271   0.147   2.406 -0.1245 -0.2515 -0.0246
   70MOL    C8025058   0.269   0.073   2.273  0.0757  0.4105 -0.0761
   70MOL    O8125059   0.266   7.774   2.285  0.2479 -0.0049 -0.5055
   70MOL    H8225060   0.542   0.167   2.270 -1.1101  0.0295  0.0172
   70MOL    H8325061   0.688   0.185   2.362 -0.7047  2.1342  1.0016
   70MOL    H8425062   0.496   0.289   2.481 -0.4930 -0.9869  1.5940
   70MOL    H8525063   0.589   0.172   2.562 -1.5992 -0.1441  0.8657
   70MOL    H8625064   0.334   0.139   2.598 -0.4229 -0.4812  0.0151
   70MOL    H8725065   0.382   7.840   2.514 -2.6378 -0.1060  0.3813
   70MOL    H8825066   0.265   0.250   2.372 -2.5279 -0.7850 -1.3248
   70MOL    H8925067   0.177   0.126   2.457 -0.7450  0.7989 -0.7089
   70MOL    H9025068   0.182   0.106   2.216  0.0926 -1.6901 -1.3949
   70MOL    H9125069   0.349   0.109   2.208  0.2842  1.2605  0.6486
   70MOL    C9225070   0.140   7.713   2.281  0.2346  0.9692  0.3147
   70MOL    O9325071   0.031   7.771   2.253 -0.3319  0.2977 -0.2006
   70MOL    C9425072   0.141   7.562   2.315  0.0427  0.0324  0.7423
   70MOL    C9525073   0.022   7.507   2.388 -0.1060  0.0996  0.3334
   70MOL    C9625074   0.002   7.581   2.528  0.4013  0.5956  0.2037
   70MOL    C9725075   7.744   7.518   2.623  0.1299  0.1832 -0.8584
   70MOL    C9825076   7.737   7.575   2.764  0.2648  0.5711  0.1087
   70MOL    O9925077   7.836   7.523   2.847  0.0485 -0.1034  0.3459
   70MOL   H10025078   0.234   7.534   2.365  1.4475  1.5379 -0.9674
   70MOL   H10125079   0.141   7.502   2.224  0.9406 -2.7573  2.5369
   70MOL   H10225080   0.033   7.399   2.398  1.7473  0.4671  2.5291
   70MOL   H10325081   7.771   7.520   2.337  0.1703 -0.8250 -0.4476
   70MOL   H10425082   7.839   7.689   2.541  0.6990  0.4264  2.0242
   70MOL   H10525083   0.093   7.569   2.588  0.2710 -1.8945 -0.0433
   70MOL   H10625084   7.755   7.410   2.632 -0.0343  0.2966  0.9453
   70MOL   H10725085   7.646   7.535   2.577 -0.5179  0.0920  0.4371
   70MOL   H10825086   7.723   7.684   2.762  2.2478  0.8249 -0.7833
   70MOL   H10925087   7.645   7.538   2.810  0.9599 -0.3168  0.7958
   70MOL   C11025088   0.044   7.597   2.953  0.1182  0.0195  0.2880
   70MOL   O11125089   0.012   7.714   2.979  0.7832  0.2987 -0.0839
   70MOL   C11225090   0.150   7.516   3.024  0.0496 -0.4371 -0.2102
   70MOL   C11325091   0.277   7.510   2.932  1.3824  1.0414 -0.2218
   70MOL   C11425092   0.336   7.648   2.899 -0.3795 -0.1342 -0.1665
   70MOL   C11525093   0.466   7.640   2.816  0.1797 -0.1256 -0.8489
   70MOL   C11625094   0.530   7.781   2.804 -0.7461  0.2045 -0.0242
   70MOL   O11725095   0.580   7.825   2.929  0.3468 -0.3152 -0.0326
   70MOL   H11825096   0.113   7.415   3.041 -0.2933 -0.0678  1.3003
   70MOL   H11925097   0.179   7.563   3.118  2.1055  0.5239 -1.2900
   70MOL   H12025098   0.250   7.448   2.846 -0.5630 -1.3947  2.0265
   70MOL   H12125099   0.359   7.447   2.966 -0.7119 -3.2463 -2.5831
   70MOL   H12225100   0.360   7.701   2.991 -0.3641 -1.0263  0.3451
   70MOL   H12325101   0.268   7.720   2.854  1.8174  0.0760 -3.2279
   70MOL   H12425102   0.447   7.591   2.721  0.2099 -0.3718 -0.7295
   70MOL   H12525103   0.538   7.576   2.868  0.5305  1.2259  0.3369
   70MOL   H12625104   0.611   7.781   2.730  1.3927  1.6704  2.2228
   70MOL   H12725105   0.458   0.006   2.761 -0.9026  0.3623  0.4999
   70MOL   C12825106   0.667   0.084   2.933 -0.5721  0.3531 -0.8056
   70MOL   O12925107   0.717   0.140   2.830 -0.2672 -0.2875  0.4840
   70MOL   C13025108   0.710   0.125   3.077  0.7375 -0.1189 -0.2759
   70MOL   C13125109   0.778   0.015   3.158 -0.2442 -0.5025  0.4557
   70MOL   C13225110   0.913   7.805   3.108 -0.1970 -0.3269  0.7130
   70MOL   C13325111   0.945   7.671   3.166  0.5585 -0.2508 -0.2689
   70MOL   C13425112   1.066   7.596   3.118  0.3815  0.3494 -0.6343
   70MOL   O13525113   1.182   7.638   3.187 -0.4767 -0.3139 -0.2317
   70MOL   H13625114   0.620   0.152   3.131  1.4311  1.1663  0.2638
   70MOL   H13725115   0.775   0.211   3.061  0.2647  0.5447  1.2630
   70MOL   H13825116   0.705   7.779   3.164 -2.6408  1.6765  1.6308
   70MOL   H13925117   0.792   0.052   3.260  1.9135 -3.6813  1.4043
   70MOL   H14025118   0.992   0.033   3.130  0.1768 -0.9937  1.5859
   70MOL   H14125119   0.904   7.794   3.000  1.0073 -0.8261  0.6629
   70MOL   H14225120   0.857   7.607   3.163 -0.5352  1.1856  0.7751
   70MOL   H14325121   0.966   7.692   3.270 -0.0076  0.2407 -0.2535
   70MOL   H14425122   1.060   7.492   3.149  1.3413  0.4317 -0.1482
   70MOL   H14525123   1.065   7.590   3.009 -0.2069  1.5579 -0.6999
   70MOL   C14625124   1.307   7.630   3.137  0.4733 -0.5274 -0.8409
   70MOL   O14725125   1.332   7.600   3.024  0.0291  0.3588  0.0707
   70MOL   C14825126   1.407   7.668   3.250 -0.0853 -0.7859  0.1070
   70MOL   C14925127   1.396   7.819   3.286  0.1502  0.5456 -0.3989
   70MOL   C15025128   1.498   0.008   3.392 -0.3019 -0.4213 -0.7087
   70MOL   C15125129   1.631   0.040   3.331 -0.2674  0.1913 -0.4587
   70MOL   C15225130   1.744   0.023   3.436 -0.2226  0.9819 -0.2989
   70MOL   O15325131   1.876   0.049   3.372  0.1623 -0.3103 -0.2953
   70MOL   H15425132   1.509   7.646   3.219 -0.6229 -0.6115 -1.8549
   70MOL   H15525133   1.382   7.605   3.335 -2.0549 -0.3594 -0.1299
   70MOL   H15625134   1.298   7.832   3.332  0.4508  1.4863 -0.0137
   70MOL   H15725135   1.399   0.035   3.195  0.7737  1.7065  0.3898
   70MOL   H15825136   1.508   7.774   3.467  0.5905  0.3687  0.0127
   70MOL   H15925137   1.471   0.098   3.447  1.4936 -0.8984  1.0089
   70MOL   H16025138   1.644   0.143   3.298 -0.9091  0.3062 -0.3523
   70MOL   H16125139   1.653   7.826   3.242  0.1977  0.3436 -0.4448
   70MOL   H16225140   1.719   0.089   3.519 -4.3155 -2.3287  1.3057
   70MOL   H16325141   1.748   7.772   3.489 -0.3789  0.6336 -0.9135
   70MOL   C16425142   1.939   0.162   3.395  0.0114 -0.6272 -0.0034
   70MOL   O16525143   1.914   0.254   3.472 -0.3118  0.5191 -0.4549
   70MOL   C16625144   2.073   0.171   3.316 -0.6977 -0.2464  0.2013
   70MOL   C16725145   2.064   0.236   3.178  0.1355 -0.1006  0.3243
   70MOL   C16825146   2.007   0.380   3.180  0.4337 -0.1103  0.2800
   70MOL   C16925147   1.855   0.382   3.172 -0.5698 -0.4942 -0.0141
   70MOL   C17025148   1.796   0.517   3.138  0.7518 -0.0536  0.0143
   70MOL   O17125149   1.758   0.583   3.260 -0.4622  0.0696 -0.6924
   70MOL   H17225150   2.130   0.079   3.323 -1.5135 -0.6561  1.5602
   70MOL   H17325151   2.131   0.233   3.384 -1.1184 -0.7143  0.9945
   70MOL   H17425152   2.008   0.172   3.109  0.7363  1.1968 -1.4009
   70MOL   H17525153   2.167   0.247   3.144  0.0395  1.8884  0.6088
   70MOL   H17625154   2.051   0.423   3.090 -1.2752 -0.9906 -1.0052
   70MOL   H17725155   2.041   0.433   3.269  0.5623  1.2817 -0.5816
   70MOL   H17825156   1.806   0.330   3.255 -3.1381 -1.1751 -1.8876
   70MOL   H17925157   1.833   0.326   3.081  1.2028  0.5459 -1.1050
   70MOL   H18025158   1.877   0.577   3.096  0.1529 -0.8162 -2.2871
   70MOL   H18125159   1.724   0.507   3.056  1.6661 -0.5511 -0.7377
   70MOL   C18225160   1.634   0.569   3.310  0.0082  0.6015 -0.1956
   70MOL   O18325161   1.534   0.512   3.265  0.5475 -0.2725 -0.5120
   70MOL   C18425162   1.619   0.647   3.439 -0.0288  0.0190  0.9279
   70MOL   C18525163   1.720   0.615   3.555  0.5173  0.3506 -0.3363
   70MOL   C18625164   1.665   0.490   3.638  0.3625 -0.5340  0.2402
   70MOL   C18725165   1.768   0.448   3.750  0.3168 -0.0472  0.2268
   70MOL   C18825166   1.716   0.320   3.821  0.3318 -0.5268  0.7344
   70MOL   O18925167   1.725   0.335   3.963  0.1149 -0.6768 -0.1023
   70MOL   H19025168   1.514   0.629   3.465 -0.5210 -0.9151 -1.6176
   70MOL   H19125169   1.618   0.753   3.415  0.3869 -0.6032 -1.9687
   70MOL   H19225170   1.733   0.703   3.618 -1.9899  0.9238 -0.5609
   70MOL   H19325171   1.813   0.587   3.507  0.2277  1.1228 -1.3749
   70MOL   H19425172   1.655   0.398   3.581 -1.7898 -1.3620  1.9032
   70MOL   H19525173   1.573   0.510   3.692 -0.4285 -0.6924 -1.0252
   70MOL   H19625174   1.788   0.532   3.816  3.3307  1.0896 -1.9649
   70MOL   H19725175   1.869   0.429   3.712  1.7878  0.7056  3.5316
   70MOL   H19825176   1.614   0.300   3.788  0.5264 -0.6905  0.2220
   70MOL   H19925177   1.775   0.235   3.786 -0.6480 -0.2542 -1.6555
   70MOL   C20025178   1.617   0.354   4.047 -0.7518  0.6344  1.1818
   70MOL   O20125179   1.503   0.348   4.009  0.2960  0.6993 -0.2623
   70MOL   C20225180   1.644   0.387   4.194 -0.0105  0.7369 -0.1378
   70MOL   C20325181   1.612   0.530   4.242  0.0892 -0.4728 -0.0736
   70MOL   C20425182   1.714   0.637   4.191 -0.3535  0.0871  0.6010
   70MOL   C20525183   1.693   0.779   4.254 -0.4137 -1.0052  0.1504
   70MOL   C20625184   1.806   0.873   4.211 -0.2149 -0.3492 -0.1686
   70MOL   O20725185   1.781   0.912   4.074  0.2969 -0.3134 -0.4028
   70MOL   H20825186   1.751   0.376   4.208  0.0679  1.5224 -0.0715
   70MOL   H20925187   1.591   0.317   4.258  3.0549 -2.4996 -1.0217
   70MOL   H21025188   1.618   0.522   4.350 -0.9199 -1.9852 -0.1146
   70MOL   H21125189   1.510   0.551   4.211 -0.3258 -1.3464  0.6604
   70MOL   H21225190   1.698   0.652   4.085  2.1554 -0.3902  0.1378
   70MOL   H21325191   1.814   0.596   4.204 -1.2739 -2.4054  0.1460
   70MOL   H21425192   1.705   0.758   4.360 -1.9306  2.1965  0.9952
   70MOL   H21525193   1.589   0.809   4.243 -1.1669 -2.1097  3.6593
   70MOL   H21625194   1.797   0.950   4.288 -2.1062 -0.1110 -0.6093
   70MOL   H21725195   1.896   0.812   4.217  0.1662  0.1768 -0.3975
   70MOL   C21825196   1.696   1.015   4.052 -0.1162 -0.2020  0.1056
   70MOL   O21925197   1.653   1.092   4.139  0.4265  0.4048  0.0580
   70MOL   C22025198   1.666   1.037   3.906  0.0008  0.3710  0.6163
   70MOL   C22125199   1.644   0.923   3.812  0.1430  0.6052  0.2131
   70MOL   C22225200   1.508   0.852   3.801  0.2269  0.9310  0.3514
   70MOL   C22325201   1.499   0.756   3.922  0.0095  0.3776 -0.0558
   70MOL   C22425202   1.360   0.687   3.918 -0.2919  0.0938  0.1737
   70MOL   O22525203   1.359   0.593   3.812 -0.2355  0.2270  0.0396
   70MOL   H22625204   1.756   1.090   3.876  0.4052 -1.0501 -0.7389
   70MOL   H22725205   1.574   1.097   3.901 -0.5963 -0.5144  0.9472
   70MOL   H22825206   1.729   0.855   3.817  0.7175  1.3246  0.3736
   70MOL   H22925207   1.651   0.964   3.712 -0.4382 -0.6691 -0.3634
   70MOL   H23025208   1.514   0.784   3.716  0.7658  1.5757 -0.1341
   70MOL   H23125209   1.421   0.918   3.796 -0.7097 -0.4314 -2.5063
   70MOL   H23225210   1.505   0.813   4.015 -0.9713 -1.4758  1.1676
   70MOL   H23325211   1.574   0.676   3.919 -1.3146 -0.9841  2.1791
   70MOL   H23425212   1.355   0.639   4.016 -0.9634  0.5204  0.3532
   70MOL   H23525213   1.275   0.754   3.905 -2.2228 -2.1642  0.6781
   70MOL   C23625214   1.249   0.526   3.782  0.2162 -1.2090 -0.5611
   70MOL   O23725215   1.138   0.540   3.830  0.1399  0.1456  0.0068
   70MOL   C23825216   1.284   0.411   3.689 -0.3921  0.4228 -0.3730
   70MOL   C23925217   1.166   0.320   3.639  0.2875 -0.2631 -0.2005
   70MOL   C24025218   1.067   0.385   3.543  0.4408 -0.1787 -0.4437
   70MOL   C24125219   0.989   0.293   3.448 -0.6351 -0.6066 -0.1035
   70MOL   C24225220   0.858   0.355   3.403  0.1964  0.3444  0.7277
   70MOL   O24325221   0.870   0.482   3.331 -0.0160 -0.0478 -0.0887
   70MOL   H24425222   1.362   0.356   3.741  1.5296  1.8663 -1.6746
   70MOL   H24525223   1.344   0.448   3.606 -0.8766 -0.2744 -1.0518
   70MOL   H24625224   1.106   0.280   3.721  0.9664 -1.1603 -0.1313
   70MOL   H24725225   1.211   0.233   3.592  0.6658  0.4352 -1.1283
   70MOL   H24825226   1.114   0.466   3.487 -1.3442  0.5360 -0.9187
   70MOL   H24925227   1.004   0.447   3.606 -0.3481  0.3533 -1.7425
   70MOL   H25025228   0.979   0.191   3.486  0.3947 -0.5047  0.4715
   70MOL   H25125229   1.057   0.279   3.363 -1.0479  2.2418 -0.9672
   70MOL   H25225230   0.792   0.284   3.352 -0.1259  0.6463  0.7190
   70MOL   H25325231   0.801   0.373   3.494  0.6770  1.2851  0.8544
   70MOL   C25425232   0.761   0.539   3.273 -0.4173  0.4477  0.6333
   70MOL   O25525233   0.649   0.501   3.284 -0.8270  0.2377 -0.4966
   70MOL   C25625234   0.809   0.663   3.197 -0.1429  0.3976  0.1324
   70MOL   C25725235   0.833   0.787   3.290 -0.5043  0.8175 -0.2176
   70MOL   C25825236   0.703   0.862   3.332 -0.0124 -0.0309 -0.5397
   70MOL   C25925237   0.717   0.965   3.458  0.1706  0.1390  0.1061
   70MOL   C26025238   0.600   1.054   3.464 -0.5011 -0.6205 -0.2028
   70MOL   O26125239   0.629   1.142   3.570  0.3846  0.1280 -0.5615
   70MOL   H26225240   0.731   0.681   3.123 -0.0174 -2.3732 -0.7389
   70MOL   H26325241   0.902   0.636   3.149  0.4215 -1.3298  2.1192
   70MOL   H26425242   0.909   0.848   3.241  0.9719 -0.1268  0.8592
   70MOL   H26525243   0.884   0.756   3.381 -1.5860 -0.6942 -0.1110
   70MOL   H26625244   0.628   0.792   3.370 -0.3840  1.3473  1.3651
   70MOL   H26725245   0.656   0.913   3.248  0.8769  3.5262  1.0243
   70MOL   H26825246   0.802   1.031   3.442  0.1217  0.4301  1.0266
   70MOL   H26925247   0.744   0.921   3.555  1.0624 -1.0886 -0.6746
   70MOL   H27025248   0.606   1.122   3.378  1.3160  1.7535  1.7359
   70MOL   H27125249   0.504   1.004   3.471 -1.3577  0.9930 -0.2268
   70MOL   C27225250   0.536   1.223   3.611 -0.0121  0.5120  0.7243
   70MOL   O27325251   0.417   1.223   3.570  0.1359 -0.6048  0.0001
   70MOL   C27425252   0.585   1.314   3.719  0.1094 -0.0965 -0.2071
   70MOL   C27525253   0.709   1.400   3.699 -0.1429  0.7068  0.0490
   70MOL   C27625254   0.843   1.332   3.712 -0.1474  0.2745 -0.4163
   70MOL   C27725255   0.969   1.430   3.716  0.1754 -0.1371  0.3536
   70MOL   C27825256   1.091   1.359   3.779 -0.1293 -0.4789 -0.3194
   70MOL   O27925257   1.115   1.247   3.698 -0.2092  0.2086 -0.2820
   70MOL   H28025258   0.593   1.246   3.804 -0.6456 -1.6491 -1.3604
   70MOL   H28125259   0.503   1.379   3.748  0.4938  0.5948 -0.6595
   70MOL   H28225260   0.695   1.480   3.772  0.3676 -0.0816  1.0207
   70MOL   H28325261   0.702   1.448   3.601  1.0925  0.6824 -0.0561
   70MOL   H28425262   0.868   1.258   3.636 -0.5226 -1.8171  1.4575
   70MOL   H28525263   0.841   1.275   3.805  0.7642  1.1135  0.1309
   70MOL   H28625264   0.939   1.510   3.785  2.6550  0.4734  0.7554
   70MOL   H28725265   0.992   1.465   3.615 -2.1152  1.5797  0.3764
   70MOL   H28825266   1.177   1.425   3.787 -0.3933 -0.2685  0.8625
   70MOL   H28925267   1.072   1.325   3.881 -0.4218  0.9073  0.0955
   70MOL   C29025268   1.208   1.162   3.733  0.2688  0.0324  0.0536
   70MOL   O29125269   1.283   1.172   3.830  0.2295  0.5370  0.4360
   70MOL   C29225270   1.232   1.054   3.624 -0.5447  0.1165 -0.2882
   70MOL   C29325271   1.151   0.929   3.643  0.1730  0.0876  0.6784
   70MOL   C29425272   1.119   0.859   3.516 -0.2048 -0.7499 -0.1416
   70MOL   C29525273   1.245   0.780   3.469  0.6152 -0.0527 -0.0450
   70MOL   C29625274   1.222   0.694   3.345 -0.2585  0.0646 -0.2280
   70MOL   O29725275   1.185   0.778   3.237 -0.1375  0.7353  0.2567
   70MOL   H29825276   1.338   1.027   3.629 -0.4657  0.6886  1.4563
   70MOL   H29925277   1.215   1.105   3.529  0.3418  0.9061 -0.0250
   70MOL   H30025278   1.053   0.952   3.687 -0.1697 -0.1091  0.0276
   70MOL   H30125279   1.205   0.860   3.708 -1.0019  0.1963  1.8011
   70MOL   H30225280   1.080   0.925   3.439 -0.5703 -0.9241 -0.1101
   70MOL   H30325281   1.047   0.777   3.527 -2.1639  0.7431 -1.4934
   70MOL   H30425282   1.277   0.718   3.552  2.1371 -0.5108 -0.9509
   70MOL   H30525283   1.321   0.857   3.450 -1.2021  1.0681 -3.2833
   70MOL   H30625284   1.306   0.634   3.310 -0.9322 -0.0220 -1.7632
   70MOL   H30725285   1.148   0.614   3.356  0.8454 -0.9221  0.2035
   70MOL   C30825286   1.271   0.835   3.152  0.0243 -0.2090 -0.1787
   70MOL   O30925287   1.392   0.832   3.154 -0.2588 -0.3019 -0.3044
   70MOL   C31025288   1.200   0.916   3.033 -0.3893 -0.1673  0.2484
   70MOL   C31125289   1.216   1.064   3.005  0.5885  0.4831 -0.4864
   70MOL   C31225290   1.195   1.149   3.130  0.1990  0.0478 -0.0914
   70MOL   C31325291   1.048   1.141   3.193  0.1208 -0.5667  0.0559
   70MOL   C31425292   0.993   1.261   3.261 -0.2961  0.0568  0.6892
   70MOL   O31525293   0.929   1.341   3.169 -0.6143 -0.3485 -0.2225
   70MOL   H31625294   1.093   0.896   3.029 -0.5161  0.6600 -0.9546
   70MOL   H31725295   1.240   0.879   2.938 -0.0973  1.6718 -0.3660
   70MOL   H31825296   1.147   1.086   2.924 -1.5370 -2.0225  0.5562
   70MOL   H31925297   1.315   1.092   2.970  0.0574  1.4227 -1.2572
   70MOL   H32025298   1.219   1.248   3.093 -2.3084  0.5999 -0.3809
   70MOL   H32125299   1.271   1.121   3.203  0.6886 -0.3310 -0.7494
   70MOL   H32225300   1.061   1.058   3.262  1.4581  1.4287  2.2496
   70MOL   H32325301   0.974   1.117   3.116 -0.3446  0.8816  0.0405
   70MOL   H32425302   0.921   1.222   3.333  0.8236 -0.6587  1.4244
   70MOL   H32525303   1.076   1.310   3.313 -0.2443 -1.4508  2.0537
   70MOL   C32625304   0.868   1.454   3.210  0.1345 -0.0610 -0.3017
   70MOL   O32725305   0.874   1.515   3.319 -0.5982  0.4750  0.1978
   70MOL   C32825306   0.765   1.500   3.112  0.2628 -0.3242  0.8024
   70MOL   C32925307   0.616   1.459   3.154  0.1998 -0.2165  0.5602
   70MOL   C33025308   0.573   1.314   3.140 -0.1637  0.1832 -0.1272
   70MOL   C33125309   0.435   1.264   3.199 -0.5003  0.7084 -0.7674
   70MOL   C33225310   0.411   1.112   3.160  0.3443  0.1741  0.0834
   70MOL   O33325311   0.308   1.064   3.239 -0.3663 -0.2479 -0.1541
   70MOL   H33425312   0.795   1.473   3.010 -3.2745 -0.3513 -0.2979
   70MOL   H33525313   0.761   1.608   3.124 -3.3180 -0.4004  0.8295
   70MOL   H33625314   0.545   1.520   3.099  2.2352 -0.4190 -2.4624
   70MOL   H33725315   0.606   1.476   3.261  1.5449 -1.0506  0.8339
   70MOL   H33825316   0.648   1.245   3.178 -1.9606 -1.3774  0.6649
   70MOL   H33925317   0.569   1.287   3.034 -2.6507 -3.1404  0.7486
   70MOL   H34025318   0.348   1.324   3.170  1.0038  3.6712  0.5597
   70MOL   H34125319   0.427   1.278   3.307 -0.4113  2.1139 -0.9302
   70MOL   H34225320   0.391   1.103   3.053  0.1365  0.1025  0.1290
   70MOL   H34325321   0.503   1.053   3.156 -0.5110 -1.1526 -0.0483
   70MOL   C34425322   0.176   1.094   3.220 -0.1398  0.1356  0.5120
   70MOL   O34525323   0.136   1.162   3.124  0.2568 -0.3172  0.3775
   70MOL   C34625324   0.086   1.051   3.334 -0.2220 -0.1270  0.2740
   70MOL   C34725325   7.811   0.973   3.289 -0.4099  0.2437 -0.1235
   70MOL   C34825326   7.716   0.942   3.404  0.1989 -0.2646 -0.1466
   70MOL   C34925327   7.588   0.882   3.356  0.2273 -0.6005 -0.1110
   70MOL   C35025328   7.494   0.824   3.468  0.0988 -0.0932 -0.0574
   70MOL   O35125329   7.368   0.801   3.410 -0.3860  0.2389 -0.3639
   70MOL   H35225330   0.063   1.145   3.383 -0.1053 -0.6698  1.3899
   70MOL   H35325331   0.146   0.992   3.404  2.8810  1.9786 -0.5237
   70MOL   H35425332   0.008   0.877   3.256  2.2695  1.0124  0.8720
   70MOL   H35525333   7.755   1.022   3.210 -0.6480  0.5856  0.2541
   70MOL   H35625334   7.701   1.040   3.449  0.6670  0.3625 -1.3124
   70MOL   H35725335   7.764   0.874   3.474  1.1183 -0.6127 -1.0885
   70MOL   H35825336   7.610   0.797   3.292 -2.0913 -0.6729 -0.8582
   70MOL   H35925337   7.540   0.965   3.305  0.4529 -0.0658  0.5387
   70MOL   H36025338   7.535   0.741   3.525  0.9045 -1.4114 -2.4883
   70MOL   H36125339   7.470   0.908   3.534 -0.5431 -0.2479 -0.0914
   70MOL   H36225340   7.300   0.846   3.459  1.2771  0.4257  1.8334
   71MOL     C125341   6.514   7.494   2.529  0.4799  0.1411 -0.4273
   71MOL     O225342   6.507   7.370   2.541 -0.0351 -0.3693  0.2895
   71MOL     C325343   6.554   7.579   2.645  0.0474  0.2023 -0.5116
   71MOL     C425344   6.534   7.518   2.787 -0.2672  0.2442  0.7324
   71MOL     C525345   6.548   7.627   2.902  0.7023 -0.9783 -0.5997
   71MOL     C625346   6.547   7.570   3.051 -0.4384 -0.2102 -0.5499
   71MOL     C725347   6.565   7.676   3.154 -0.0748 -0.1929 -0.1372
   71MOL     O825348   6.696   7.727   3.137  0.2880  0.6543 -0.6715
   71MOL     H925349   6.500   7.674   2.640 -0.0214  0.1131 -1.5334
   71MOL    H1025350   6.659   7.603   2.626  0.2884 -0.4680 -0.0295
   71MOL    H1125351   6.608   7.438   2.794 -1.0709 -0.3783  2.5361
   71MOL    H1225352   6.441   7.461   2.788  1.1546 -2.1392  1.2177
   71MOL    H1325353   6.473   7.705   2.894  0.6929 -1.0889 -1.6570
   71MOL    H1425354   6.645   7.678   2.899  1.6613 -2.7398 -0.6290
   71MOL    H1525355   6.615   7.486   3.065  0.2690  0.5882  0.7861
   71MOL    H1625356   6.449   7.525   3.071  0.0591 -1.4240 -0.7697
   71MOL    H1725357   6.495   7.758   3.144  0.2017  0.0328 -0.2321
   71MOL    H1825358   6.547   7.645   3.257 -1.2173  2.2114  0.4254
   71MOL    H1925359   6.479   7.545   2.439 -1.1622  1.2985  0.8292
   71MOL    C2025360   6.760   7.797   3.230 -0.5557  0.0310  0.0880
   71MOL    O2125361   6.713   7.823   3.344  0.4742 -0.1694  0.9952
   71MOL    C2225362   6.889   0.014   3.179 -0.0760  0.0411 -0.7756
   71MOL    C2325363   6.908   0.005   3.018  0.3562  0.6462 -0.4463
   71MOL    C2425364   7.020   0.095   2.966 -0.5653 -0.0637 -0.0124
   71MOL    C2525365   6.991   0.243   2.939  0.1998  0.1980 -0.5207
   71MOL    C2625366   7.121   0.318   2.910 -0.5223  0.8241  0.4210
   71MOL    O2725367   7.205   0.338   3.023 -0.3739 -0.6459 -0.3714
   71MOL    H2825368   6.979   7.823   3.229  0.0290 -2.5821 -2.7147
   71MOL    H2925369   6.881   0.118   3.210  4.6733  0.0529  0.7432
   71MOL    H3025370   6.822   0.049   2.966 -1.1300 -0.2738  1.2107
   71MOL    H3125371   6.933   7.750   2.983 -3.4124 -0.1865 -0.9501
   71MOL    H3225372   7.064   0.037   2.885  0.1209  0.0260  0.2981
   71MOL    H3325373   7.097   0.088   3.042 -0.6501  0.3528  0.1104
   71MOL    H3425374   6.940   0.285   3.026  3.3837  0.8474  1.1243
   71MOL    H3525375   6.922   0.257   2.856  0.0228 -0.1716 -0.4346
   71MOL    H3625376   7.174   0.272   2.826 -1.1107 -1.1793  1.1454
   71MOL    H3725377   7.104   0.419   2.872 -0.9359  1.0020  1.0784
   71MOL    C3825378   7.327   0.385   3.004  0.2030 -0.0381  0.5998
   71MOL    O3925379   7.372   0.416   2.897 -0.8638 -0.0176 -0.3710
   71MOL    C4025380   7.416   0.374   3.129 -0.1741  0.5956 -0.0477
   71MOL    C4125381   7.569   0.383   3.093  0.2863  0.4878 -0.5037
   71MOL    C4225382   7.649   0.374   3.228 -0.8657  0.3956  0.1791
   71MOL    C4325383   7.788   0.437   3.221 -0.1849 -0.6178 -0.3518
   71MOL    C4425384   0.010   0.457   3.361 -0.2923  0.3123 -0.2771
   71MOL    O4525385   0.127   0.530   3.339 -0.5647 -0.4131 -0.3510
   71MOL    H4625386   7.399   0.278   3.178  2.8285 -1.6763 -3.1701
   71MOL    H4725387   7.383   0.441   3.209  0.4530  0.4030  0.3832
   71MOL    H4825388   7.607   0.477   3.052  1.3892  0.5040  0.5508
   71MOL    H4925389   7.606   0.312   3.019 -2.7317 -1.7150 -0.0117
   71MOL    H5025390   7.665   0.267   3.243 -0.6508  0.0151 -2.4877
   71MOL    H5125391   7.600   0.419   3.315  1.5803 -1.0257  2.3433
   71MOL    H5225392   7.772   0.537   3.180 -0.1631  0.0162  1.1568
   71MOL    H5325393   0.011   0.381   3.156 -0.7593 -1.7283 -0.0113
   71MOL    H5425394   7.778   0.511   3.417 -2.3193  0.7875 -3.3502
   71MOL    H5525395   0.039   0.364   3.410 -1.2411  0.5949  0.8288
   71MOL    C5625396   0.227   0.515   3.435 -0.0349  0.1740 -0.2485
   71MOL    O5725397   0.229   0.443   3.536  0.5693  0.4060  0.3218
   71MOL    C5825398   0.340   0.607   3.409  0.3851  0.2163 -0.5353
   71MOL    C5925399   0.319   0.758   3.449 -0.6222  0.6271  0.1948
   71MOL    C6025400   0.247   0.776   3.587  0.6701  0.1445  0.0333
   71MOL    C6125401   0.262   0.913   3.649 -0.4210  0.3978 -0.6429
   71MOL    C6225402   0.375   0.920   3.746 -0.1657  0.2802  0.1320
   71MOL    O6325403   0.384   1.052   3.813  0.1865 -0.2048 -0.1115
   71MOL    H6425404   0.351   0.606   3.300  1.0412  2.1105 -0.5171
   71MOL    H6525405   0.418   0.548   3.458 -1.4001 -0.9701  0.9278
   71MOL    H6625406   0.259   0.826   3.390 -0.0212 -0.2437 -1.4646
   71MOL    H6725407   0.415   0.810   3.450 -0.8890  1.2568 -2.9414
   71MOL    H6825408   0.278   0.695   3.653  0.5343 -1.8340 -2.2357
   71MOL    H6925409   0.139   0.777   3.574  0.7967  2.0505 -1.1073
   71MOL    H7025410   0.169   0.945   3.697  1.1921  2.6403  1.0545
   71MOL    H7125411   0.275   0.988   3.571  1.4012  1.5681  0.7752
   71MOL    H7225412   0.369   0.832   3.811 -0.7458  0.8473  0.8557
   71MOL    H7325413   0.470   0.915   3.692  0.1502 -1.0088  0.7787
   71MOL    C7425414   0.310   1.076   3.928 -0.2889 -0.4538  0.0915
   71MOL    O7525415   0.252   0.993   3.999 -0.3848  0.2818  0.0430
   71MOL    C7625416   0.318   1.218   3.968 -0.1370 -0.0032  0.8647
   71MOL    C7725417   0.435   1.246   4.067 -0.6406 -0.0856  0.4987
   71MOL    C7825418   0.471   1.397   4.072  0.2815  0.5983 -0.2378
   71MOL    C7925419   0.590   1.442   4.151  0.8054  0.0042 -0.0635
   71MOL    C8025420   0.717   1.392   4.088 -0.5868  0.2876  0.0591
   71MOL    O8125421   0.823   1.431   4.181 -0.0523 -0.4180 -0.3719
   71MOL    H8225422   0.222   1.257   4.001 -0.3451  1.3973 -1.2433
   71MOL    H8325423   0.341   1.282   3.882  0.4658  1.7165  2.2856
   71MOL    H8425424   0.517   1.193   4.017  0.3338  0.6773  1.2688
   71MOL    H8525425   0.406   1.200   4.161 -1.7015  0.3818  0.4068
   71MOL    H8625426   0.381   1.450   4.102  0.4270  0.9622 -0.4400
   71MOL    H8725427   0.500   1.438   3.975 -1.0820 -0.0545 -0.9257
   71MOL    H8825428   0.591   1.388   4.245  2.1561  0.7559  0.3702
   71MOL    H8925429   0.597   1.550   4.167  3.3814 -0.1151 -0.2139
   71MOL    H9025430   0.708   1.284   4.071 -1.8033 -0.1118  2.9873
   71MOL    H9125431   0.725   1.452   3.998 -0.2308  2.1477  1.3044
   71MOL    C9225432   0.940   1.487   4.143 -0.5662 -0.5894 -0.2881
   71MOL    O9325433   0.970   1.516   4.031  0.0453  0.2400  0.5438
   71MOL    C9425434   1.036   1.496   4.262 -0.3002 -0.8554 -0.0301
   71MOL    C9525435   1.169   1.417   4.233 -0.1792 -0.0742 -0.1306
   71MOL    C9625436   1.286   1.444   4.337 -0.3668  0.5252  0.5897
   71MOL    C9725437   1.390   1.333   4.330 -0.3376  0.2198  0.4556
   71MOL    C9825438   1.505   1.340   4.430  0.4409  0.4870 -0.1245
   71MOL    O9925439   1.455   1.333   4.566  0.3784 -0.9127 -0.2412
   71MOL   H10025440   0.995   1.442   4.347 -0.8622  2.7760  2.0822
   71MOL   H10125441   1.060   1.594   4.302 -1.1370 -0.7955  0.3366
   71MOL   H10225442   1.211   1.448   4.138  1.7719 -1.4514  0.2465
   71MOL   H10325443   1.141   1.312   4.222 -2.4945  0.2131  2.4916
   71MOL   H10425444   1.251   1.468   4.437  1.3221  0.2579  1.2580
   71MOL   H10525445   1.337   1.533   4.301 -0.6470  0.0144 -1.1424
   71MOL   H10625446   1.433   1.335   4.230 -1.3038 -0.8617 -0.0006
   71MOL   H10725447   1.348   1.232   4.327 -1.9021  0.8532  0.3683
   71MOL   H10825448   1.574   1.258   4.408 -1.0536 -0.2126 -2.3774
   71MOL   H10925449   1.570   1.427   4.419  2.9008 -1.4053 -1.1643
   71MOL   C11025450   1.445   1.214   4.633 -0.5407  0.8845 -0.1612
   71MOL   O11125451   1.508   1.116   4.596 -0.1199 -0.1214  0.0502
   71MOL   C11225452   1.354   1.215   4.756 -0.5776  0.4707 -0.3397
   71MOL   C11325453   1.225   1.293   4.735  0.1579 -0.4515  0.6307
   71MOL   C11425454   1.120   1.257   4.638  0.9659  0.3566 -0.8425
   71MOL   C11525455   1.061   1.116   4.668 -0.2551 -0.4566  0.2823
   71MOL   C11625456   0.943   1.092   4.569  1.1430 -0.0246  0.2704
   71MOL   O11725457   0.821   1.168   4.587 -0.2576  0.2693 -0.1884
   71MOL   H11825458   1.413   1.253   4.838 -1.8015  0.9691  0.3253
   71MOL   H11925459   1.335   1.111   4.781  3.3056 -1.0083 -3.0453
   71MOL   H12025460   1.257   1.392   4.704  2.4232 -1.0119  1.0588
   71MOL   H12125461   1.183   1.296   4.835  1.7390 -0.5385  1.3114
   71MOL   H12225462   1.152   1.260   4.534  1.7866  0.8222 -0.5852
   71MOL   H12325463   1.033   1.322   4.639 -0.5803 -1.7021 -0.4636
   71MOL   H12425464   1.019   1.110   4.769 -2.3724 -0.4204 -0.5549
   71MOL   H12525465   1.140   1.041   4.657  1.0208  0.8022  0.7694
   71MOL   H12625466   0.961   1.097   4.461 -0.2407  2.2032  0.1025
   71MOL   H12725467   0.927   0.986   4.591  2.3269 -0.2909 -0.0945
   71MOL   C12825468   0.741   1.187   4.481  0.3768  0.4720 -0.0940
   71MOL   O12925469   0.756   1.133   4.372  0.4534 -0.3001  0.3164
   71MOL   C13025470   0.625   1.270   4.520 -0.5324  0.8549 -0.1644
   71MOL   C13125471   0.523   1.182   4.591  0.4129 -0.7336 -0.4707
   71MOL   C13225472   0.388   1.255   4.599 -0.1596  0.3515  0.4751
   71MOL   C13325473   0.318   1.279   4.454 -0.1392 -0.4501  0.2092
   71MOL   C13425474   0.181   1.344   4.460  0.3405 -0.0679  0.9840
   71MOL   O13525475   0.112   1.317   4.343  0.3510  0.0641 -0.0436
   71MOL   H13625476   0.585   1.325   4.434 -0.0314 -0.4126 -1.2193
   71MOL   H13725477   0.661   1.345   4.591  0.0710  1.5181 -1.1640
   71MOL   H13825478   0.548   1.175   4.696 -1.9331  1.3779  0.2715
   71MOL   H13925479   0.499   1.082   4.553 -1.7558 -0.3501 -0.1721
   71MOL   H14025480   0.396   1.351   4.650 -0.1999  0.7493 -0.2568
   71MOL   H14125481   0.325   1.198   4.667 -1.2795  0.5174 -0.4065
   71MOL   H14225482   0.309   1.193   4.387  0.6488  0.1190 -0.6524
   71MOL   H14325483   0.384   1.342   4.394  0.8383 -2.6600 -1.1573
   71MOL   H14425484   0.127   1.322   4.552  1.1513 -1.9221  1.0413
   71MOL   H14525485   0.202   1.451   4.456 -1.3980  0.3612  2.6490
   71MOL   C14625486   0.011   1.396   4.297 -0.0608  0.3968  0.5284
   71MOL   O14725487   7.811   1.492   4.354 -0.4079  0.0285 -0.2029
   71MOL   C14825488   7.816   1.374   4.153  0.2941 -0.2612  0.1463
   71MOL   C14925489   7.789   1.228   4.114  0.3744 -0.3075 -0.1057
   71MOL   C15025490   7.738   1.208   3.973 -0.4423  0.7385 -0.5307
   71MOL   C15125491   7.744   1.059   3.935 -0.7342 -0.1450  0.5129
   71MOL   C15225492   7.739   1.029   3.787 -0.6844 -0.0268 -0.1505
   71MOL   O15325493   7.771   0.893   3.754  0.5398 -0.4713 -0.1495
   71MOL   H15425494   0.038   1.418   4.079 -0.3681 -1.5491 -1.2396
   71MOL   H15525495   7.729   1.436   4.131  0.9451  0.2014 -1.1916
   71MOL   H15625496   7.715   1.196   4.187  0.0026  1.1190  0.1471
   71MOL   H15725497   0.036   1.168   4.126 -0.3285 -1.7537 -1.8039
   71MOL   H15825498   7.811   1.264   3.915  2.4335 -1.4854  0.8405
   71MOL   H15925499   7.638   1.253   3.972  0.1717  2.1491  0.1116
   71MOL   H16025500   7.668   0.997   3.984 -0.5774  0.1353  1.1141
   71MOL   H16125501   7.839   1.026   3.976 -0.7991  0.9456  1.5643
   71MOL   H16225502   7.644   1.054   3.740 -0.7193 -2.1389 -1.2626
   71MOL   H16325503   7.816   1.098   3.752 -1.2252  2.2911  3.0515
   71MOL   C16425504   7.686   0.799   3.793  0.6284  0.4375 -0.7942
   71MOL   O16525505   7.571   0.812   3.829  0.0434  0.1833  0.9627
   71MOL   C16625506   7.753   0.662   3.777 -0.0375 -0.0531 -0.7713
   71MOL   C16725507   0.023   0.645   3.876 -0.2017 -0.4509 -0.2433
   71MOL   C16825508   0.103   0.519   3.877  0.1127 -0.2404  0.1408
   71MOL   C16925509   0.035   0.388   3.835  0.1870 -0.0144  0.5898
   71MOL   C17025510   0.137   0.280   3.829  0.9242 -0.5155 -0.1482
   71MOL   O17125511   0.070   0.153   3.803 -0.2982 -0.3732  0.5159
   71MOL   H17225512   7.779   0.647   3.672 -0.8120  1.9833 -1.2893
   71MOL   H17325513   7.673   0.592   3.799  0.2511  0.0195  0.5308
   71MOL   H17425514   7.831   0.670   3.976 -0.1534  2.9102 -0.9878
   71MOL   H17525515   0.098   0.719   3.847 -0.5161  0.7508  1.8975
   71MOL   H17625516   0.153   0.499   3.972  1.6261  1.6243 -0.2314
   71MOL   H17725517   0.177   0.528   3.798 -0.7746 -0.6300 -0.7471
   71MOL   H17825518   7.835   0.380   3.736  0.5584 -0.4070  0.4553
   71MOL   H17925519   7.803   0.369   3.910  0.3354  0.3741  0.8430
   71MOL   H18025520   0.198   0.297   3.740  0.5896  3.5494  0.3036
   71MOL   H18125521   0.207   0.290   3.912  0.6870  0.8145 -0.1026
   71MOL   C18225522   7.840   0.093   3.889  0.0515  0.6812  0.1182
   71MOL   O18325523   7.820   0.137   4.004 -0.4067 -1.0451 -0.3072
   71MOL   C18425524   7.777   7.819   3.825 -0.1067  0.4412 -0.0315
   71MOL   C18525525   7.655   7.768   3.899  0.6107 -0.8238  0.4420
   71MOL   C18625526   7.686   7.698   4.031  0.0014 -0.1991 -0.5871
   71MOL   C18725527   7.756   7.566   4.026 -0.5104 -0.5462  0.2161
   71MOL   C18825528   7.736   7.476   4.147 -0.4423  0.2189 -0.2329
   71MOL   O18925529   7.826   7.370   4.149 -0.5270  0.4227 -0.4341
   71MOL   H19025530   0.005   7.741   3.804 -0.7435 -0.8651  2.4144
   71MOL   H19125531   7.742   0.004   3.726  2.4315  0.2461 -1.0207
   71MOL   H19225532   7.593   7.709   3.832 -0.0081 -0.5538  0.7685
   71MOL   H19325533   7.587   0.004   3.928 -1.4542 -1.6532 -2.0195
   71MOL   H19425534   7.583   7.683   4.064  0.6277 -2.2027  0.5371
   71MOL   H19525535   7.735   7.767   4.099 -0.2314 -0.7630  0.1547
   71MOL   H19625536   0.017   7.584   4.007 -0.1633 -1.1428  1.5167
   71MOL   H19725537   7.727   7.498   3.945  0.6328 -0.6285 -0.1352
   71MOL   H19825538   7.743   7.540   4.234 -0.9728  1.8813 -1.3965
   71MOL   H19925539   7.635   7.434   4.146 -0.5960  0.5389  1.1666
   71MOL   C20025540   7.830   7.289   4.258 -0.7498 -0.0603 -0.0147
   71MOL   O20125541   7.758   7.295   4.358 -0.3533 -0.2214  0.1555
   71MOL   C20225542   0.093   7.185   4.250 -0.8479  0.5100  0.0695
   71MOL   C20325543   0.227   7.216   4.320 -0.3520 -0.0386 -0.1398
   71MOL   C20425544   0.320   7.309   4.234 -0.3022  0.3530 -0.2171
   71MOL   C20525545   0.433   7.369   4.320 -0.2707 -0.9598  0.5464
   71MOL   C20625546   0.532   7.458   4.243 -0.1069 -0.6735 -0.6551
   71MOL   O20725547   0.640   7.485   4.328 -0.0447  0.2670 -0.2058
   71MOL   H20825548   0.111   7.162   4.145  0.7427 -0.8805  0.6212
   71MOL   H20925549   0.052   7.097   4.300 -0.6745 -0.3926 -1.3292
   71MOL   H21025550   0.277   7.127   4.358  2.6308  1.6354  0.0235
   71MOL   H21125551   0.202   7.267   4.413  0.0745  2.6430 -1.4565
   71MOL   H21225552   0.266   7.384   4.177  0.9053  0.0765 -1.7428
   71MOL   H21325553   0.349   7.253   4.145 -0.9764  1.8595 -1.3903
   71MOL   H21425554   0.480   7.283   4.367 -0.6809 -0.7361  1.3852
   71MOL   H21525555   0.389   7.426   4.402 -0.4488  0.7936 -0.7476
   71MOL   H21625556   0.565   7.416   4.148 -2.3704 -1.1000 -1.2700
   71MOL   H21725557   0.471   7.547   4.228  1.1242  0.2339 -0.3952
   71MOL   C21825558   0.683   7.606   4.356  0.1358  0.5361  0.4791
   71MOL   O21925559   0.623   7.712   4.323 -0.1389  0.2665 -0.5354
   71MOL   C22025560   0.795   7.619   4.455 -0.1091 -0.4013  0.0287
   71MOL   C22125561   0.927   7.561   4.402  0.0904 -0.5179  0.4695
   71MOL   C22225562   0.990   7.643   4.288  0.0457  0.0132  0.1698
   71MOL   C22325563   1.140   7.641   4.284  0.6776  0.5054  0.0248
   71MOL   C22425564   1.205   7.733   4.180  0.2510  0.1491  0.4223
   71MOL   O22525565   1.236   0.013   4.241  0.1280 -0.0972  1.0143
   71MOL   H22625566   0.765   7.570   4.547 -0.1666  0.8925  0.7112
   71MOL   H22725567   0.795   7.726   4.475 -0.7213 -0.5665  0.9473
   71MOL   H22825568   0.920   7.460   4.364 -0.2759  0.4009 -2.0130
   71MOL   H22925569   0.986   7.560   4.493 -0.2728 -2.9501  0.7141
   71MOL   H23025570   0.962   7.747   4.305  1.5742  0.2354  1.4039
   71MOL   H23125571   0.946   7.621   4.190 -0.0078  0.5738  0.0670
   71MOL   H23225572   1.163   7.535   4.274 -0.8908  0.2985 -1.5637
   71MOL   H23325573   1.181   7.663   4.383 -1.1259  0.3169  0.8321
   71MOL   H23425574   1.293   7.674   4.152  0.9890  2.3814 -2.2312
   71MOL   H23525575   1.140   7.744   4.094 -0.5775 -0.0117  1.0300
   71MOL   C23625576   1.214   0.126   4.172  0.2396  0.1230  0.1260
   71MOL   O23725577   1.167   0.128   4.062  0.4053  0.1523  0.3475
   71MOL   C23825578   1.259   0.255   4.243 -0.3279 -0.2876 -0.4297
   71MOL   C23925579   1.198   0.264   4.384  0.4625  0.2081  0.2059
   71MOL   C24025580   1.269   0.353   4.479  0.0577 -0.6635 -0.2698
   71MOL   C24125581   1.385   0.284   4.550  0.2938  0.0961  0.3272
   71MOL   C24225582   1.424   0.368   4.674  1.2398 -0.3440 -0.0395
   71MOL   O24325583   1.520   0.297   4.748  0.0070  0.2247  0.1103
   71MOL   H24425584   1.226   0.340   4.183  2.0971  2.6446  2.2534
   71MOL   H24525585   1.367   0.262   4.240 -0.3227  0.6198  1.4243
   71MOL   H24625586   1.203   0.163   4.425  0.0913  0.5175  1.0340
   71MOL   H24725587   1.095   0.301   4.377  0.5064  0.5641  1.3087
   71MOL   H24825588   1.202   0.390   4.557  0.5543  0.4177 -0.3433
   71MOL   H24925589   1.308   0.440   4.425  1.3002 -0.3196  1.1355
   71MOL   H25025590   1.464   0.258   4.479  0.2040  0.0291  0.2521
   71MOL   H25125591   1.337   0.187   4.567 -0.9674  0.6887  0.1291
   71MOL   H25225592   1.450   0.460   4.622  1.3587  0.3196  1.1787
   71MOL   H25325593   1.345   0.398   4.743  1.0079 -0.5253 -0.2241
   71MOL   C25425594   1.509   0.276   4.878  0.6237 -0.5491  0.0602
   71MOL   O25525595   1.421   0.314   4.952 -0.4013 -0.1201  0.6137
   71MOL   C25625596   1.628   0.194   4.934 -0.3263 -0.6913  0.3945
   71MOL   C25725597   1.605   0.043   4.966 -0.0190  0.5634 -1.1916
   71MOL   C25825598   1.522   0.017   5.096  0.0474  0.5514  0.0852
   71MOL   C25925599   1.494   7.715   5.121 -0.3120  0.3392 -0.9232
   71MOL   C26025600   1.615   7.613   5.131  0.4451 -0.7184 -0.2321
   71MOL   O26125601   1.560   7.497   5.196  0.1602  0.3188 -0.5245
   71MOL   H26225602   1.676   0.247   5.016  1.7749 -1.3314 -0.3924
   71MOL   H26325603   1.702   0.189   4.854  0.8801 -1.8957  1.5541
   71MOL   H26425604   1.705   0.001   4.971 -0.3309 -0.1889 -1.2345
   71MOL   H26525605   1.547   7.839   4.888 -1.1251 -1.7595  0.9830
   71MOL   H26625606   1.423   0.058   5.074 -0.5355 -1.9763 -2.2074
   71MOL   H26725607   1.575   0.049   5.186 -1.1684 -1.2005  1.4653
   71MOL   H26825608   1.431   7.680   5.040  1.2893  0.0483 -2.0515
   71MOL   H26925609   1.431   7.712   5.210  1.0562 -0.6323  0.0387
   71MOL   H27025610   1.656   7.589   5.033  0.6374 -0.0759 -0.3129
   71MOL   H27125611   1.693   7.668   5.184 -1.2451  0.3672  1.2290
   71MOL   C27225612   1.570   7.376   5.144  0.5745 -0.7189 -0.7567
   71MOL   O27325613   1.612   7.347   5.031  0.0001 -0.0703  0.1867
   71MOL   C27425614   1.518   7.278   5.255  0.2775 -0.1868  0.5299
   71MOL   C27525615   1.362   7.284   5.265  0.7599  0.0114 -0.1264
   71MOL   C27625616   1.313   7.378   5.372  0.7006  0.2384  0.2455
   71MOL   C27725617   1.156   7.373   5.386  0.0045 -0.1804 -0.6244
   71MOL   C27825618   1.095   7.441   5.511 -0.3225  0.1491  0.0567
   71MOL   O27925619   1.113   7.375   5.636 -0.9301 -0.2074 -0.1223
   71MOL   H28025620   1.567   7.315   5.345  0.0864  0.2726  0.4442
   71MOL   H28125621   1.557   7.176   5.249  0.8008  0.0444  0.0411
   71MOL   H28225622   1.325   7.185   5.290  1.4169 -0.4832 -1.0733
   71MOL   H28325623   1.322   7.310   5.168  1.1320  1.7400  0.1598
   71MOL   H28425624   1.338   7.479   5.339  0.5726 -0.4963 -2.1649
   71MOL   H28525625   1.370   7.346   5.459 -1.9514 -0.5982  1.7566
   71MOL   H28625626   1.115   7.272   5.381 -0.3983 -0.0066 -0.8871
   71MOL   H28725627   1.116   7.423   5.298 -0.0288 -0.6048 -0.8504
   71MOL   H28825628   1.138   7.541   5.521  1.1044 -0.5174  0.7367
   71MOL   H28925629   0.988   7.457   5.504 -0.3288  0.2738  0.4373
   71MOL   C29025630   1.096   7.446   5.754 -0.7854 -0.1404 -0.3639
   71MOL   O29125631   1.065   7.564   5.747 -0.3743  0.5008 -0.4704
   71MOL   C29225632   1.100   7.362   5.884  0.1738  0.4605 -0.3616
   71MOL   C29325633   1.186   7.426   5.992 -0.0841  0.0437 -0.2291
   71MOL   C29425634   1.331   7.473   5.944  0.0161 -0.6556  0.3629
   71MOL   C29525635   1.433   7.369   5.912  0.5991 -0.8181  0.1741
   71MOL   C29625636   1.581   7.415   5.902 -0.0582 -0.5027 -0.5288
   71MOL   O29725637   1.599   7.513   5.805 -0.2239  0.1534 -0.2090
   71MOL   H29825638   1.142   7.266   5.854  1.9905  2.0169 -3.0663
   71MOL   H29925639   0.999   7.342   5.919  1.5939 -2.7831  2.1576
   71MOL   H30025640   1.203   7.358   6.075  0.3917 -0.2514 -0.5628
   71MOL   H30125641   1.136   7.513   6.035  0.1003  0.2228 -0.3700
   71MOL   H30225642   1.372   7.524   6.031 -1.1868 -0.0918  0.6189
   71MOL   H30325643   1.320   7.541   5.859  2.9751  0.4418  0.8075
   71MOL   H30425644   1.417   7.309   5.822  1.4868  0.9515 -1.1936
   71MOL   H30525645   1.432   7.291   5.988  2.6558  0.4831  1.5681
   71MOL   H30625646   1.624   7.465   5.988 -1.2612 -0.7938  0.2506
   71MOL   H30725647   1.644   7.330   5.878 -0.3733 -1.0972  0.6898
   71MOL   C30825648   1.626   7.483   5.677  0.2218  0.5606 -0.3690
   71MOL   O30925649   1.613   7.374   5.626 -0.3164 -0.4282  0.1161
   71MOL   C31025650   1.677   7.600   5.594 -0.0513  0.7680  0.0751
   71MOL   C31125651   1.595   7.730   5.598  0.1783 -0.1666  0.0577
   71MOL   C31225652   1.439   7.716   5.615  0.0149 -0.2738 -0.1376
   71MOL   C31325653   1.366   0.002   5.643  0.2217 -0.1556  0.2271
   71MOL   C31425654   1.234   7.840   5.722 -0.2230 -0.5478  0.1414
   71MOL   O31525655   1.190   0.129   5.748  0.0872 -0.2841 -0.0112
   71MOL   H31625656   1.688   7.560   5.493 -1.8344 -0.6818  0.4397
   71MOL   H31725657   1.779   7.623   5.626  0.6729 -1.7380 -0.2692
   71MOL   H31825658   1.615   7.810   5.527 -0.8299 -1.4933 -1.7559
   71MOL   H31925659   1.623   7.775   5.693 -1.1257  0.4380  0.1711
   71MOL   H32025660   1.413   7.647   5.696 -1.5182 -0.5490 -0.8647
   71MOL   H32125661   1.388   7.668   5.532 -1.1599  0.8281 -0.0727
   71MOL   H32225662   1.359   0.050   5.545 -1.2222 -0.1500  0.3152
   71MOL   H32325663   1.435   0.059   5.706 -0.8550  0.7604  0.5997
   71MOL   H32425664   1.166   7.800   5.647  0.1477 -0.6397 -0.1524
   71MOL   H32525665   1.234   7.776   5.810  0.2311 -0.9115 -0.1194
   71MOL   C32625666   1.178   0.165   5.878  0.9392  0.2429 -0.7077
   71MOL   O32725667   1.220   0.106   5.978 -0.3591 -0.3303  0.4067
   71MOL   C32825668   1.118   0.309   5.891  0.8066  0.5911 -0.4489
   71MOL   C32925669   1.209   0.414   5.961 -0.0495 -0.0860  0.3926
   71MOL   C33025670   1.203   0.424   6.109  0.1448  0.7800 -0.0590
   71MOL   C33125671   1.074   0.483   6.156 -0.0262 -0.3067 -0.8376
   71MOL   C33225672   1.071   0.503   6.308  0.4100 -0.5243 -0.5256
   71MOL   O33325673   0.952   0.575   6.332  0.2913  0.2095 -0.0407
   71MOL   H33425674   1.024   0.301   5.945  0.7242 -0.2496 -0.7000
   71MOL   H33525675   1.107   0.345   5.788  0.1167  0.5861 -0.3766
   71MOL   H33625676   1.197   0.518   5.931  0.3395  0.1060  0.8905
   71MOL   H33725677   1.307   0.397   5.915 -0.3116 -0.1321 -0.1608
   71MOL   H33825678   1.285   0.482   6.151 -0.7807  2.6870 -0.8255
   71MOL   H33925679   1.203   0.323   6.151 -0.1134  0.4439 -0.8584
   71MOL   H34025680   0.990   0.418   6.134 -0.9852  1.3958 -2.2640
   71MOL   H34125681   1.055   0.580   6.110 -1.3547 -1.1121 -2.0089
   71MOL   H34225682   1.086   0.413   6.366 -1.1546  0.3795  1.3183
   71MOL   H34325683   1.144   0.577   6.342  0.7663 -1.5267  0.9234
   71MOL   C34425684   0.890   0.552   6.448  0.1103  0.0306  0.0894
   71MOL   O34525685   0.944   0.503   6.545  0.1890  0.5373 -0.5603
   71MOL   C34625686   0.744   0.603   6.434  0.6367 -0.2274  0.1006
   71MOL   C34725687   0.705   0.707   6.548  0.1303 -0.1760 -0.9999
   71MOL   C34825688   0.700   0.856   6.503 -0.0647 -0.0890 -0.6332
   71MOL   C34925689   0.683   0.963   6.606 -0.3596 -0.5612  0.9510
   71MOL   C35025690   0.537   1.005   6.642  0.1593 -0.7234  0.3637
   71MOL   O35125691   0.462   0.893   6.683 -0.1807 -0.4484  0.1208
   71MOL   H35225692   0.679   0.516   6.444 -0.3548  0.3546 -1.2345
   71MOL   H35325693   0.734   0.640   6.332  0.3241 -1.4787 -0.3290
   71MOL   H35425694   0.772   0.704   6.634 -0.4958  2.8824 -0.3337
   71MOL   H35525695   0.606   0.684   6.586 -1.4018  4.0814 -2.0932
   71MOL   H35625696   0.616   0.866   6.434 -0.3993  1.9807  0.0359
   71MOL   H35725697   0.784   0.885   6.438 -0.9836  1.0041 -1.3543
   71MOL   H35825698   0.743   1.054   6.596 -0.4084 -0.5182  1.0494
   71MOL   H35925699   0.717   0.929   6.704  0.4123  0.0445  0.8988
   71MOL   H36025700   0.526   1.092   6.707 -1.6795 -0.0182 -0.8317
   71MOL   H36125701   0.502   1.042   6.546  0.5616 -2.8854 -0.6424
   71MOL   H36225702   0.510   0.858   6.756  1.0768  1.5692  0.3191
   72MOL     C125703   6.469   1.996   6.146 -0.2230  0.2138 -0.0689
   72MOL     O225704   6.516   1.953   6.043 -0.2113  0.5490 -0.2724
   72MOL     C325705   6.547   2.081   6.254  0.4412 -0.6789 -0.6351
   72MOL     C425706   6.594   2.222   6.197  0.8240 -0.6205 -0.3284
   72MOL     C525707   6.478   2.327   6.204  0.0107  0.5997 -0.7732
   72MOL     C625708   6.516   2.460   6.152 -0.7378 -0.0599 -0.4060
   72MOL     C725709   6.402   2.566   6.191  0.0238 -0.0801 -1.0547
   72MOL     O825710   6.372   2.576   6.331  0.2803  0.5424 -0.3318
   72MOL     H925711   6.632   2.027   6.296  1.0860 -0.3208 -1.4636
   72MOL    H1025712   6.481   2.086   6.340  2.3037  1.5892  0.7168
   72MOL    H1125713   6.626   2.204   6.094 -2.1845 -0.5078 -1.3188
   72MOL    H1225714   6.682   2.250   6.255  1.9377 -0.9395 -1.8466
   72MOL    H1325715   6.439   2.323   6.306  0.2441  0.0600 -0.7068
   72MOL    H1425716   6.393   2.300   6.141  1.2100 -0.7016 -1.8379
   72MOL    H1525717   6.535   2.459   6.045 -2.8344 -0.1992 -0.8148
   72MOL    H1625718   6.610   2.486   6.200 -1.6999 -0.1731  1.5944
   72MOL    H1725719   6.441   2.661   6.154  1.2452 -0.6068 -1.1241
   72MOL    H1825720   6.311   2.543   6.135  0.9529 -3.0109 -1.4223
   72MOL    H1925721   6.369   1.966   6.178  0.1277 -2.1498 -1.0962
   72MOL    C2025722   6.426   2.669   6.407 -0.2102  0.3293 -0.7401
   72MOL    O2125723   6.512   2.752   6.368 -0.2517 -0.2561 -0.4308
   72MOL    C2225724   6.383   2.668   6.555  0.9961 -0.2654 -0.1461
   72MOL    C2325725   6.384   2.811   6.625 -0.2275 -0.1741  0.3888
   72MOL    C2425726   6.311   2.923   6.557  0.4506  0.2852  0.1096
   72MOL    C2525727   6.293   3.051   6.641  0.1670  0.2323  1.0308
   72MOL    C2625728   6.224   3.169   6.564 -0.1134 -0.2881 -0.2034
   72MOL    O2725729   6.106   3.135   6.502 -0.5549 -0.2306 -0.2966
   72MOL    H2825730   6.457   2.608   6.608 -0.1251 -1.3522  0.2051
   72MOL    H2925731   6.280   2.636   6.539 -0.2502  2.8679  1.1082
   72MOL    H3025732   6.486   2.843   6.644  0.0613 -0.3729 -0.7521
   72MOL    H3125733   6.351   2.807   6.729 -0.2381 -2.5500  0.3271
   72MOL    H3225734   6.216   2.888   6.519  0.9316  0.0763 -0.9167
   72MOL    H3325735   6.372   2.952   6.472 -0.0355  0.2448 -0.2547
   72MOL    H3425736   6.392   3.083   6.671  0.3329 -0.6231  1.4042
   72MOL    H3525737   6.234   3.024   6.729 -0.2987  1.9600  1.2784
   72MOL    H3625738   6.214   3.254   6.631  1.5750 -0.4233  0.2451
   72MOL    H3725739   6.288   3.211   6.485 -0.2058 -0.6909 -0.4922
   72MOL    C3825740   5.998   3.086   6.577  0.4886 -0.1280  0.0107
   72MOL    O3925741   5.993   3.072   6.699  0.3836  0.3187 -0.1571
   72MOL    C4025742   5.874   3.059   6.493 -0.3101  0.7197 -0.7275
   72MOL    C4125743   5.889   2.998   6.354  0.7218 -0.1281 -0.4392
   72MOL    C4225744   5.760   2.995   6.264 -0.0209  0.2582  0.5861
   72MOL    C4325745   5.810   2.987   6.120 -0.3098  0.6094 -0.1444
   72MOL    C4425746   5.687   2.976   6.021 -0.3991  0.2809 -0.3396
   72MOL    O4525747   5.626   2.851   6.037 -0.1064  0.5026  0.0943
   72MOL    H4625748   5.823   3.154   6.481  0.2983  1.4267  1.8719
   72MOL    H4725749   5.805   2.999   6.552 -0.9196  0.9208 -1.2292
   72MOL    H4825750   5.914   2.893   6.368 -0.7191 -0.7100 -2.0471
   72MOL    H4925751   5.974   3.049   6.309 -1.4975  3.6335 -0.6304
   72MOL    H5025752   5.705   3.087   6.283 -1.5461 -0.2612 -1.2044
   72MOL    H5125753   5.705   2.908   6.299 -2.0100  1.2392 -0.0269
   72MOL    H5225754   5.874   2.906   6.086 -0.1881  0.4030  0.5768
   72MOL    H5325755   5.863   3.077   6.088 -1.4383  0.6512 -2.0202
   72MOL    H5425756   5.608   3.049   6.039 -1.0504 -0.9471  2.0169
   72MOL    H5525757   5.726   2.978   5.919 -0.4007 -2.2396 -0.4060
   72MOL    C5625758   5.511   2.832   5.979  0.8450 -0.0565 -0.5717
   72MOL    O5725759   5.458   2.910   5.902 -0.3901 -0.1198 -0.1307
   72MOL    C5825760   5.455   2.691   6.012 -0.0134 -0.5406 -0.1659
   72MOL    C5925761   5.323   2.662   5.940  0.3052  0.5642 -0.1854
   72MOL    C6025762   5.201   2.727   6.012 -0.2981  0.7416 -0.1992
   72MOL    C6125763   5.080   2.732   5.934  0.2813 -0.7828  0.4534
   72MOL    C6225764   4.961   2.737   6.019  0.2687  0.4858 -1.2655
   72MOL    O6325765   4.950   2.861   6.084 -0.0680  0.5854 -0.1717
   72MOL    H6425766   5.434   2.681   6.119 -0.2687 -1.0999 -0.2642
   72MOL    H6525767   5.523   2.610   5.986  1.5283  0.7514 -0.2478
   72MOL    H6625768   5.293   2.558   5.933  1.5349  0.3083 -1.9080
   72MOL    H6725769   5.342   2.691   5.836 -1.1289 -0.4022 -0.7273
   72MOL    H6825770   5.224   2.823   6.058 -1.2822  1.5614 -1.3970
   72MOL    H6925771   5.187   2.652   6.090 -0.2709 -0.1547 -1.0490
   72MOL    H7025772   5.076   2.650   5.863  1.3639 -0.8958  0.5052
   72MOL    H7125773   5.092   2.822   5.873 -1.0597 -0.2052  1.0244
   72MOL    H7225774   4.872   2.716   5.960 -0.1154  0.7326 -0.7819
   72MOL    H7325775   4.957   2.659   6.095 -0.0032  1.6456 -0.0517
   72MOL    C7425776   4.903   2.965   6.026 -0.8314 -0.0235 -0.2654
   72MOL    O7525777   4.866   2.968   5.907  0.4839 -0.6022  0.0598
   72MOL    C7625778   4.917   3.092   6.104  0.2925 -0.3209  0.3985
   72MOL    C7725779   5.023   3.188   6.054 -0.7559 -0.5853 -0.2093
   72MOL    C7825780   5.168   3.140   6.085  0.1232 -0.3497  0.1642
   72MOL    C7925781   5.194   3.110   6.234 -0.3289  0.6194  0.2227
   72MOL    C8025782   5.346   3.089   6.263  0.2017  0.5935  0.5498
   72MOL    O8125783   5.367   3.058   6.397 -0.1036  0.4164 -0.6150
   72MOL    H8225784   4.939   3.055   6.204  1.3609  1.0046  0.6580
   72MOL    H8325785   4.814   3.127   6.104  0.5597  0.5503 -1.4603
   72MOL    H8425786   5.005   3.293   6.079  1.4941  0.4076 -2.5114
   72MOL    H8525787   5.018   3.190   5.945  1.3855  2.4174 -0.3425
   72MOL    H8625788   5.240   3.212   6.044 -1.0772  1.1671  0.6746
   72MOL    H8725789   5.196   3.057   6.020 -0.3712 -0.6217  0.2981
   72MOL    H8825790   5.140   3.019   6.260  0.1522 -0.1235 -1.2831
   72MOL    H8925791   5.154   3.195   6.288 -0.9392  1.1533 -1.0477
   72MOL    H9025792   5.394   3.013   6.201  0.3742 -0.4941  1.9819
   72MOL    H9125793   5.394   3.183   6.233  1.8071 -0.2326  0.4702
   72MOL    C9225794   5.375   2.931   6.444 -0.3441  0.1704 -0.1770
   72MOL    O9325795   5.362   2.829   6.382  0.0513  0.1842 -0.0623
   72MOL    C9425796   5.409   2.930   6.593 -0.5115  0.0309 -0.1379
   72MOL    C9525797   5.516   2.822   6.631  0.1948  0.2477  0.2034
   72MOL    C9625798   5.566   2.831   6.780  0.0656  0.2221  0.3209
   72MOL    C9725799   5.674   2.935   6.801 -0.2770  0.1128  0.2600
   72MOL    C9825800   5.720   2.941   6.942 -0.2692 -0.2367  0.3572
   72MOL    O9925801   5.816   3.039   6.969 -0.0790 -0.0574  0.3523
   72MOL   H10025802   5.315   2.925   6.648 -0.2061 -1.9410  0.2690
   72MOL   H10125803   5.468   3.018   6.618  1.3540 -0.9853 -0.8430
   72MOL   H10225804   5.602   2.829   6.563 -0.3612  0.2255 -0.5106
   72MOL   H10325805   5.485   2.719   6.613  0.5961  0.4028 -1.5481
   72MOL   H10425806   5.594   2.735   6.823  1.0573  0.7423  0.8499
   72MOL   H10525807   5.482   2.867   6.838 -1.5048 -1.2014 -1.0094
   72MOL   H10625808   5.645   3.036   6.772  2.9000  0.2923 -2.6335
   72MOL   H10725809   5.761   2.916   6.738 -0.4842  1.7552 -0.5535
   72MOL   H10825810   5.628   2.972   6.991 -0.0160 -2.2309  2.1851
   72MOL   H10925811   5.743   2.843   6.986 -0.1499 -0.1775  0.4271
   72MOL   C11025812   5.920   3.015   7.048  0.3118  0.5555  0.2808
   72MOL   O11125813   5.932   2.919   7.120  0.2295 -1.0343 -0.8958
   72MOL   C11225814   6.036   3.116   7.038 -0.4573 -0.5338 -0.9500
   72MOL   C11325815   6.173   3.054   7.074  0.4119  0.3236  0.1448
   72MOL   C11425816   6.290   3.136   7.028  0.3294 -0.1514  0.3573
   72MOL   C11525817   6.426   3.052   6.994 -0.0796 -0.5615 -0.4066
   72MOL   C11625818   6.508   3.013   7.120  0.2831  0.0185  0.2910
   72MOL   O11725819   6.610   2.935   7.070  0.1252  0.5243 -0.2865
   72MOL   H11825820   6.018   3.191   7.115  1.1762 -1.1372  0.0394
   72MOL   H11925821   6.032   3.159   6.938  0.1267 -0.9359 -1.1478
   72MOL   H12025822   6.178   2.953   7.034 -0.6301 -0.0599  0.9567
   72MOL   H12125823   6.186   3.029   7.180  2.9120 -1.1103 -0.4647
   72MOL   H12225824   6.323   3.220   7.089  0.0045 -0.4017  0.8735
   72MOL   H12325825   6.263   3.188   6.936  1.8817  2.1279  1.1357
   72MOL   H12425826   6.497   3.106   6.931 -1.5947  0.5511 -1.2041
   72MOL   H12525827   6.406   2.960   6.939 -0.7387 -0.0813 -0.9932
   72MOL   H12625828   6.542   3.103   7.171 -1.0564  0.8845 -0.2966
   72MOL   H12725829   6.436   2.958   7.181  2.2273 -0.0515  2.5883
   72MOL   C12825830   6.725   2.921   7.134 -0.4006  0.5260 -0.6377
   72MOL   O12925831   6.762   2.967   7.239 -0.4625 -0.0813 -0.2492
   72MOL   C13025832   6.824   2.833   7.048  0.4030 -0.1198 -0.2992
   72MOL   C13125833   6.970   2.860   7.086 -0.1780  0.5537 -0.0330
   72MOL   C13225834   7.026   2.774   7.208 -0.1417 -0.3301 -0.0428
   72MOL   C13325835   7.167   2.812   7.241  0.2940  0.1106 -0.0831
   72MOL   C13425836   7.162   2.912   7.359  0.7652 -0.3775  0.1680
   72MOL   O13525837   7.294   2.941   7.395 -0.4644 -0.0976  0.0904
   72MOL   H13625838   6.809   2.874   6.949  1.4410 -0.5385 -0.6306
   72MOL   H13725839   6.797   2.727   7.045  0.7430 -0.2207  0.1663
   72MOL   H13825840   6.982   2.965   7.110 -0.1468  0.7424 -0.8491
   72MOL   H13925841   7.032   2.846   6.997  1.8048 -0.4005  1.4691
   72MOL   H14025842   7.022   2.667   7.185  0.4851 -0.1870 -0.8397
   72MOL   H14125843   6.965   2.776   7.298  1.1468  3.1202  0.8389
   72MOL   H14225844   7.219   2.854   7.155 -0.3516  0.0676 -0.4992
   72MOL   H14325845   7.223   2.720   7.259 -1.7774 -1.0971  0.3581
   72MOL   H14425846   7.112   3.007   7.340  1.7075 -0.2239 -1.5693
   72MOL   H14525847   7.110   2.869   7.445 -0.7134  1.9561  0.4772
   72MOL   C14625848   7.372   3.021   7.323  0.0694 -0.4337  0.7158
   72MOL   O14725849   7.325   3.089   7.228  0.3521 -0.0610  0.7656
   72MOL   C14825850   7.521   3.031   7.360 -0.3046  0.0036  0.4751
   72MOL   C14925851   7.591   2.913   7.289 -0.0465  0.7274  0.3492
   72MOL   C15025852   7.744   2.899   7.327  0.9098 -0.7705  0.5429
   72MOL   C15125853   7.830   3.023   7.301  0.4952 -0.4037  0.3481
   72MOL   C15225854   7.830   3.092   7.161  0.0242  0.5907  0.3968
   72MOL   O15325855   7.717   3.180   7.146 -0.6651 -0.2527  0.2100
   72MOL   H15425856   7.526   3.036   7.469 -0.1306  0.0053  0.4658
   72MOL   H15525857   7.562   3.129   7.339 -1.5486  0.6114  0.8364
   72MOL   H15625858   7.578   2.935   7.184  0.2613 -0.4244  0.0569
   72MOL   H15725859   7.540   2.817   7.299 -0.8850  1.2489  1.1492
   72MOL   H15825860   7.787   2.810   7.282  0.1685  0.5921 -3.0066
   72MOL   H15925861   7.756   2.870   7.432  2.4866 -2.6701 -0.1344
   72MOL   H16025862   0.085   2.986   7.328  0.9871  1.6460  1.4653
   72MOL   H16125863   7.815   3.090   7.386  1.1676 -1.0027  0.9500
   72MOL   H16225864   0.080   3.144   7.146  0.4664 -0.9996 -2.8283
   72MOL   H16325865   7.822   3.005   7.095  1.0584  0.6119  0.2463
   72MOL   C16425866   7.718   3.295   7.208 -0.1506  0.2137  0.4592
   72MOL   O16525867   7.820   3.342   7.264  0.5461 -0.0799 -0.3382
   72MOL   C16625868   7.594   3.384   7.188 -0.4671  0.6848 -0.1388
   72MOL   C16725869   7.565   3.468   7.315 -0.4358 -0.1542  1.2686
   72MOL   C16825870   7.448   3.417   7.399  0.6330 -0.3230 -0.2917
   72MOL   C16925871   7.306   3.428   7.349  0.3923  0.4833  0.8599
   72MOL   C17025872   7.206   3.362   7.446 -0.0074 -0.2321 -0.1897
   72MOL   O17125873   7.075   3.358   7.396  0.1900 -0.7624 -0.2591
   72MOL   H17225874   7.514   3.321   7.149  0.4590  0.1482 -1.1829
   72MOL   H17325875   7.626   3.448   7.106  0.6869 -0.0471 -0.2731
   72MOL   H17425876   7.548   3.569   7.278 -0.1815 -0.8798 -0.8913
   72MOL   H17525877   7.648   3.466   7.385  0.8254 -1.3510 -0.2144
   72MOL   H17625878   7.437   3.472   7.493 -0.3334  1.3301 -1.3385
   72MOL   H17725879   7.464   3.314   7.431 -0.5723 -0.2617  0.5387
   72MOL   H17825880   7.297   3.372   7.256 -0.1182  0.7670  0.7361
   72MOL   H17925881   7.271   3.530   7.331  0.9599  0.3418 -1.1666
   72MOL   H18025882   7.244   3.266   7.481 -0.5285  0.0935  1.3204
   72MOL   H18125883   7.190   3.415   7.540 -2.5307 -0.6628 -0.3473
   72MOL   C18225884   6.988   3.257   7.436  0.7338 -0.0617 -0.0844
   72MOL   O18325885   7.003   3.175   7.523 -0.1174 -0.4419 -0.1538
   72MOL   C18425886   6.852   3.272   7.369  0.3396  0.1503  0.0960
   72MOL   C18525887   6.851   3.342   7.236 -0.9641  0.5844 -0.3891
   72MOL   C18625888   6.707   3.380   7.203 -0.4401  0.2015  0.6879
   72MOL   C18725889   6.677   3.411   7.057  0.9570 -0.0602 -0.6026
   72MOL   C18825890   6.761   3.513   6.995  0.1910  0.3102  0.4106
   72MOL   O18925891   6.719   3.501   6.860 -0.4150 -0.1434  0.4290
   72MOL   H19025892   6.783   3.315   7.442  1.8652  0.9433  1.0877
   72MOL   H19125893   6.819   3.170   7.350  0.9319  0.2398 -1.4289
   72MOL   H19225894   6.882   3.281   7.151  0.3214  2.1676 -1.0852
   72MOL   H19325895   6.917   3.429   7.227  1.7227 -1.3771 -0.2663
   72MOL   H19425896   6.678   3.472   7.254  0.9815  1.2587 -0.3671
   72MOL   H19525897   6.635   3.304   7.233 -0.6224 -0.4270 -1.2826
   72MOL   H19625898   6.574   3.446   7.054  0.8320 -0.4614 -1.0085
   72MOL   H19725899   6.674   3.317   7.001  0.1445 -0.1494 -0.4147
   72MOL   H19825900   6.741   3.613   7.034 -1.3717  0.5329 -0.9188
   72MOL   H19925901   6.869   3.495   7.001  0.4990  1.4664 -1.2004
   72MOL   C20025902   6.802   3.557   6.767 -0.1490  0.5204 -0.7115
   72MOL   O20125903   6.914   3.607   6.785  0.1628 -0.8102 -0.3573
   72MOL   C20225904   6.747   3.542   6.628 -0.0619 -0.1712 -0.1882
   72MOL   C20325905   6.703   3.684   6.574  0.7279  0.4090  0.4653
   72MOL   C20425906   6.697   3.702   6.421 -0.1347 -0.0274  0.0008
   72MOL   C20525907   6.639   3.834   6.391 -0.5049  0.0800  0.0414
   72MOL   C20625908   6.626   3.850   6.234  0.3947 -0.2972  0.3642
   72MOL   O20725909   6.532   3.769   6.177 -0.5301  0.4515  0.0450
   72MOL   H20825910   6.664   3.471   6.633  0.2444 -0.3697  3.9718
   72MOL   H20925911   6.821   3.495   6.563  0.8196 -0.7813  1.2302
   72MOL   H21025912   6.770   3.763   6.609 -1.2316  3.0500 -1.5389
   72MOL   H21125913   6.607   3.717   6.613 -0.2830 -0.1627 -1.4888
   72MOL   H21225914   6.644   3.624   6.365  1.1789 -1.3305  0.5228
   72MOL   H21325915   6.803   3.704   6.397  0.2909  0.1398  1.8295
   72MOL   H21425916   6.688   3.916   6.444  1.4692 -1.1877  0.2164
   72MOL   H21525917   6.535   3.829   6.423 -0.3646 -0.4819  0.4042
   72MOL   H21625918   6.586   3.951   6.219 -0.1370 -0.4089  1.0017
   72MOL   H21725919   6.725   3.835   6.192 -0.1176 -1.1305 -0.5430
   72MOL   C21825920   6.530   3.766   6.042 -0.1756 -0.0818  0.2907
   72MOL   O21925921   6.593   3.834   5.962 -0.7823 -0.7336 -0.2801
   72MOL   C22025922   6.435   3.661   5.990  0.4282  0.2456  0.2781
   72MOL   C22125923   6.391   3.684   5.847  0.3393 -0.2625 -0.3989
   72MOL   C22225924   6.271   3.597   5.802  0.3996 -0.0321 -0.8207
   72MOL   C22325925   6.145   3.640   5.873  0.3836  0.7133 -0.3402
   72MOL   C22425926   6.020   3.588   5.821 -0.1188 -0.3722  0.1741
   72MOL   O22525927   5.908   3.661   5.862 -0.2990  0.0612 -0.4434
   72MOL   H22625928   6.345   3.649   6.052  0.8080 -3.1436  0.2894
   72MOL   H22725929   6.494   3.569   5.994 -2.6663 -1.7667  1.9710
   72MOL   H22825930   6.482   3.665   5.790  0.7565  0.9101 -0.1279
   72MOL   H22925931   6.379   3.790   5.823 -0.2763 -0.1968  0.1614
   72MOL   H23025932   6.288   3.494   5.834 -0.3885  0.0094 -0.2525
   72MOL   H23125933   6.250   3.608   5.696  2.7342 -1.7517 -1.5022
   72MOL   H23225934   6.140   3.749   5.879 -2.1899  0.5775  0.4244
   72MOL   H23325935   6.161   3.603   5.975  1.8565  0.7374 -0.5426
   72MOL   H23425936   6.019   3.599   5.712  0.4111 -0.0182  0.2033
   72MOL   H23525937   6.020   3.481   5.844  1.3684  0.1493  2.7740
   72MOL   C23625938   5.793   3.636   5.804 -0.8896  0.1836  0.4238
   72MOL   O23725939   5.768   3.528   5.746  0.2656 -0.6461 -0.1340
   72MOL   C23825940   5.684   3.739   5.833 -0.0207 -0.3534 -0.4638
   72MOL   C23925941   5.547   3.676   5.851 -0.5579  0.1594 -0.0345
   72MOL   C24025942   5.441   3.768   5.911 -0.7012 -0.1128 -0.6736
   72MOL   C24125943   5.293   3.742   5.878  0.2659  0.2562  0.3221
   72MOL   C24225944   5.201   3.738   6.000 -0.2852  0.6413  0.4892
   72MOL   O24325945   5.073   3.679   5.983  0.5876  0.1412  0.0969
   72MOL   H24425946   5.697   3.813   5.753  0.6204  1.2879  1.1164
   72MOL   H24525947   5.701   3.787   5.930 -1.2545 -2.1748  0.6771
   72MOL   H24625948   5.563   3.602   5.930  0.3552 -0.7455 -1.0452
   72MOL   H24725949   5.511   3.618   5.767 -0.3398  0.9629 -0.6895
   72MOL   H24825950   5.467   3.869   5.878 -1.3591 -0.6292 -2.8816
   72MOL   H24925951   5.457   3.780   6.018  1.6182 -1.1341 -0.8576
   72MOL   H25025952   5.284   3.640   5.840 -2.4195  1.3086 -2.0349
   72MOL   H25125953   5.262   3.793   5.787  0.6776 -1.1266 -0.6164
   72MOL   H25225954   5.253   3.682   6.078 -2.4442 -1.6970  0.3517
   72MOL   H25325955   5.177   3.840   6.029  1.5206  0.7286  1.7534
   72MOL   C25425956   5.017   3.610   6.079  0.6897  0.2312  0.0097
   72MOL   O25525957   5.082   3.552   6.164  0.2397  0.3645  0.2859
   72MOL   C25625958   4.863   3.598   6.088  0.1679 -0.3451 -0.4515
   72MOL   C25725959   4.800   3.466   6.052 -0.2465  0.2510  0.3069
   72MOL   C25825960   4.657   3.495   6.008  0.3951  0.2096 -0.3013
   72MOL   C25925961   4.565   3.375   6.008 -0.7473  0.6823  0.2028
   72MOL   C26025962   4.416   3.415   5.990 -0.0447 -0.8138 -0.1169
   72MOL   O26125963   4.384   3.457   5.856 -0.3719 -0.6584  0.3930
   72MOL   H26225964   4.830   3.668   6.011  0.6883 -0.9944 -1.2822
   72MOL   H26325965   4.826   3.635   6.183 -2.7105 -2.0690 -0.8190
   72MOL   H26425966   4.802   3.411   6.147 -1.5192  3.1472  2.1001
   72MOL   H26525967   4.861   3.410   5.982  2.1164  1.8606  1.0453
   72MOL   H26625968   4.666   3.544   5.911  1.4895  0.9141  0.1414
   72MOL   H26725969   4.614   3.575   6.068  1.3260  0.0453  0.5912
   72MOL   H26825970   4.570   3.324   6.104  0.9877 -0.4217 -0.4417
   72MOL   H26925971   4.596   3.302   5.932  2.4196  0.9148  1.2235
   72MOL   H27025972   4.348   3.335   6.019 -0.8621  0.1900  0.8040
   72MOL   H27125973   4.405   3.494   6.064  1.9489  1.8741 -2.5781
   72MOL   C27225974   4.335   3.364   5.768 -0.6806  0.1351  0.9377
   72MOL   O27325975   4.312   3.246   5.793 -0.2013 -0.2869 -0.5846
   72MOL   C27425976   4.294   3.425   5.632  0.0750  0.6948  0.4198
   72MOL   C27525977   4.408   3.443   5.523 -0.3547 -0.7447 -0.3783
   72MOL   C27625978   4.538   3.493   5.587 -0.1783 -0.3894  0.5269
   72MOL   C27725979   4.639   3.547   5.485 -0.4376  0.0496  0.5027
   72MOL   C27825980   4.759   3.620   5.558  0.3237 -0.4281 -0.1039
   72MOL   O27925981   4.849   3.536   5.618 -0.9918 -0.1678 -0.1711
   72MOL   H28025982   4.242   3.520   5.647  1.2665  1.2457  1.0979
   72MOL   H28125983   4.220   3.359   5.588  0.9108  0.7247 -1.0558
   72MOL   H28225984   4.376   3.524   5.458 -2.8822 -1.1647  0.2855
   72MOL   H28325985   4.419   3.347   5.473 -2.7357 -1.4626  0.4403
   72MOL   H28425986   4.596   3.414   5.635  0.1042 -0.1920  0.5096
   72MOL   H28525987   4.508   3.573   5.654 -0.1861  0.1035 -0.0645
   72MOL   H28625988   4.595   3.618   5.416  0.5831  0.5548  0.3608
   72MOL   H28725989   4.682   3.463   5.429 -0.7788  0.5417 -0.4896
   72MOL   H28825990   4.805   3.692   5.490  0.5359  1.3623  1.8648
   72MOL   H28925991   4.713   3.686   5.632  2.1668 -0.5307  1.1779
   72MOL   C29025992   4.981   3.572   5.617  0.2974  0.1133  0.2377
   72MOL   O29125993   5.030   3.668   5.551  0.6121 -0.5188  0.5897
   72MOL   C29225994   5.059   3.480   5.709  0.6719 -0.3178 -0.0597
   72MOL   C29325995   5.195   3.444   5.646 -1.0950  0.4416 -0.5216
   72MOL   C29425996   5.298   3.369   5.743  0.3988  0.3778 -1.1525
   72MOL   C29525997   5.424   3.325   5.670  0.7088  0.0826 -0.3180
   72MOL   C29625998   5.528   3.288   5.776 -0.5751 -0.0426  0.3601
   72MOL   O29725999   5.632   3.219   5.713  0.3822 -0.3704  0.1908
   72MOL   H29826000   5.003   3.388   5.726 -1.6768  1.0709 -0.0877
   72MOL   H29926001   5.075   3.528   5.805  0.9041  0.7130 -0.6086
   72MOL   H30026002   5.247   3.538   5.631 -0.4887  0.3428  0.8318
   72MOL   H30126003   5.198   3.398   5.547  3.1035 -0.0003 -0.2801
   72MOL   H30226004   5.257   3.275   5.780  3.8528 -0.9062 -0.3922
   72MOL   H30326005   5.312   3.430   5.832 -2.7350 -0.6748  0.1194
   72MOL   H30426006   5.462   3.405   5.606  0.6567  1.3761  1.2087
   72MOL   H30526007   5.407   3.239   5.607  1.0182  0.6776 -1.2289
   72MOL   H30626008   5.557   3.371   5.839  0.2383 -0.7952  0.9910
   72MOL   H30726009   5.479   3.226   5.851  0.3071 -0.0891  0.9034
   72MOL   C30826010   5.759   3.226   5.766  0.9691 -0.3984  0.3395
   72MOL   O30926011   5.785   3.272   5.876 -0.5445  0.3736 -0.2474
   72MOL   C31026012   5.868   3.166   5.675  0.5961 -0.2754 -0.4264
   72MOL   C31126013   5.846   3.216   5.532 -0.8530 -0.3779  0.0503
   72MOL   C31226014   5.964   3.185   5.441 -0.2368  1.1586 -0.2876
   72MOL   C31326015   5.926   3.201   5.295  0.3349 -0.3331 -0.4251
   72MOL   C31426016   6.031   3.203   5.186  0.2582 -0.3612 -0.5663
   72MOL   O31526017   5.964   3.161   5.071 -0.2153 -0.1242 -0.0944
   72MOL   H31626018   5.864   3.057   5.681  0.4043 -0.3512 -1.6971
   72MOL   H31726019   5.968   3.188   5.712  0.6747 -0.4822 -0.5136
   72MOL   H31826020   5.840   3.324   5.518 -1.0618 -0.3864  0.0760
   72MOL   H31926021   5.755   3.168   5.496 -1.1490  1.1905 -1.4000
   72MOL   H32026022   6.001   3.084   5.463 -1.2810  0.7950 -0.1815
   72MOL   H32126023   6.044   3.244   5.485  1.5646 -2.8875  2.1938
   72MOL   H32226024   5.881   3.298   5.271  1.9830  0.2774 -1.1186
   72MOL   H32326025   5.855   3.124   5.267  1.0827  0.1514 -3.8183
   72MOL   H32426026   6.059   3.308   5.172 -2.3422  0.4405 -0.0881
   72MOL   H32526027   6.119   3.143   5.208 -1.1349 -3.0423 -2.0699
   72MOL   C32626028   5.894   3.246   4.994  0.0846  0.0007 -1.0466
   72MOL   O32726029   5.903   3.370   4.991  0.1213 -0.2537 -0.0697
   72MOL   C32826030   5.786   3.186   4.908 -0.5689  0.1486 -0.3164
   72MOL   C32926031   5.655   3.162   4.977  0.2674 -0.3796 -0.2098
   72MOL   C33026032   5.540   3.097   4.897 -0.4947  0.6711 -1.1233
   72MOL   C33126033   5.422   3.051   4.977  0.7037 -0.0148 -0.3236
   72MOL   C33226034   5.341   3.164   5.054 -0.1572  0.4170  0.6010
   72MOL   O33326035   5.283   3.121   5.177 -0.2901  0.1337 -0.3688
   72MOL   H33426036   5.830   3.093   4.870  2.3767  2.5227 -3.0179
   72MOL   H33526037   5.764   3.254   4.826 -0.7420  0.5179  0.0383
   72MOL   H33626038   5.621   3.260   5.009 -0.6842 -0.5604 -0.6416
   72MOL   H33726039   5.670   3.113   5.073 -2.5598 -0.5112  0.2064
   72MOL   H33826040   5.593   3.021   4.839  0.7022 -0.3018  1.1970
   72MOL   H33926041   5.497   3.164   4.823 -0.6848  1.7508 -0.0502
   72MOL   H34026042   5.452   2.983   5.056 -0.7753 -1.3930 -0.9236
   72MOL   H34126043   5.357   2.987   4.918  0.9621  0.4665 -1.1388
   72MOL   H34226044   5.416   3.239   5.078  0.4236  0.2538 -0.6478
   72MOL   H34326045   5.265   3.212   4.992  1.5819  1.4207 -0.7964
   72MOL   C34426046   5.290   3.191   5.293 -0.0174  0.4032 -0.3397
   72MOL   O34526047   5.335   3.299   5.297  0.1371 -0.1053  0.7110
   72MOL   C34626048   5.232   3.115   5.411  0.1913  0.3292 -0.2206
   72MOL   C34726049   5.083   3.152   5.421 -0.1731 -0.1940 -0.0971
   72MOL   C34826050   4.997   3.073   5.526 -0.0662  0.2696  0.3777
   72MOL   C34926051   4.992   2.924   5.498  0.3171  0.8499 -0.1100
   72MOL   C35026052   4.912   2.840   5.597  0.5442 -0.4520 -0.2859
   72MOL   O35126053   4.920   2.705   5.572 -0.1905 -0.0359 -0.6571
   72MOL   H35226054   5.282   3.129   5.507 -1.2137 -0.6726  0.6755
   72MOL   H35326055   5.252   3.009   5.396  0.4632  0.2342  0.7796
   72MOL   H35426056   5.036   3.149   5.322  0.4950  0.6331 -0.4427
   72MOL   H35526057   5.072   3.254   5.457  2.4350  0.2491 -0.4708
   72MOL   H35626058   4.893   3.106   5.533 -0.9214 -1.8346 -1.8871
   72MOL   H35726059   5.045   3.082   5.623 -0.9908  1.4889  0.7338
   72MOL   H35826060   5.095   2.889   5.498  0.3367  0.8777  1.1729
   72MOL   H35926061   4.954   2.904   5.398 -0.1681 -2.0020  0.5946
   72MOL   H36026062   4.954   2.862   5.695  0.2978 -0.4189 -0.1875
   72MOL   H36126063   4.809   2.874   5.598 -0.3630 -3.1018  0.1843
   72MOL   H36226064   4.861   2.686   5.500 -1.2623  0.2722  0.1260
   73MOL     C126065   4.415   6.960   3.904  0.1860 -0.1168  0.1034
   73MOL     O226066   4.390   7.050   3.980  0.3215 -0.4163 -0.0967
   73MOL     C326067   4.321   6.851   3.855  0.0811 -0.3206 -0.2473
   73MOL     C426068   4.200   6.835   3.942  0.8921 -0.7612 -0.0193
   73MOL     C526069   4.094   6.761   3.857 -0.1204 -0.2413 -0.2161
   73MOL     C626070   3.950   6.763   3.908 -0.0811 -0.0656  0.2509
   73MOL     C726071   3.844   6.730   3.802 -0.1296  0.2232 -0.4332
   73MOL     O826072   3.892   6.730   3.667 -0.4353  0.4414  0.0917
   73MOL     H926073   4.376   6.758   3.841 -0.2516 -1.0533  2.9308
   73MOL    H1026074   4.287   6.884   3.757  0.1988  0.5145 -0.0161
   73MOL    H1126075   4.150   6.931   3.961  1.8087 -0.2499 -0.1695
   73MOL    H1226076   4.223   6.781   4.033  1.5757  0.2025  0.3845
   73MOL    H1326077   4.124   6.659   3.834  1.4693 -0.3300  2.1389
   73MOL    H1426078   4.091   6.808   3.758  0.8199  1.5777  0.5901
   73MOL    H1526079   3.909   6.849   3.960 -1.3165  0.2568 -1.2289
   73MOL    H1626080   3.958   6.683   3.982 -0.5855 -0.9960 -0.6868
   73MOL    H1726081   3.785   6.639   3.816 -0.6368  0.7685  0.9732
   73MOL    H1826082   3.776   6.813   3.819  0.9082  0.6626  1.6192
   73MOL    H1926083   4.516   6.938   3.869 -0.2529  0.0410 -1.3007
   73MOL    C2026084   3.845   6.829   3.579  1.0108 -0.2087 -0.0554
   73MOL    O2126085   3.791   6.932   3.619  0.0531 -0.1448  0.6569
   73MOL    C2226086   3.845   6.790   3.429 -0.1435 -0.4832 -0.6675
   73MOL    C2326087   3.957   6.863   3.352 -0.2908  0.4018  0.4839
   73MOL    C2426088   4.092   6.795   3.356 -0.8740  0.6625 -0.3425
   73MOL    C2526089   4.164   6.788   3.498 -0.9925  0.6694  0.1745
   73MOL    C2626090   4.318   6.779   3.500 -0.2515  0.0712 -0.4299
   73MOL    O2726091   4.362   6.652   3.454  0.2766 -0.3998 -0.7338
   73MOL    H2826092   3.750   6.822   3.385 -0.8681 -2.2459 -0.4430
   73MOL    H2926093   3.862   6.685   3.407 -2.5334 -0.7210 -1.6032
   73MOL    H3026094   3.969   6.961   3.398 -2.1231  0.4060  0.9870
   73MOL    H3126095   3.917   6.874   3.251 -1.2458  4.3863  1.2143
   73MOL    H3226096   4.161   6.848   3.290 -2.9676  1.9053 -1.6112
   73MOL    H3326097   4.074   6.694   3.319  1.7583  1.1263 -3.0998
   73MOL    H3426098   4.115   6.713   3.561 -2.4123  1.4600  0.0241
   73MOL    H3526099   4.146   6.883   3.548  1.9858  2.1946 -1.5551
   73MOL    H3626100   4.368   6.857   3.442 -0.7781  0.6744 -0.0729
   73MOL    H3726101   4.348   6.797   3.604 -1.4134  0.4205 -0.1547
   73MOL    C3826102   4.386   6.559   3.544  0.3112 -0.1561  0.3410
   73MOL    O3926103   4.417   6.577   3.662  0.4238 -0.1653 -0.2154
   73MOL    C4026104   4.370   6.422   3.492  0.0118  0.0856 -0.1342
   73MOL    C4126105   4.217   6.398   3.469  0.2606 -0.2990 -0.4315
   73MOL    C4226106   4.134   6.382   3.597  0.6349 -0.0925 -0.1336
   73MOL    C4326107   3.991   6.418   3.591  0.6747 -0.3089  0.8141
   73MOL    C4426108   3.921   6.403   3.727 -0.2346 -0.0164 -0.2277
   73MOL    O4526109   3.782   6.423   3.711 -0.1379  0.4570 -0.5182
   73MOL    H4626110   4.403   6.346   3.563  0.7685  1.6030  1.1429
   73MOL    H4726111   4.426   6.418   3.398 -1.2662 -1.2674 -0.8712
   73MOL    H4826112   4.192   6.320   3.397 -1.2333  2.2001 -2.7097
   73MOL    H4926113   4.180   6.488   3.420  1.6103  1.0171  0.9178
   73MOL    H5026114   4.182   6.433   3.681 -1.0468  1.0745  0.1251
   73MOL    H5126115   4.148   6.277   3.621  1.4431  0.5965  2.6518
   73MOL    H5226116   3.948   6.347   3.520 -0.8967  0.0307  1.4145
   73MOL    H5326117   3.977   6.515   3.544 -0.0182 -1.4413 -1.3936
   73MOL    H5426118   3.938   6.298   3.750  0.0830  0.0232 -0.2799
   73MOL    H5526119   3.973   6.468   3.797  1.2525 -1.1731 -0.2349
   73MOL    C5626120   3.704   6.319   3.654 -0.4974 -0.4688  0.1293
   73MOL    O5726121   3.740   6.211   3.636 -0.4106  0.0416  0.3079
   73MOL    C5826122   3.576   6.374   3.605 -0.3845  0.5437 -0.3970
   73MOL    C5926123   3.587   6.486   3.497 -0.4941  1.4113 -0.1553
   73MOL    C6026124   3.456   6.532   3.437  0.1122  0.6383 -0.0603
   73MOL    C6126125   3.485   6.666   3.368  0.1055  0.4299 -0.0705
   73MOL    C6226126   3.369   6.716   3.292 -0.0713 -0.0645 -0.6540
   73MOL    O6326127   3.253   6.754   3.369  0.1557  0.4601  0.2774
   73MOL    H6426128   3.523   6.423   3.686  0.2292 -0.7704  0.8131
   73MOL    H6526129   3.517   6.290   3.568  0.1594 -0.6862  1.4586
   73MOL    H6626130   3.643   6.434   3.419  1.1966  0.1876  1.8249
   73MOL    H6726131   3.644   6.568   3.540 -1.4249  1.4500  1.0298
   73MOL    H6826132   3.380   6.545   3.514 -1.4022 -1.4124 -1.1565
   73MOL    H6926133   3.410   6.461   3.368  0.8116  1.2219 -1.1517
   73MOL    H7026134   3.569   6.656   3.299 -0.8283  1.6396 -1.4190
   73MOL    H7126135   3.509   6.740   3.444 -2.5968  0.1171  1.1488
   73MOL    H7226136   3.396   6.805   3.236 -0.7740  0.2810 -0.4505
   73MOL    H7326137   3.346   6.652   3.208 -0.3768  0.8559 -1.2835
   73MOL    C7426138   3.142   6.794   3.310  0.4065  0.6353 -0.3942
   73MOL    O7526139   3.122   6.832   3.196  0.0643 -1.0027  0.6243
   73MOL    C7626140   3.024   6.786   3.410  0.1562 -0.1831 -0.1295
   73MOL    C7726141   3.023   6.911   3.502 -0.0546  0.4253 -0.0723
   73MOL    C7826142   2.926   6.891   3.624 -0.1900 -1.2281 -0.5731
   73MOL    C7926143   2.913   7.016   3.709 -1.1154  0.3931 -0.3013
   73MOL    C8026144   2.802   7.001   3.811  0.0965 -0.1446 -0.5703
   73MOL    O8126145   2.795   7.132   3.868 -0.9706  0.6348  0.3097
   73MOL    H8226146   3.043   6.699   3.472  0.6965 -0.7076 -1.0303
   73MOL    H8326147   2.936   6.762   3.351 -1.1462 -0.2809  1.7874
   73MOL    H8426148   2.990   6.999   3.447 -0.9615  0.4505  0.5065
   73MOL    H8526149   3.125   6.930   3.535  0.2295 -0.3539 -0.4922
   73MOL    H8626150   2.964   6.817   3.695  1.9878 -2.2964 -2.7601
   73MOL    H8726151   2.822   6.875   3.596 -0.7485  0.7124  0.3097
   73MOL    H8826152   2.894   7.105   3.649  0.4195  0.2835 -0.9753
   73MOL    H8926153   3.008   7.029   3.762 -1.2486 -0.7331  0.2312
   73MOL    H9026154   2.709   6.970   3.765  0.4171 -0.8595 -0.7392
   73MOL    H9126155   2.806   6.921   3.884  1.1235  0.0013 -0.4516
   73MOL    C9226156   2.706   7.161   3.966 -0.1583  0.4908  0.2470
   73MOL    O9326157   2.616   7.089   4.015  0.3437 -0.1566 -0.4731
   73MOL    C9426158   2.713   7.302   4.017 -0.4646 -0.0873 -0.1713
   73MOL    C9526159   2.843   7.383   4.008  0.0154 -1.1157  0.0190
   73MOL    C9626160   2.857   7.449   3.869  0.3846 -0.1504  0.3163
   73MOL    C9726161   2.989   7.513   3.841  0.2330 -0.4569 -0.0842
   73MOL    C9826162   3.107   7.416   3.808  0.2509  0.3348 -0.0836
   73MOL    O9926163   3.065   7.334   3.703 -0.4262 -0.4218 -0.1572
   73MOL   H10026164   2.661   7.305   4.113  0.8929 -0.7791  0.5962
   73MOL   H10126165   2.657   7.362   3.945 -1.8619  0.1906  1.1078
   73MOL   H10226166   2.929   7.323   4.035 -0.2898 -2.1865 -1.3157
   73MOL   H10326167   2.841   7.459   4.087 -1.9052 -0.6255 -0.4516
   73MOL   H10426168   2.780   7.527   3.862  1.2749  0.6178 -1.1859
   73MOL   H10526169   2.841   7.379   3.788 -1.5975 -1.5640  1.8550
   73MOL   H10626170   3.016   7.582   3.921 -0.5226 -0.2131 -0.0316
   73MOL   H10726171   2.974   7.575   3.752  0.6730  1.1418  0.9386
   73MOL   H10826172   3.200   7.468   3.787 -0.8807  1.8238 -1.5101
   73MOL   H10926173   3.113   7.357   3.900 -0.7526 -1.6814 -1.2543
   73MOL   C11026174   3.064   7.386   3.582 -0.0330  0.2340 -0.1493
   73MOL   O11126175   3.103   7.499   3.556  0.0280  0.5424  0.2747
   73MOL   C11226176   3.022   7.287   3.476  0.9916 -0.4177  0.4519
   73MOL   C11326177   3.077   7.318   3.338 -1.0660 -0.8032 -0.6676
   73MOL   C11426178   3.011   7.222   3.238 -1.3042 -0.3952 -0.3669
   73MOL   C11526179   3.085   7.231   3.105  0.3015 -0.2396 -0.6019
   73MOL   C11626180   3.044   7.116   3.012  0.1684  0.1770 -0.5586
   73MOL   O11726181   3.146   7.084   2.919 -0.2068 -0.5332  0.0051
   73MOL   H11826182   2.914   7.293   3.464  0.8084  2.2208  2.8120
   73MOL   H11926183   3.039   7.189   3.521 -0.6301  0.1077  2.3129
   73MOL   H12026184   3.183   7.299   3.325 -1.2218 -2.3563  0.1412
   73MOL   H12126185   3.071   7.422   3.306  0.1758 -0.4065  0.3602
   73MOL   H12226186   2.909   7.257   3.222 -1.3767 -1.7179 -2.9472
   73MOL   H12326187   2.995   7.119   3.271 -0.8895 -0.8695 -1.6285
   73MOL   H12426188   3.190   7.216   3.129  0.5226  1.9008 -0.0939
   73MOL   H12526189   3.064   7.326   3.055  3.2211  1.1546  0.6587
   73MOL   H12626190   3.016   7.028   3.070 -0.8315 -0.1853 -1.5559
   73MOL   H12726191   2.961   7.155   2.952 -2.0779 -0.9486  1.7138
   73MOL   C12826192   3.131   7.001   2.812 -0.5921  0.2933 -0.1105
   73MOL   O12926193   3.028   6.950   2.772  0.0360  0.2875 -1.4187
   73MOL   C13026194   3.258   6.958   2.750  0.3041 -0.6028  0.0756
   73MOL   C13126195   3.358   6.877   2.828 -1.0994  0.8390  0.9054
   73MOL   C13226196   3.410   6.957   2.944  0.4078 -1.1706 -0.1778
   73MOL   C13326197   3.546   6.900   2.989  0.0610  0.6499 -0.6637
   73MOL   C13426198   3.590   6.955   3.120 -0.2299 -0.2274  0.0898
   73MOL   O13526199   3.648   7.079   3.093  0.2122 -0.0482 -0.2644
   73MOL   H13626200   3.298   7.050   2.707 -0.3833 -0.7996 -0.9790
   73MOL   H13726201   3.238   6.897   2.662  0.6974 -0.5942 -0.0231
   73MOL   H13826202   3.450   6.860   2.773 -2.2463 -1.6650 -0.3580
   73MOL   H13926203   3.311   6.791   2.878  0.2147  0.4846  1.5485
   73MOL   H14026204   3.329   6.952   3.016 -0.0681  1.1921 -0.5079
   73MOL   H14126205   3.420   7.060   2.909 -0.8552 -0.6373  1.0062
   73MOL   H14226206   3.619   6.916   2.910 -1.0213  2.3705 -1.3621
   73MOL   H14326207   3.524   6.794   2.989 -0.2724  0.7001  2.0290
   73MOL   H14426208   3.509   6.974   3.191 -1.1314 -0.5858 -0.8205
   73MOL   H14526209   3.656   6.889   3.176 -1.5153 -0.5731  1.2383
   73MOL   C14626210   3.692   7.155   3.199  0.6885 -0.0063 -0.3665
   73MOL   O14726211   3.717   7.114   3.315  0.0608 -0.2673  0.1430
   73MOL   C14826212   3.716   7.306   3.170  0.1268  0.4145 -0.1649
   73MOL   C14926213   3.586   7.384   3.131 -0.2417 -0.4542  0.2791
   73MOL   C15026214   3.548   7.377   2.983  0.4484  0.6115 -0.2252
   73MOL   C15126215   3.411   7.451   2.967  0.0886  0.0361  0.1867
   73MOL   C15226216   3.341   7.436   2.824  0.5897  0.7741  0.3391
   73MOL   O15326217   3.413   7.473   2.706 -0.6223  0.7140  0.3154
   73MOL   H15426218   3.787   7.319   3.089  0.9513  0.1159  0.4972
   73MOL   H15526219   3.755   7.367   3.252 -1.9774  2.2922 -0.5243
   73MOL   H15626220   3.598   7.492   3.147 -0.7257 -0.2771 -0.5119
   73MOL   H15726221   3.506   7.358   3.199  1.1300  0.7990  2.4474
   73MOL   H15826222   3.530   7.271   2.966 -0.0676  0.4546  1.2216
   73MOL   H15926223   3.636   7.407   2.925 -0.1057  1.5986 -0.5607
   73MOL   H16026224   3.424   7.556   2.990 -0.2567 -0.0417  0.7416
   73MOL   H16126225   3.345   7.411   3.044 -0.7952  0.0177 -0.5760
   73MOL   H16226226   3.315   7.330   2.818 -1.0505  0.9787  2.9304
   73MOL   H16326227   3.247   7.491   2.816  0.3860  0.6229  1.4979
   73MOL   C16426228   3.451   7.599   2.690 -0.0711 -0.3958  0.1583
   73MOL   O16526229   3.422   7.687   2.773 -0.6120 -0.2853 -0.3305
   73MOL   C16626230   3.538   7.625   2.568  0.0438  0.1792 -0.4252
   73MOL   C16726231   3.603   7.769   2.554 -1.1521 -0.3664  0.5106
   73MOL   C16826232   3.702   7.763   2.435 -0.0127 -0.0207  0.3462
   73MOL   C16926233   3.797   0.042   2.427  0.0973 -0.3655 -0.5719
   73MOL   C17026234   3.728   0.172   2.368  0.5749  0.2850 -0.4204
   73MOL   O17126235   3.806   0.290   2.398  0.1178  0.0587 -0.0038
   73MOL   H17226236   3.488   7.604   2.474 -1.0936  2.2766 -0.3182
   73MOL   H17326237   3.622   7.555   2.567 -0.3565 -0.3175 -0.0808
   73MOL   H17426238   3.642   7.796   2.652  1.1537 -1.8932  0.0717
   73MOL   H17526239   3.529   0.002   2.535 -0.8861 -0.3093 -0.3503
   73MOL   H17626240   3.655   7.755   2.337 -0.4168  0.2756  0.5171
   73MOL   H17726241   3.766   7.676   2.452 -2.2617 -1.8823 -0.3688
   73MOL   H17826242   3.883   0.014   2.366 -0.3702 -2.8801 -0.1092
   73MOL   H17926243   3.826   0.048   2.532  0.3506  2.8033 -0.7873
   73MOL   H18026244   3.707   0.165   2.261 -1.2769 -2.7930  0.0928
   73MOL   H18126245   3.630   0.190   2.414 -0.1987 -0.6784 -1.6545
   73MOL   C18226246   3.754   0.413   2.394 -0.3622 -0.4860 -0.7004
   73MOL   O18326247   3.642   0.443   2.355  0.5622  0.5915 -0.6553
   73MOL   C18426248   3.850   0.521   2.433  0.0125 -0.3351 -0.0759
   73MOL   C18526249   3.827   0.651   2.345  1.3359  0.0196  0.0311
   73MOL   C18626250   3.950   0.747   2.351 -0.1654 -0.6869  0.1784
   73MOL   C18726251   3.920   0.881   2.286  0.5292  0.9044  0.7093
   73MOL   C18826252   4.027   0.986   2.282 -0.5346  0.6489 -0.4392
   73MOL   O18926253   4.079   1.027   2.407  0.3864  0.6626  0.1350
   73MOL   H19026254   3.953   0.490   2.414 -0.3241 -0.9414 -0.9751
   73MOL   H19126255   3.832   0.538   2.539  0.0194 -2.4769  0.2879
   73MOL   H19226256   3.736   0.692   2.389  1.8239 -0.3916  1.4415
   73MOL   H19326257   3.801   0.626   2.242 -2.3135  3.0453  0.1122
   73MOL   H19426258   4.036   0.695   2.310  1.3269  0.5835  1.6324
   73MOL   H19526259   3.984   0.760   2.454  1.8286 -2.8228 -0.1687
   73MOL   H19626260   3.837   0.929   2.338  0.0715  1.8816 -0.8971
   73MOL   H19726261   3.889   0.875   2.182  1.4589  0.5070  0.4528
   73MOL   H19826262   4.109   0.932   2.234  0.4355 -0.5856  2.5052
   73MOL   H19926263   4.007   1.074   2.220 -0.6859  2.0877  1.5969
   73MOL   C20026264   4.206   1.013   2.442  0.5382 -0.0579  0.0185
   73MOL   O20126265   4.289   0.954   2.371 -0.6985 -0.3374  0.1140
   73MOL   C20226266   4.231   1.047   2.589  0.0979 -0.1505 -0.5811
   73MOL   C20326267   4.146   0.976   2.696  0.3453 -1.1221 -0.6984
   73MOL   C20426268   4.202   0.839   2.744 -0.0755 -0.4968 -0.2650
   73MOL   C20526269   4.167   0.723   2.658  0.5297  0.0908  0.1838
   73MOL   C20626270   4.237   0.599   2.702  0.1659 -0.1698 -0.9297
   73MOL   O20726271   4.216   0.494   2.612  0.1611  0.2848  0.5176
   73MOL   H20826272   4.212   1.154   2.591 -1.3137 -0.3957  0.3264
   73MOL   H20926273   4.337   1.036   2.607  0.5643  2.6988 -1.4118
   73MOL   H21026274   4.039   0.974   2.678  0.3390 -1.2405 -0.6501
   73MOL   H21126275   4.150   1.042   2.782 -0.0221 -0.2003 -1.3785
   73MOL   H21226276   4.181   0.825   2.850 -0.4005 -0.7931 -0.3712
   73MOL   H21326277   4.311   0.852   2.741 -0.0324 -1.3332 -3.3746
   73MOL   H21426278   4.176   0.736   2.550  0.8175 -1.0047  0.0624
   73MOL   H21526279   4.062   0.693   2.663  0.4899  0.2708  0.4392
   73MOL   H21626280   4.343   0.624   2.699 -0.1753  1.5699  0.5276
   73MOL   H21726281   4.212   0.564   2.802  0.4353 -0.9563 -1.1337
   73MOL   C21826282   4.318   0.415   2.584 -0.4943 -0.0407 -0.4197
   73MOL   O21926283   4.433   0.414   2.639 -0.6853 -0.1285  0.2290
   73MOL   C22026284   4.299   0.310   2.471  0.4042  0.7433  0.2502
   73MOL   C22126285   4.155   0.256   2.453 -0.1674  0.1103 -0.5962
   73MOL   C22226286   4.135   0.189   2.320 -0.0083 -0.4472 -0.8941
   73MOL   C22326287   4.215   0.062   2.313 -0.8160  0.2596 -0.5922
   73MOL   C22426288   4.179   7.820   2.191 -0.4080 -0.3851 -0.6004
   73MOL   O22526289   4.193   0.059   2.068 -0.2703 -0.3258 -0.1732
   73MOL   H22626290   4.362   0.229   2.506 -1.9755 -1.2161  0.1467
   73MOL   H22726291   4.343   0.353   2.381  1.6497  0.1238  0.5512
   73MOL   H22826292   4.086   0.340   2.457 -1.4188 -0.9204  0.6406
   73MOL   H22926293   4.131   0.191   2.538  0.6130 -0.2213 -0.6338
   73MOL   H23026294   4.160   0.267   2.248 -1.2339  3.1009  2.3331
   73MOL   H23126295   4.029   0.168   2.301  0.3348 -0.9940 -2.2093
   73MOL   H23226296   4.199   7.839   2.398  2.7965  0.5683  0.4611
   73MOL   H23326297   4.322   0.084   2.310 -0.2012 -2.2452  0.8512
   73MOL   H23426298   4.245   7.734   2.178  0.9523  0.4922  0.4288
   73MOL   H23526299   4.085   7.768   2.213 -0.3844 -0.2414 -0.1726
   73MOL   C23626300   4.085   0.089   2.008  0.2254  0.0331 -0.5919
   73MOL   O23726301   3.977   0.034   2.037  0.4040  0.2436 -0.0982
   73MOL   C23826302   4.098   0.177   1.884  0.0425  0.5970 -0.6448
   73MOL   C23926303   4.029   0.118   1.760  0.6169 -0.5082 -0.1569
   73MOL   C24026304   4.087   7.829   1.711 -0.8579  0.4378 -0.5924
   73MOL   C24126305   4.025   7.783   1.581  0.1980  0.2329 -0.5966
   73MOL   C24226306   4.107   7.677   1.500 -1.1597 -0.4342 -0.2664
   73MOL   O24326307   4.048   7.662   1.369 -0.2816 -0.3647  0.1743
   73MOL   H24426308   4.201   0.200   1.856  0.2949  0.0918 -0.1243
   73MOL   H24526309   4.056   0.272   1.918  2.2477  0.6392  2.1088
   73MOL   H24626310   4.029   0.198   1.686 -0.5058 -0.4722 -0.1319
   73MOL   H24726311   3.923   0.100   1.778  0.1604 -0.1209 -2.3192
   73MOL   H24826312   4.088   7.758   1.793 -0.6202  0.9334 -0.1639
   73MOL   H24926313   4.195   7.843   1.706 -0.6490 -0.9297 -0.1201
   73MOL   H25026314   4.008   0.022   1.514  1.8556  2.5298  1.7559
   73MOL   H25126315   3.927   7.743   1.608 -0.7085  0.4115 -3.4206
   73MOL   H25226316   4.205   7.722   1.485 -0.9747 -0.5623  0.5227
   73MOL   H25326317   4.113   7.582   1.555  0.9999  0.0690  0.4323
   73MOL   C25426318   4.105   7.601   1.272 -0.3763  0.3132 -0.1312
   73MOL   O25526319   4.224   7.565   1.272 -0.0506 -0.3270 -0.4193
   73MOL   C25626320   4.026   7.600   1.148  0.4075 -0.1446  0.3325
   73MOL   C25726321   4.071   7.702   1.033 -0.3591  0.1706 -0.5980
   73MOL   C25826322   4.068   0.004   1.076 -0.3278 -0.8675  0.2808
   73MOL   C25926323   4.064   0.092   0.952  0.2632  0.7889  0.2387
   73MOL   C26026324   4.049   0.234   0.998 -0.4919 -0.1301 -0.5858
   73MOL   O26126325   4.149   0.276   1.083 -0.3649  0.3183 -0.4074
   73MOL   H26226326   3.919   7.599   1.164  0.6171 -0.6159  1.7540
   73MOL   H26326327   4.039   7.502   1.102 -2.0256 -0.4776  0.2909
   73MOL   H26426328   4.001   7.698   0.950 -0.1721  2.2171 -0.8673
   73MOL   H26526329   4.177   7.681   1.019  0.8300  3.3972  2.7636
   73MOL   H26626330   4.146   0.019   1.151 -0.9074  0.4337  0.6382
   73MOL   H26726331   3.984   0.025   1.143 -1.2519  3.6622 -2.1171
   73MOL   H26826332   3.983   0.071   0.883  2.5905  0.3737 -2.4820
   73MOL   H26926333   4.155   0.088   0.892 -1.0280  1.4039 -1.8226
   73MOL   H27026334   4.039   0.289   0.904 -3.8417 -0.1115 -0.2759
   73MOL   H27126335   3.952   0.235   1.048  0.2164  0.0818  0.8043
   73MOL   C27226336   4.216   0.388   1.062  0.9468 -0.0786  0.4636
   73MOL   O27326337   4.184   0.475   0.979 -0.2269  0.5687 -0.3690
   73MOL   C27426338   4.330   0.409   1.162 -1.1644 -0.1465 -0.4818
   73MOL   C27526339   4.300   0.402   1.311  0.7715 -0.0986  0.9880
   73MOL   C27626340   4.211   0.521   1.359  0.0552  0.0833 -0.7114
   73MOL   C27726341   4.161   0.514   1.503  0.2567 -0.0037 -1.0733
   73MOL   C27826342   4.087   0.644   1.550  0.3818 -0.0201  0.3525
   73MOL   O27926343   4.049   0.652   1.690 -0.1442 -0.2719  0.1679
   73MOL   H28026344   4.374   0.506   1.139 -1.4375 -0.1599 -1.0385
   73MOL   H28126345   4.396   0.327   1.132  1.4359  1.4489  0.6448
   73MOL   H28226346   4.392   0.383   1.366  0.6340 -2.4420  0.4776
   73MOL   H28326347   4.256   0.308   1.344 -0.4305 -0.0145 -0.3387
   73MOL   H28426348   4.125   0.536   1.293 -1.4500  0.7718  1.3607
   73MOL   H28526349   4.263   0.617   1.355  1.8068 -0.7679  1.0826
   73MOL   H28626350   4.242   0.489   1.571 -1.0798 -0.4687  0.3643
   73MOL   H28726351   4.088   0.433   1.506 -0.1161  0.2828 -2.0903
   73MOL   H28826352   4.148   0.732   1.527  1.0283 -0.1727  1.4829
   73MOL   H28926353   4.000   0.659   1.485  0.5726 -0.9459 -0.1173
   73MOL   C29026354   4.138   0.692   1.781 -0.2614 -0.0009  0.5979
   73MOL   O29126355   4.255   0.715   1.755 -0.6118 -0.1115 -0.3417
   73MOL   C29226356   4.079   0.704   1.918 -0.3924  0.1562  0.1509
   73MOL   C29326357   4.139   0.615   2.026  0.0394 -0.1672 -0.4482
   73MOL   C29426358   4.266   0.675   2.091 -0.3204  0.1174 -0.0955
   73MOL   C29526359   4.346   0.589   2.183  0.0936  0.3047 -0.5021
   73MOL   C29626360   4.483   0.657   2.219 -0.1861 -0.0905  0.0767
   73MOL   O29726361   4.542   0.558   2.305  0.0885  0.8016  0.3692
   73MOL   H29826362   3.976   0.675   1.898 -0.4782 -0.2569  1.1573
   73MOL   H29926363   4.072   0.804   1.962  1.1355 -0.1101  1.0139
   73MOL   H30026364   4.156   0.519   1.978 -3.5164 -1.3985  0.5564
   73MOL   H30126365   4.062   0.604   2.103  1.4225  0.7590  1.0994
   73MOL   H30226366   4.252   0.772   2.140 -1.2641 -0.6949  1.2738
   73MOL   H30326367   4.330   0.690   2.005  0.8334 -1.0301  0.5518
   73MOL   H30426368   4.358   0.494   2.130 -0.3286  0.3941 -0.7584
   73MOL   H30526369   4.291   0.568   2.275  2.4313 -0.2389  0.8191
   73MOL   H30626370   4.550   0.687   2.138 -0.0564  0.6622  0.4601
   73MOL   H30726371   4.472   0.747   2.279 -0.8045 -0.4113  0.4550
   73MOL   C30826372   4.667   0.514   2.281  0.2044  0.0524 -0.3870
   73MOL   O30926373   4.747   0.562   2.205 -0.4283 -0.6067 -0.4953
   73MOL   C31026374   4.713   0.407   2.372  0.4618  0.4525  0.0197
   73MOL   C31126375   4.814   0.457   2.479 -0.2928 -0.0274  0.2691
   73MOL   C31226376   4.803   0.372   2.599  0.5296 -0.4206  1.0529
   73MOL   C31326377   4.860   0.445   2.718  0.2495 -0.1359  0.1921
   73MOL   C31426378   4.848   0.391   2.861  0.4072 -0.0941  0.4020
   73MOL   O31526379   4.719   0.411   2.919  0.1575 -0.7205 -0.2226
   73MOL   H31626380   4.747   0.315   2.324 -0.7729  0.7266 -1.3970
   73MOL   H31726381   4.628   0.385   2.436  1.2562 -0.6700  0.7236
   73MOL   H31826382   4.775   0.554   2.508 -0.2678 -0.1246  0.6340
   73MOL   H31926383   4.917   0.473   2.446 -0.3844 -1.7797 -0.9426
   73MOL   H32026384   4.850   0.279   2.564 -0.4275  0.5118 -2.9400
   73MOL   H32126385   4.702   0.335   2.615 -0.3732  1.5986  0.1301
   73MOL   H32226386   4.824   0.548   2.727  1.1735  0.0273  2.1429
   73MOL   H32326387   4.967   0.457   2.706  0.0993  0.9224 -0.1263
   73MOL   H32426388   4.874   0.287   2.881  1.7919 -0.0610 -1.1574
   73MOL   H32526389   4.910   0.451   2.928 -1.1123  1.2287  0.6315
   73MOL   C32626390   4.630   0.313   2.926 -0.6011  0.3308  0.0886
   73MOL   O32726391   4.634   0.201   2.872  0.6574 -0.3219  0.1188
   73MOL   C32826392   4.506   0.371   2.998 -0.2250  0.3206 -0.0825
   73MOL   C32926393   4.391   0.281   2.966  0.4582  0.2052  0.0801
   73MOL   C33026394   4.263   0.327   3.042  0.5053  0.4940 -0.0376
   73MOL   C33126395   4.123   0.269   2.993  0.3368 -0.0110  0.0372
   73MOL   C33226396   4.091   0.284   2.839  0.4522  0.0304 -0.0574
   73MOL   O33326397   3.969   0.219   2.806  0.0748 -0.0929 -0.0273
   73MOL   H33426398   4.476   0.470   2.965 -1.7115  0.2649  1.0382
   73MOL   H33526399   4.522   0.376   3.106  0.4343 -0.5683 -0.1327
   73MOL   H33626400   4.404   0.176   2.993  0.5781 -0.2637 -1.7546
   73MOL   H33726401   4.363   0.289   2.862 -0.8681 -0.4300  0.3807
   73MOL   H33826402   4.262   0.435   3.032  0.8505  0.4763 -0.2622
   73MOL   H33926403   4.276   0.294   3.145 -3.6054  0.1609  0.4483
   73MOL   H34026404   4.052   0.314   3.061  0.8759  2.4845 -1.0022
   73MOL   H34126405   4.123   0.162   3.013  1.4823 -0.1156 -0.4533
   73MOL   H34226406   4.096   0.381   2.790  2.1151  0.5933  1.1720
   73MOL   H34326407   4.165   0.228   2.781  1.2495  0.1520  0.8342
   73MOL   C34426408   3.861   0.297   2.796  0.3819  0.4367  0.5323
   73MOL   O34526409   3.867   0.418   2.815 -0.2143  0.1950  0.1843
   73MOL   C34626410   3.728   0.232   2.762 -0.1313  0.2272 -0.4766
   73MOL   C34726411   3.607   0.288   2.835  0.4429  0.2916  0.0708
   73MOL   C34826412   3.487   0.197   2.830 -0.4352 -0.2842  0.3157
   73MOL   C34926413   3.381   0.232   2.932 -0.5811 -0.3187  0.1412
   73MOL   C35026414   3.260   0.138   2.936  0.2097 -0.1494  0.2600
   73MOL   O35126415   3.305   0.018   2.993 -0.2301  0.0782 -0.1489
   73MOL   H35226416   3.741   0.126   2.782  2.1417  0.3583 -1.0225
   73MOL   H35326417   3.704   0.240   2.655  0.3161 -0.1209 -0.6045
   73MOL   H35426418   3.590   0.391   2.802  0.4892 -0.2033 -1.5382
   73MOL   H35526419   3.627   0.289   2.942  0.6158 -1.7452  0.0815
   73MOL   H35626420   3.527   0.097   2.844  1.4873  0.2200 -1.3398
   73MOL   H35726421   3.458   0.191   2.725 -1.2270 -1.5987  0.5986
   73MOL   H35826422   3.348   0.335   2.919  0.3367 -0.2510 -1.7441
   73MOL   H35926423   3.421   0.237   3.033  0.9255  0.0092 -0.4693
   73MOL   H36026424   3.182   0.181   2.998  0.7719  0.9085  0.2593
   73MOL   H36126425   3.220   0.115   2.838  1.0813 -0.1334 -0.1093
   73MOL   H36226426   3.365   7.822   2.933  0.6393 -1.4442  1.7280
   74MOL     C126427   1.393   0.443   2.972 -0.1645 -0.4169 -0.2070
   74MOL     O226428   1.363   0.461   2.850  0.2576  0.6826  0.7626
   74MOL     C326429   1.298   0.366   3.067 -0.1519 -0.0747 -0.1901
   74MOL     C426430   1.152   0.418   3.049  0.1403  0.2557  0.4819
   74MOL     C526431   1.069   0.349   2.944 -0.7265  0.8008 -0.5205
   74MOL     C626432   0.934   0.407   2.919  0.1055 -0.1631 -0.9098
   74MOL     C726433   0.945   0.526   2.821 -0.5481 -0.2240  0.1623
   74MOL     O826434   0.907   0.642   2.897  0.4223 -0.7911 -0.2525
   74MOL     H926435   1.331   0.381   3.170 -0.9946  0.8553 -0.0497
   74MOL    H1026436   1.307   0.258   3.052 -0.1122  0.1805 -2.0730
   74MOL    H1126437   1.153   0.527   3.037  0.2234  0.4815  2.4779
   74MOL    H1226438   1.106   0.406   3.147 -0.9653 -0.9342 -0.1711
   74MOL    H1326439   1.054   0.247   2.982  1.2452  1.1860  1.4445
   74MOL    H1426440   1.123   0.337   2.850  0.7914  2.2339  0.1394
   74MOL    H1526441   0.882   0.430   3.011 -0.0473 -2.9147 -0.2669
   74MOL    H1626442   0.873   0.324   2.882 -0.7820 -0.1724  0.5514
   74MOL    H1726443   1.051   0.537   2.798 -0.0569 -0.8553  2.0092
   74MOL    H1826444   0.876   0.512   2.738 -2.1629  0.3315  1.3801
   74MOL    H1926445   1.490   0.476   3.009 -0.9512  0.7872  0.8244
   74MOL    C2026446   0.914   0.768   2.843  0.0499 -0.6603  0.2390
   74MOL    O2126447   0.995   0.805   2.758  0.1043 -0.5605  0.5435
   74MOL    C2226448   0.815   0.862   2.901  0.7978  0.5739  0.4806
   74MOL    C2326449   0.752   0.953   2.795  0.4234  0.2071  0.0317
   74MOL    C2426450   0.607   0.997   2.832  0.0383 -0.4615 -0.3050
   74MOL    C2526451   0.545   1.089   2.730 -0.3375 -0.3772 -0.0028
   74MOL    C2626452   0.462   1.017   2.621  0.2594  0.2666 -0.0636
   74MOL    O2726453   0.553   0.948   2.535  0.2756  0.7322  0.2548
   74MOL    H2826454   0.848   0.915   2.990  1.5570 -1.1560  1.2709
   74MOL    H2926455   0.740   0.796   2.944  1.5601 -0.0686  0.8496
   74MOL    H3026456   0.751   0.911   2.695  0.1683 -1.3792  0.6979
   74MOL    H3126457   0.802   1.050   2.797  0.7483  0.0462  3.6126
   74MOL    H3226458   0.618   1.056   2.923 -0.6362 -0.3121 -0.3207
   74MOL    H3326459   0.543   0.910   2.845 -0.5859  0.5008  3.7956
   74MOL    H3426460   0.616   1.164   2.695 -1.9080  1.4592  0.6615
   74MOL    H3526461   0.468   1.147   2.780  2.3990  3.0761  0.3560
   74MOL    H3626462   0.398   0.943   2.669  0.0307 -0.2969 -1.2175
   74MOL    H3726463   0.394   1.076   2.559 -1.3548 -1.2412  0.2175
   74MOL    C3826464   0.609   1.007   2.427 -0.1054 -0.3496 -0.8280
   74MOL    O3926465   0.593   1.127   2.397 -0.0645  0.3537  0.3959
   74MOL    C4026466   0.695   0.912   2.335  0.4078 -0.1622  0.6932
   74MOL    C4126467   0.816   0.843   2.400  0.7639 -0.7118  0.0477
   74MOL    C4226468   0.908   0.788   2.289  0.5860 -0.2110  0.2867
   74MOL    C4326469   1.037   0.727   2.348 -0.4232  0.6280  0.3108
   74MOL    C4426470   1.107   0.638   2.244 -0.3084 -0.0687 -0.2892
   74MOL    O4526471   1.128   0.705   2.119 -0.2865 -0.1724  0.9049
   74MOL    H4626472   0.719   0.985   2.258 -0.4414  0.2224  0.7935
   74MOL    H4726473   0.635   0.838   2.282  0.2355  0.8921 -0.5937
   74MOL    H4826474   0.772   0.768   2.466 -1.7045 -0.2939 -1.0782
   74MOL    H4926475   0.869   0.916   2.462 -0.4232  0.8124 -0.6897
   74MOL    H5026476   0.931   0.866   2.216  0.9176 -0.3233  0.2707
   74MOL    H5126477   0.845   0.712   2.244 -0.1104  0.5259  0.0074
   74MOL    H5226478   1.034   0.669   2.440 -1.4900  2.6049  1.5515
   74MOL    H5326479   1.108   0.807   2.369 -0.1820  0.6870 -0.7225
   74MOL    H5426480   1.204   0.609   2.284  0.0810  0.7379 -0.6354
   74MOL    H5526481   1.043   0.550   2.233  0.9013 -1.0504  0.4364
   74MOL    C5626482   1.088   0.648   2.005  0.5245  0.1719 -0.2376
   74MOL    O5726483   1.056   0.529   1.989 -0.1102 -0.8873 -0.3430
   74MOL    C5826484   1.090   0.747   1.886  0.2058  0.8819 -1.0184
   74MOL    C5926485   0.989   0.853   1.911 -0.3818 -0.2664  0.5677
   74MOL    C6026486   0.847   0.797   1.937 -0.2140  0.4031  0.0012
   74MOL    C6126487   0.755   0.918   1.950  0.3704  0.5314 -0.4631
   74MOL    C6226488   0.612   0.874   1.950  0.4645 -0.2113  0.4070
   74MOL    O6326489   0.594   0.777   2.055  0.1580 -0.0843 -0.3548
   74MOL    H6426490   1.059   0.701   1.793  2.6133 -2.2382 -0.3320
   74MOL    H6526491   1.187   0.795   1.870  0.1087  1.0927 -0.9852
   74MOL    H6626492   0.987   0.917   1.823  0.1038  1.5099  1.8165
   74MOL    H6726493   1.033   0.920   1.985  0.2515 -1.9502  1.7251
   74MOL    H6826494   0.835   0.750   2.035  1.2689 -1.6832 -0.7993
   74MOL    H6926495   0.816   0.722   1.865 -1.3689 -0.4283  1.3270
   74MOL    H7026496   0.779   0.985   1.867 -1.8814  0.5999 -1.0913
   74MOL    H7126497   0.783   0.968   2.042 -1.4656 -0.5738  0.7220
   74MOL    H7226498   0.557   0.967   1.964  0.2217 -0.5494  1.7521
   74MOL    H7326499   0.590   0.837   1.850  2.1590  1.2693 -0.5413
   74MOL    C7426500   0.482   0.703   2.046 -0.0139  0.2886  0.8438
   74MOL    O7526501   0.390   0.711   1.956  0.7183  0.4834 -0.5017
   74MOL    C7626502   0.479   0.602   2.159 -0.7392 -1.0402  0.2485
   74MOL    C7726503   0.608   0.528   2.209 -0.5718  0.3043  0.1412
   74MOL    C7826504   0.687   0.456   2.095  0.1538  0.4774 -0.2669
   74MOL    C7926505   0.802   0.370   2.139  0.1376 -0.7595 -0.1280
   74MOL    C8026506   0.856   0.284   2.028  0.8096  0.5130  0.1673
   74MOL    O8126507   0.967   0.206   2.064  0.0324 -0.0210 -0.1209
   74MOL    H8226508   0.401   0.532   2.130 -2.8730  1.7055 -0.9272
   74MOL    H8326509   0.442   0.653   2.248  0.9831  0.1110  0.3204
   74MOL    H8426510   0.587   0.460   2.292  0.7433  0.5383  0.6836
   74MOL    H8526511   0.672   0.595   2.267  1.6180  0.0987 -1.9660
   74MOL    H8626512   0.734   0.535   2.037  2.6980  0.0133  1.1162
   74MOL    H8726513   0.605   0.419   2.032 -1.7329  2.6214  0.8586
   74MOL    H8826514   0.755   0.299   2.207 -2.6057 -0.3061 -1.4740
   74MOL    H8926515   0.873   0.429   2.196  1.4165 -1.7439 -0.6684
   74MOL    H9026516   0.781   0.226   1.975 -0.7766  3.6592 -1.1890
   74MOL    H9126517   0.887   0.358   1.954 -0.5980  0.4744 -0.4871
   74MOL    C9226518   0.957   0.074   2.102  0.3574 -0.4922 -0.4503
   74MOL    O9326519   0.847   0.019   2.122  0.0025  0.0780  0.0263
   74MOL    C9426520   1.095   0.007   2.125 -0.1015 -0.2636  0.6179
   74MOL    C9526521   1.181   7.830   1.995 -0.1880 -0.4542 -0.0803
   74MOL    C9626522   1.226   0.121   1.936  0.8440  0.2217 -1.5267
   74MOL    C9726523   1.298   0.083   1.804 -0.2582  0.4399  0.4129
   74MOL    C9826524   1.337   0.211   1.732  0.5427 -0.2463  0.4027
   74MOL    O9926525   1.443   0.277   1.801  0.0434  0.4148 -0.2283
   74MOL   H10026526   1.078   7.761   2.183 -0.4819 -2.0028 -2.0792
   74MOL   H10126527   1.156   0.080   2.178  1.0944 -1.2626  0.6438
   74MOL   H10226528   1.113   7.779   1.927 -1.4846  0.2748  0.6493
   74MOL   H10326529   1.265   7.772   2.031  1.2060  1.0949 -0.7585
   74MOL   H10426530   1.293   0.166   2.010 -0.4730 -0.5052  0.1255
   74MOL   H10526531   1.154   0.199   1.911 -0.3185 -0.1538  0.5363
   74MOL   H10626532   1.235   0.026   1.736 -1.2126  2.7688 -0.7120
   74MOL   H10726533   1.376   0.009   1.822 -2.4294 -1.7730  0.8862
   74MOL   H10826534   1.368   0.186   1.631  0.2406  0.2358  0.1919
   74MOL   H10926535   1.259   0.285   1.718  0.1258 -1.0924 -2.0026
   74MOL   C11026536   1.569   0.228   1.777 -0.3088 -0.0616 -0.2710
   74MOL   O11126537   1.607   0.129   1.716  0.5158  0.3574 -0.0799
   74MOL   C11226538   1.681   0.311   1.838 -0.3897  0.1039  0.6745
   74MOL   C11326539   1.676   0.347   1.982 -0.4442 -0.1195 -0.2447
   74MOL   C11426540   1.683   0.229   2.080  0.3125  0.2272 -0.3217
   74MOL   C11526541   1.551   0.168   2.113  0.5651 -0.2805  0.1005
   74MOL   C11626542   1.566   0.104   2.258  0.2750 -0.0738 -0.4556
   74MOL   O11726543   1.642   7.829   2.274  0.1502 -0.1765 -0.3253
   74MOL   H11826544   1.683   0.408   1.788  1.1837  0.0136  0.5305
   74MOL   H11926545   1.775   0.264   1.809 -1.5330  0.2610 -3.4673
   74MOL   H12026546   1.580   0.398   1.981 -0.2456  0.3285  1.5091
   74MOL   H12126547   1.763   0.412   1.992  0.1394 -0.8612 -0.4867
   74MOL   H12226548   1.741   0.268   2.164 -0.8987 -0.2581  0.7638
   74MOL   H12326549   1.737   0.148   2.031 -1.2551  0.2532 -2.1335
   74MOL   H12426550   1.508   0.101   2.038  0.3965 -1.7821  1.5249
   74MOL   H12526551   1.474   0.246   2.117  0.9167  0.2065 -1.9776
   74MOL   H12626552   1.602   0.177   2.330  0.1983 -0.9541  0.4933
   74MOL   H12726553   1.463   0.087   2.289  0.8055 -0.4804  1.0917
   74MOL   C12826554   1.619   7.710   2.209 -0.1011  0.0328  0.2994
   74MOL   O12926555   1.544   7.699   2.111 -0.7131  0.1413  0.2663
   74MOL   C13026556   1.675   7.588   2.284  0.0063  0.5449  0.2627
   74MOL   C13126557   1.669   7.597   2.431  0.0002  0.0541 -0.0382
   74MOL   C13226558   1.703   7.464   2.496 -0.1213  0.5139 -0.3636
   74MOL   C13326559   1.650   7.454   2.636  0.5141  0.2679 -0.4984
   74MOL   C13426560   1.746   7.384   2.740 -0.4403  0.4092  0.2818
   74MOL   O13526561   1.856   7.476   2.757  0.2137  0.9043  0.9043
   74MOL   H13626562   1.781   7.574   2.264  0.0515  2.4691 -0.9842
   74MOL   H13726563   1.638   7.491   2.251  0.3711  0.6602 -0.4988
   74MOL   H13826564   1.569   7.624   2.467  0.0782 -0.6055  0.6910
   74MOL   H13926565   1.735   7.674   2.470 -0.6457  0.5655  0.0560
   74MOL   H14026566   1.810   7.445   2.488 -0.1874 -1.1342  2.3343
   74MOL   H14126567   1.658   7.387   2.433 -0.2062 -1.3165  1.8937
   74MOL   H14226568   1.555   7.403   2.622  0.0069  1.1119 -0.1996
   74MOL   H14326569   1.628   7.555   2.670  3.8560  0.7433  0.4375
   74MOL   H14426570   1.701   7.370   2.838  0.3709 -0.5086  0.5379
   74MOL   H14526571   1.796   7.292   2.708  0.7516  0.6310  1.4721
   74MOL   C14626572   1.900   7.495   2.882 -0.3035  0.2186 -0.6488
   74MOL   O14726573   1.867   7.435   2.983  0.0975 -0.4036 -0.1856
   74MOL   C14826574   1.997   7.613   2.890  0.5527 -0.6488 -0.0308
   74MOL   C14926575   1.989   7.708   3.016  0.6362 -0.4937  1.1898
   74MOL   C15026576   2.081   7.682   3.136 -1.1646  0.0258  0.1679
   74MOL   C15126577   2.225   7.722   3.090  0.3980 -0.0334 -0.1138
   74MOL   C15226578   2.319   7.733   3.212  0.2611  0.8985  0.0500
   74MOL   O15326579   2.452   7.774   3.177  0.2743 -0.2469 -0.5753
   74MOL   H15426580   1.980   7.677   2.804  0.2088 -1.3283 -0.4761
   74MOL   H15526581   2.098   7.578   2.871  0.2126 -0.2121 -2.7875
   74MOL   H15626582   1.883   7.703   3.041 -0.0667 -1.5520 -1.7507
   74MOL   H15726583   1.996   7.812   2.983 -1.0759 -0.5142  0.7038
   74MOL   H15826584   2.081   7.575   3.158  3.0789 -0.4844 -1.8023
   74MOL   H15926585   2.045   7.740   3.220  0.3557  0.8588  0.2694
   74MOL   H16026586   2.220   7.815   3.033 -0.5494 -0.2099 -0.3218
   74MOL   H16126587   2.276   7.655   3.021 -0.8808 -1.2617  0.1230
   74MOL   H16226588   2.276   7.795   3.292  1.7848  1.3215  0.5472
   74MOL   H16326589   2.329   7.636   3.261  0.6579  1.6567  1.5228
   74MOL   C16426590   2.475   0.053   3.158  0.0209  0.2896  0.5010
   74MOL   O16526591   2.395   0.144   3.157 -0.0336  0.0872 -0.2725
   74MOL   C16626592   2.621   0.072   3.119 -0.9878 -0.2619 -0.6433
   74MOL   C16726593   2.633   0.178   3.000 -0.1911  0.7558  0.2926
   74MOL   C16826594   2.586   0.122   2.868 -0.8308  0.4031 -0.2999
   74MOL   C16926595   2.603   0.232   2.761  0.8891 -0.2152 -0.6403
   74MOL   C17026596   2.625   0.178   2.619 -0.4976 -0.2690 -0.3894
   74MOL   O17126597   2.631   0.289   2.530 -0.1923  0.2593  0.5071
   74MOL   H17226598   2.666   7.819   3.102  3.7363  1.6038  0.5119
   74MOL   H17326599   2.676   0.106   3.207 -1.5190  3.9279 -1.8333
   74MOL   H17426600   2.739   0.201   2.992  0.0240  0.5118  2.3622
   74MOL   H17526601   2.578   0.265   3.037 -0.6272  0.3327  0.6387
   74MOL   H17626602   2.492   0.068   2.861  0.2773 -1.6163  0.1579
   74MOL   H17726603   2.652   0.037   2.848 -0.3499  0.1632  2.1794
   74MOL   H17826604   2.697   0.284   2.781  0.5562 -0.8601  3.0515
   74MOL   H17926605   2.525   0.308   2.768 -0.0510 -1.2074 -0.1529
   74MOL   H18026606   2.718   0.121   2.613  1.5046  2.9039 -0.8616
   74MOL   H18126607   2.542   0.115   2.589 -0.5203 -0.3657 -0.1263
   74MOL   C18226608   2.747   0.316   2.469  0.0083 -0.2675  0.3110
   74MOL   O18326609   2.855   0.265   2.494 -0.6058  0.1953 -0.0930
   74MOL   C18426610   2.731   0.426   2.364 -0.3306 -0.7418  0.2351
   74MOL   C18526611   2.847   0.529   2.352  0.2060 -0.4654 -0.2186
   74MOL   C18626612   2.854   0.638   2.458  0.4496 -0.7019 -0.3354
   74MOL   C18726613   2.994   0.709   2.465  0.3062  0.0468 -0.2875
   74MOL   C18826614   3.001   0.802   2.590  0.1912 -0.0983 -0.2022
   74MOL   O18926615   3.131   0.858   2.596 -0.7268  0.3841  0.0565
   74MOL   H19026616   2.636   0.474   2.385 -0.3364 -0.9997  0.8125
   74MOL   H19126617   2.712   0.377   2.268  1.4749  0.3382 -0.7009
   74MOL   H19226618   2.829   0.584   2.259 -0.8596  0.7513  0.6900
   74MOL   H19326619   2.945   0.483   2.337  1.5264  2.1558  0.0637
   74MOL   H19426620   2.828   0.600   2.557  3.0137 -0.8114  0.3490
   74MOL   H19526621   2.780   0.716   2.440  1.6114  0.2465 -1.1325
   74MOL   H19626622   3.004   0.765   2.372 -0.7671  1.2711  0.3178
   74MOL   H19726623   3.080   0.642   2.465  0.1259 -0.1871  0.2621
   74MOL   H19826624   2.920   0.874   2.581 -0.1834 -0.3203  1.2184
   74MOL   H19926625   2.984   0.748   2.683  0.8575  1.4500  0.8432
   74MOL   C20026626   3.166   0.962   2.533  0.0675 -0.0382 -0.2478
   74MOL   O20126627   3.088   1.038   2.474  0.3574  0.2689 -0.2065
   74MOL   C20226628   3.320   0.990   2.538  0.7761  0.3245  0.8736
   74MOL   C20326629   3.357   1.095   2.636 -0.8821  0.4357 -0.1605
   74MOL   C20426630   3.339   1.075   2.788  0.0211  0.1346 -0.8238
   74MOL   C20526631   3.433   1.162   2.876 -0.5072  0.0828 -0.3705
   74MOL   C20626632   3.362   1.286   2.933  1.0092  0.4242 -0.1290
   74MOL   O20726633   3.463   1.362   3.011 -0.1727 -0.1495  0.3210
   74MOL   H20826634   3.352   1.027   2.440  1.6663 -0.3764  0.8859
   74MOL   H20926635   3.380   0.901   2.556 -3.1295 -2.6969 -0.4247
   74MOL   H21026636   3.296   1.178   2.603 -1.4556  0.4595  0.9439
   74MOL   H21126637   3.461   1.114   2.610 -0.8161 -0.5404 -0.6556
   74MOL   H21226638   3.357   0.970   2.811 -0.2806  0.7459  2.4473
   74MOL   H21326639   3.236   1.089   2.820  0.0275 -1.0973 -0.2326
   74MOL   H21426640   3.521   1.189   2.818 -1.2804  1.7352 -0.7987
   74MOL   H21526641   3.468   1.099   2.957 -0.8648 -1.3946 -1.3358
   74MOL   H21626642   3.319   1.351   2.857  1.2685  0.9743  0.1876
   74MOL   H21726643   3.275   1.256   2.991 -1.5400  1.7193 -3.1377
   74MOL   C21826644   3.573   1.428   2.946  0.8506  0.7704 -0.6283
   74MOL   O21926645   3.573   1.448   2.825  0.2526  0.1260 -0.1944
   74MOL   C22026646   3.666   1.500   3.044  0.3610 -0.2649 -0.1089
   74MOL   C22126647   3.614   1.643   3.079  0.2763 -0.1987 -0.6077
   74MOL   C22226648   3.489   1.650   3.172 -0.1986  0.2493 -0.3555
   74MOL   C22326649   3.517   1.625   3.315 -0.5824 -0.3878  0.0510
   74MOL   C22426650   3.397   1.647   3.408  0.8486 -0.3000  0.2354
   74MOL   O22526651   3.441   1.685   3.537  0.2831 -0.1653  0.2110
   74MOL   H22626652   3.770   1.511   3.011  0.4025  1.3218  0.4618
   74MOL   H22726653   3.681   1.446   3.138 -2.4937  1.2460  1.2758
   74MOL   H22826654   3.581   1.693   2.988 -0.2528 -0.2088 -0.4259
   74MOL   H22926655   3.692   1.695   3.134 -0.7456 -1.3416  2.0157
   74MOL   H23026656   3.421   1.576   3.129  0.5301 -1.4163  1.2544
   74MOL   H23126657   3.454   1.752   3.158 -2.2403 -0.3282  0.4072
   74MOL   H23226658   3.599   1.691   3.344 -0.6201 -0.9214  1.4236
   74MOL   H23326659   3.548   1.521   3.317  0.9254  0.0703  1.0316
   74MOL   H23426660   3.329   1.727   3.378  1.4725 -0.3014 -1.2131
   74MOL   H23526661   3.343   1.554   3.389  2.2151 -0.6970 -1.8620
   74MOL   C23626662   3.392   1.620   3.648  0.2388 -0.1084 -0.2474
   74MOL   O23726663   3.306   1.531   3.644  0.2223  0.3757  0.2393
   74MOL   C23826664   3.455   1.671   3.778 -0.5179 -0.5645 -0.5083
   74MOL   C23926665   3.405   1.604   3.913 -0.3978 -0.8642  0.4326
   74MOL   C24026666   3.261   1.665   3.941 -0.8968  0.2572 -0.2660
   74MOL   C24126667   3.210   1.636   4.082 -0.5228 -0.1583  0.1892
   74MOL   C24226668   3.270   1.734   4.192  0.3876  0.1225 -0.1213
   74MOL   O24326669   3.226   1.695   4.318 -0.1803  0.2626 -0.3043
   74MOL   H24426670   3.459   1.779   3.776 -0.7161 -0.5475 -0.0566
   74MOL   H24526671   3.558   1.634   3.770 -0.9342 -1.6121 -1.0554
   74MOL   H24626672   3.475   1.619   3.996  0.1705 -0.1733 -0.1568
   74MOL   H24726673   3.408   1.498   3.887  2.9016 -0.7672  0.1184
   74MOL   H24826674   3.190   1.622   3.871 -1.3470  2.8926 -1.5188
   74MOL   H24926675   3.246   1.773   3.931  1.5210  0.6586  0.1242
   74MOL   H25026676   3.207   1.529   4.100 -0.9162 -0.7603 -3.1814
   74MOL   H25126677   3.104   1.664   4.087 -0.6120 -0.3488 -0.6554
   74MOL   H25226678   3.379   1.730   4.199  0.3707  1.5458  1.1691
   74MOL   H25326679   3.264   1.839   4.165 -0.7592 -0.1826 -1.0916
   74MOL   C25426680   3.307   1.701   4.430  0.0226  0.7414  0.1082
   74MOL   O25526681   3.423   1.753   4.431  0.2164  1.0584  0.5010
   74MOL   C25626682   3.247   1.644   4.556  0.4666  0.0589 -0.6928
   74MOL   C25726683   3.311   1.514   4.601  0.3023  0.4571  0.1580
   74MOL   C25826684   3.269   1.398   4.514 -0.0184 -0.1101 -0.7679
   74MOL   C25926685   3.316   1.264   4.573  0.6581 -0.0593  0.3591
   74MOL   C26026686   3.240   1.152   4.502 -0.1237 -0.2774 -0.4817
   74MOL   O26126687   3.289   1.030   4.535 -0.2906 -0.0900 -0.2567
   74MOL   H26226688   3.139   1.630   4.552  0.5976 -1.7328  1.0533
   74MOL   H26326689   3.268   1.725   4.626  2.1308 -1.5375  0.7035
   74MOL   H26426690   3.271   1.487   4.698  1.2718 -1.1424  0.1416
   74MOL   H26526691   3.419   1.527   4.612  0.5633 -0.7334 -0.9089
   74MOL   H26626692   3.297   1.410   4.409  1.3743 -2.2755 -0.6727
   74MOL   H26726693   3.160   1.396   4.521  0.0377  0.3397  0.2461
   74MOL   H26826694   3.295   1.259   4.680 -2.4772 -0.0645 -0.2252
   74MOL   H26926695   3.423   1.247   4.562  0.5217 -2.1270  1.9946
   74MOL   H27026696   3.132   1.156   4.520  0.2339  1.3483  1.4512
   74MOL   H27126697   3.256   1.170   4.396  3.9785 -0.4233  0.0269
   74MOL   C27226698   3.292   0.928   4.454  0.0410  0.1695 -0.2910
   74MOL   O27326699   3.251   0.932   4.335  0.7762 -0.1349  0.7633
   74MOL   C27426700   3.361   0.810   4.512 -0.0220  0.1370  0.2204
   74MOL   C27526701   3.499   0.846   4.563  0.9137  0.3310  0.0014
   74MOL   C27626702   3.579   0.727   4.626 -0.3150 -0.0020  0.4014
   74MOL   C27726703   3.730   0.771   4.649  0.6172 -0.4018 -0.6480
   74MOL   C27826704   3.819   0.643   4.669 -0.5224  0.1424  0.1873
   74MOL   O27926705   3.870   0.588   4.544  0.1078  0.4178 -0.4019
   74MOL   H28026706   3.379   0.739   4.431 -2.8220 -1.1948  0.7038
   74MOL   H28126707   3.305   0.760   4.591 -0.9822 -0.0337 -0.5637
   74MOL   H28226708   3.489   0.921   4.641 -1.1006  0.9611 -0.8432
   74MOL   H28326709   3.560   0.883   4.481 -0.9722  0.2700 -1.4616
   74MOL   H28426710   3.579   0.645   4.554  1.6296 -0.8123  1.2847
   74MOL   H28526711   3.527   0.687   4.713 -1.4262 -0.0463 -0.2748
   74MOL   H28626712   3.727   0.826   4.744 -1.5445  3.6209 -2.9251
   74MOL   H28726713   3.774   0.841   4.578  1.4581 -1.7968 -1.5213
   74MOL   H28826714   3.906   0.675   4.727  1.0942  0.1642 -2.1346
   74MOL   H28926715   3.763   0.571   4.728  1.4924  0.2507  2.3156
   74MOL   C29026716   3.975   0.645   4.477 -0.0449 -0.0568 -0.0175
   74MOL   O29126717   4.046   0.726   4.530 -0.1623  0.0643 -0.1927
   74MOL   C29226718   4.004   0.585   4.341  0.6972  0.0324  0.1233
   74MOL   C29326719   4.115   0.480   4.350  0.6034  0.4391  0.3461
   74MOL   C29426720   4.104   0.373   4.470 -0.0221 -0.2676  1.2449
   74MOL   C29526721   4.210   0.263   4.436  0.6083  0.0691  0.0289
   74MOL   C29626722   4.233   0.171   4.544  0.1689  0.1262 -0.2311
   74MOL   O29726723   4.333   0.086   4.501  0.1005 -0.3635  0.5914
   74MOL   H29826724   4.029   0.668   4.274 -2.5075 -0.4919 -1.8380
   74MOL   H29926725   3.914   0.536   4.302 -0.1409  0.1177  1.9267
   74MOL   H30026726   4.206   0.541   4.347  1.0497 -0.2692 -0.9825
   74MOL   H30126727   4.103   0.420   4.260  0.8722 -0.7858  1.1102
   74MOL   H30226728   4.002   0.337   4.473  0.6409 -2.1293  2.4630
   74MOL   H30326729   4.129   0.415   4.568  2.0485  0.1816  0.5447
   74MOL   H30426730   4.298   0.320   4.409  1.3841 -1.3519 -0.4886
   74MOL   H30526731   4.169   0.204   4.353 -2.9363  1.7440  0.4698
   74MOL   H30626732   4.244   0.215   4.643  0.7249 -0.3964 -0.0579
   74MOL   H30726733   4.136   0.127   4.566  0.2652  0.4753  0.8976
   74MOL   C30826734   4.441   0.074   4.565 -0.7825 -0.3388  0.2713
   74MOL   O30926735   4.481   0.154   4.651 -0.3073  0.2417  0.3315
   74MOL   C31026736   4.517   7.797   4.514 -0.5312 -0.5840 -1.2180
   74MOL   C31126737   4.518   7.680   4.617  1.1558 -0.4495  0.0430
   74MOL   C31226738   4.392   7.594   4.586 -1.2698  0.2502  0.6607
   74MOL   C31326739   4.387   7.463   4.668 -0.5567  0.7622  0.5636
   74MOL   C31426740   4.243   7.402   4.667  0.3467  0.0250  0.0254
   74MOL   O31526741   4.216   7.343   4.539 -0.2488  0.3902 -0.2066
   74MOL   H31626742   4.618   7.826   4.488  0.6625 -0.9658  2.6807
   74MOL   H31726743   4.484   7.764   4.415 -1.2236 -0.0087 -1.1833
   74MOL   H31826744   4.515   7.715   4.720 -0.9398 -1.4186  0.3264
   74MOL   H31926745   4.608   7.619   4.607  2.1032  0.9500 -0.1903
   74MOL   H32026746   4.402   7.572   4.479 -1.2701 -1.5430  1.0010
   74MOL   H32126747   4.303   7.654   4.602 -0.8586  0.7964  0.9173
   74MOL   H32226748   4.411   7.492   4.771 -1.1133 -3.8604  2.0886
   74MOL   H32326749   4.459   7.391   4.631  0.1077  1.8984 -0.3959
   74MOL   H32426750   4.242   7.324   4.743 -2.6064  1.5217  1.6157
   74MOL   H32526751   4.179   7.487   4.690  0.9647  0.4376  0.2154
   74MOL   C32626752   4.094   7.297   4.512  0.4146  0.2253  0.0568
   74MOL   O32726753   4.002   7.292   4.595 -0.5776 -0.0945  0.5711
   74MOL   C32826754   4.085   7.264   4.366 -0.3099  0.2944 -0.4388
   74MOL   C32926755   4.128   7.121   4.342 -0.2357  0.1447 -0.7060
   74MOL   C33026756   4.009   7.023   4.325  0.2030 -0.1798  0.0459
   74MOL   C33126757   4.050   6.880   4.289 -0.4988 -0.1124  0.9353
   74MOL   C33226758   3.935   6.783   4.276 -0.4292  0.3875 -0.0532
   74MOL   O33326759   3.970   6.659   4.224 -0.1448 -0.3738 -0.5229
   74MOL   H33426760   4.137   7.341   4.308  1.2756 -0.8230 -0.5286
   74MOL   H33526761   3.984   7.277   4.327 -0.0221  4.9168  0.0755
   74MOL   H33626762   4.194   7.081   4.419 -0.4463  1.6708  0.2869
   74MOL   H33726763   4.186   7.130   4.250 -0.3504 -2.4440 -1.0625
   74MOL   H33826764   3.944   7.063   4.247 -2.6899 -0.1677  2.3687
   74MOL   H33926765   3.946   7.021   4.414  0.6818  3.2906  0.5185
   74MOL   H34026766   4.119   6.849   4.368  0.1313  2.0992  1.2966
   74MOL   H34126767   4.101   6.881   4.193 -0.6462 -1.0697  0.8414
   74MOL   H34226768   3.888   6.782   4.374  0.1965  0.2688  0.2495
   74MOL   H34326769   3.852   6.818   4.214 -1.0100 -0.4852  0.2335
   74MOL   C34426770   4.018   6.565   4.304 -0.9303 -0.3028 -0.2993
   74MOL   O34526771   4.043   6.581   4.421 -0.0268  1.0123 -0.4348
   74MOL   C34626772   4.032   6.423   4.238  0.3489  0.3398  0.7980
   74MOL   C34726773   4.035   6.415   4.079  0.3352  0.5550 -0.1000
   74MOL   C34826774   4.072   6.271   4.035  0.0879 -0.0064  0.6088
   74MOL   C34926775   3.952   6.175   4.047  0.5993  0.4310  0.2098
   74MOL   C35026776   3.962   6.045   3.962 -0.0495 -0.1421 -0.2557
   74MOL   O35126777   3.956   6.067   3.825  0.0460 -0.1416 -0.4777
   74MOL   H35226778   3.942   6.364   4.260 -0.2089  0.4964 -1.0463
   74MOL   H35326779   4.123   6.370   4.268  0.4068  0.2080  0.3830
   74MOL   H35426780   4.114   6.482   4.045 -0.4758  1.0270 -1.0819
   74MOL   H35526781   3.945   6.458   4.035  0.4061 -0.4434 -1.2230
   74MOL   H35626782   4.161   6.238   4.089  0.3624  2.9431  2.0490
   74MOL   H35726783   4.103   6.262   3.931 -0.3888 -2.1912  0.6180
   74MOL   H35826784   3.864   6.229   4.013  0.5636  1.5836  2.0585
   74MOL   H35926785   3.938   6.151   4.152  1.3911 -0.0848  0.2008
   74MOL   H36026786   4.061   6.003   3.979  0.2944  1.0397  0.7509
   74MOL   H36126787   3.892   5.966   3.992  0.8016 -1.4836 -1.7446
   74MOL   H36226788   3.875   6.107   3.799 -0.2709 -0.8702 -0.6189
   75MOL     C126789   0.670   4.459   1.792  0.3537 -0.2547  0.1522
   75MOL     O226790   0.597   4.557   1.779 -0.0320 -0.0009  0.0012
   75MOL     C326791   0.774   4.434   1.688 -0.5579 -0.4191  0.4234
   75MOL     C426792   0.729   4.452   1.545 -0.1024 -0.3248  0.2617
   75MOL     C526793   0.626   4.355   1.482  0.5474  0.0741  0.2551
   75MOL     C626794   0.591   4.388   1.338 -0.3974  0.0500 -0.3871
   75MOL     C726795   0.490   4.289   1.278  0.5214 -0.0955  0.2230
   75MOL     O826796   0.370   4.284   1.354 -0.1950  0.0477  0.5537
   75MOL     H926797   0.810   4.331   1.694  3.3795  0.9729  2.2570
   75MOL    H1026798   0.858   4.500   1.707 -1.9048  1.6796 -0.7639
   75MOL    H1126799   0.823   4.450   1.490  0.3487 -0.1360  1.0147
   75MOL    H1226800   0.705   4.557   1.529  0.1356 -0.1761  0.8759
   75MOL    H1326801   0.533   4.343   1.539  0.4132 -0.8363 -0.1340
   75MOL    H1426802   0.672   4.256   1.471  0.6491  0.3417 -1.9335
   75MOL    H1526803   0.684   4.381   1.280 -1.0076 -1.9306 -1.1655
   75MOL    H1626804   0.551   4.490   1.339 -1.3203 -0.3142  1.7011
   75MOL    H1726805   0.475   4.317   1.173  2.0226 -1.9778 -0.5411
   75MOL    H1826806   0.544   4.195   1.288  0.9606 -0.1374 -2.2076
   75MOL    H1926807   0.659   4.384   1.870  0.4348  1.1727  1.5725
   75MOL    C2026808   0.259   4.247   1.293 -1.0658  0.0272  0.4652
   75MOL    O2126809   0.247   4.227   1.175 -0.3260 -0.4325 -0.3996
   75MOL    C2226810   0.142   4.228   1.387 -0.1669 -0.8219  0.4584
   75MOL    C2326811   0.114   4.078   1.416  0.3592  0.4503 -0.0381
   75MOL    C2426812   0.002   4.050   1.517 -0.0710 -0.0419  0.6925
   75MOL    C2526813   7.836   3.900   1.538 -0.6349 -0.9942 -0.0323
   75MOL    C2626814   7.724   3.866   1.635  0.5273 -0.0227  0.3030
   75MOL    O2726815   7.712   3.732   1.668 -0.0910 -0.5828 -0.5859
   75MOL    H2826816   0.061   4.277   1.331  1.3787  1.5972  0.2459
   75MOL    H2926817   0.150   4.283   1.481 -1.8081 -2.7350  1.7547
   75MOL    H3026818   0.206   4.032   1.453  0.5846  0.4320 -0.6141
   75MOL    H3126819   0.082   4.041   1.319  0.1457 -2.6013  1.1503
   75MOL    H3226820   7.748   4.088   1.486 -1.8363 -2.7484  2.7177
   75MOL    H3326821   0.028   4.086   1.616 -2.8719 -1.1432  1.9113
   75MOL    H3426822   0.087   3.856   1.567  0.4864  0.9990 -0.6101
   75MOL    H3526823   7.825   3.857   1.438 -1.4739 -0.6270 -0.1080
   75MOL    H3626824   7.731   3.923   1.728 -0.7902  0.2555  0.2455
   75MOL    H3726825   7.633   3.900   1.585  0.5767  0.2979  0.4336
   75MOL    C3826826   7.628   3.687   1.755 -0.1812 -0.5856 -0.2426
   75MOL    O3926827   7.543   3.750   1.819 -0.4924 -0.0183 -0.1591
   75MOL    C4026828   7.630   3.536   1.763 -0.2689 -0.3260 -0.2426
   75MOL    C4126829   7.541   3.464   1.664 -0.6929 -0.4955 -1.1598
   75MOL    C4226830   7.566   3.315   1.681 -0.2980 -0.0347  0.4177
   75MOL    C4326831   7.525   3.242   1.554  0.7344 -0.1199  0.1772
   75MOL    C4426832   7.379   3.247   1.523 -0.0980 -0.2191  0.3135
   75MOL    O4526833   7.336   3.134   1.455 -0.5409 -0.2988  1.0998
   75MOL    H4626834   7.588   3.511   1.860 -0.9958  0.4251 -0.3642
   75MOL    H4726835   7.732   3.499   1.767  0.3847  1.6839  2.8434
   75MOL    H4826836   7.570   3.498   1.564 -1.1163 -1.5779 -1.6595
   75MOL    H4926837   7.439   3.496   1.685 -0.8950 -1.6357 -0.4037
   75MOL    H5026838   7.507   3.274   1.762 -0.3561 -0.0873  0.3489
   75MOL    H5126839   7.671   3.298   1.707 -0.2787 -0.3709  0.1254
   75MOL    H5226840   7.558   3.138   1.563 -0.3113 -0.3919  0.9741
   75MOL    H5326841   7.591   3.270   1.472  1.6388  0.5238  1.0972
   75MOL    H5426842   7.326   3.245   1.618  1.4181 -0.5928  1.1612
   75MOL    H5526843   7.354   3.343   1.477 -1.4221 -0.4213  0.6145
   75MOL    C5626844   7.206   3.101   1.455  0.0462 -0.0066 -0.4249
   75MOL    O5726845   7.121   3.172   1.507 -0.2698 -0.2531 -0.2708
   75MOL    C5826846   7.193   2.958   1.411 -0.1187  0.4671 -0.3621
   75MOL    C5926847   7.055   2.903   1.420  0.2128  0.8906  0.6211
   75MOL    C6026848   7.022   2.844   1.558 -0.4353 -0.9260 -0.5455
   75MOL    C6126849   6.897   2.752   1.563 -1.0042  0.3559 -0.3865
   75MOL    C6226850   6.903   2.684   1.699  0.8723  0.1398 -0.6121
   75MOL    O6326851   6.781   2.626   1.740  0.3911  0.6001  0.4059
   75MOL    H6426852   7.268   2.913   1.475 -0.4655  2.3198  1.3946
   75MOL    H6526853   7.226   2.966   1.307 -0.5525  1.3325 -0.4363
   75MOL    H6626854   7.037   2.827   1.345 -0.0051 -0.9787  2.5329
   75MOL    H6726855   6.977   2.974   1.392 -0.4220 -0.1132 -0.1705
   75MOL    H6826856   7.011   2.925   1.630  0.8364 -1.6889  0.5360
   75MOL    H6926857   7.115   2.796   1.591 -0.2651 -0.0746  0.2552
   75MOL    H7026858   6.905   2.673   1.489  0.8297  1.2939 -1.2346
   75MOL    H7126859   6.809   2.815   1.555 -2.4059 -1.4488  0.4228
   75MOL    H7226860   6.987   2.615   1.712 -0.4581 -1.5558 -0.7970
   75MOL    H7326861   6.919   2.756   1.779 -1.6336 -0.1053  0.1496
   75MOL    C7426862   6.757   2.503   1.707 -0.1815  0.6714  0.4664
   75MOL    O7526863   6.839   2.423   1.660 -0.0695  0.4844  0.8369
   75MOL    C7626864   6.613   2.459   1.719 -0.3658 -0.1809 -0.5274
   75MOL    C7726865   6.575   2.388   1.851  0.0442  0.5595 -0.3610
   75MOL    C7826866   6.523   2.485   1.963  0.0845  0.1783  0.7950
   75MOL    C7926867   6.470   2.422   2.090  0.3542 -0.1181 -0.6394
   75MOL    C8026868   6.387   2.507   2.191 -0.0385  0.0561  0.1035
   75MOL    O8126869   6.361   2.433   2.310 -0.1022  0.1169 -0.1339
   75MOL    H8226870   6.611   2.393   1.633  2.0263  0.5842 -1.2145
   75MOL    H8326871   6.549   2.544   1.692 -0.7554 -0.3995 -0.2994
   75MOL    H8426872   6.667   2.337   1.879 -0.8970 -0.6947  0.4886
   75MOL    H8526873   6.510   2.303   1.828  0.7337 -0.0339 -0.1394
   75MOL    H8626874   6.443   2.540   1.912 -0.3637 -0.8242  0.4036
   75MOL    H8726875   6.596   2.564   1.979 -0.7370  1.3478 -1.0318
   75MOL    H8826876   6.554   2.394   2.153 -0.8819 -1.1179  0.6158
   75MOL    H8926877   6.410   2.332   2.069 -1.2356  1.2138 -1.9630
   75MOL    H9026878   6.433   2.602   2.218 -1.7184  1.0477 -0.3839
   75MOL    H9126879   6.293   2.547   2.152 -0.3021 -0.5584  0.1028
   75MOL    C9226880   6.318   2.486   2.420 -0.0954  0.9485 -0.2386
   75MOL    O9326881   6.264   2.593   2.431 -0.3360 -0.1132 -0.3425
   75MOL    C9426882   6.350   2.399   2.542 -0.6938  0.0513 -0.2649
   75MOL    C9526883   6.313   2.249   2.518 -0.5467  0.2346 -0.1640
   75MOL    C9626884   6.406   2.161   2.423 -0.5101 -0.1209 -1.2125
   75MOL    C9726885   6.558   2.176   2.459  0.4674  0.7886  0.3875
   75MOL    C9826886   6.648   2.092   2.367 -1.1446 -0.3254 -0.4123
   75MOL    O9926887   6.631   1.949   2.397  0.4784 -0.4688  0.0566
   75MOL   H10026888   6.286   2.445   2.617  0.6619 -0.4499  1.2314
   75MOL   H10126889   6.456   2.420   2.559 -0.6845  0.3188 -0.6484
   75MOL   H10226890   6.211   2.252   2.480 -1.1156  0.5411  1.3346
   75MOL   H10326891   6.289   2.207   2.616 -1.4442 -0.6939 -0.7750
   75MOL   H10426892   6.385   2.203   2.325 -1.2448 -0.3713 -1.1700
   75MOL   H10526893   6.371   2.059   2.434 -0.4260 -0.1253 -0.9763
   75MOL   H10626894   6.575   2.137   2.559 -2.0296 -0.4315  0.3722
   75MOL   H10726895   6.585   2.282   2.454 -3.5163  1.8971  0.2291
   75MOL   H10826896   6.651   2.106   2.259 -2.0048 -1.8115 -0.6453
   75MOL   H10926897   6.750   2.117   2.397 -0.1973 -1.3053 -2.7301
   75MOL   C11026898   6.706   1.868   2.322  0.0534 -0.0965  0.5229
   75MOL   O11126899   6.760   1.896   2.219  0.6229  0.1691  0.2046
   75MOL   C11226900   6.714   1.718   2.366 -0.2032 -1.0938 -0.2880
   75MOL   C11326901   6.761   1.617   2.261  0.0889  0.0545 -0.3332
   75MOL   C11426902   6.763   1.473   2.321  0.2744 -0.1097 -0.1671
   75MOL   C11526903   6.793   1.373   2.205 -0.2681 -0.0004 -0.3124
   75MOL   C11626904   6.806   1.229   2.242  0.5831  0.0287  0.0715
   75MOL   O11726905   6.793   1.148   2.131 -0.6216  0.1304  0.2348
   75MOL   H11826906   6.609   1.704   2.394 -0.6634  0.8443 -0.9852
   75MOL   H11926907   6.781   1.715   2.452 -0.3698  2.0324  0.0185
   75MOL   H12026908   6.852   1.656   2.216  0.0746 -0.5247 -0.8872
   75MOL   H12126909   6.691   1.624   2.177  1.3967  2.2418 -1.2573
   75MOL   H12226910   6.666   1.457   2.367 -0.4258  1.5888 -1.0070
   75MOL   H12326911   6.840   1.480   2.398 -0.5577 -0.0301  0.6521
   75MOL   H12426912   6.886   1.411   2.163 -0.4026 -1.6413 -2.2121
   75MOL   H12526913   6.713   1.379   2.131 -0.9757 -4.0130  0.0213
   75MOL   H12626914   6.895   1.219   2.304  0.1825  0.5575  0.7421
   75MOL   H12726915   6.714   1.199   2.290  0.6269 -2.4690 -1.3171
   75MOL   C12826916   6.870   1.039   2.122 -0.0071 -0.0495  0.2113
   75MOL   O12926917   6.965   1.015   2.190 -0.3069 -0.1397 -0.2646
   75MOL   C13026918   6.820   0.935   2.023 -0.0448 -0.0840 -0.2989
   75MOL   C13126919   6.942   0.854   1.955 -0.2052 -0.1889 -0.0489
   75MOL   C13226920   6.892   0.746   1.853  0.2193  0.2317  0.1266
   75MOL   C13326921   6.993   0.661   1.773  0.6464  0.2068  0.1725
   75MOL   C13426922   6.924   0.543   1.708  0.4887  0.6868  0.2031
   75MOL   O13526923   6.860   0.451   1.805  0.3348 -0.0494  0.6926
   75MOL   H13626924   6.777   0.981   1.934 -2.1693 -2.1890 -0.3981
   75MOL   H13726925   6.740   0.869   2.055  0.0794  0.1027  0.3963
   75MOL   H13826926   7.017   0.811   2.022  2.1434 -0.0445 -2.5050
   75MOL   H13926927   6.999   0.928   1.899  1.7981 -0.3064  1.7545
   75MOL   H14026928   6.828   0.794   1.779 -1.0301 -1.6121 -0.0406
   75MOL   H14126929   6.823   0.684   1.910  0.3258  0.2476  0.2710
   75MOL   H14226930   7.065   0.624   1.846 -1.5570 -1.0938  1.7495
   75MOL   H14326931   7.039   0.727   1.700  1.1560  1.3203  1.4802
   75MOL   H14426932   6.840   0.583   1.652  1.3448  1.6416 -0.4257
   75MOL   H14526933   6.985   0.493   1.633  0.9961  1.3215  0.1810
   75MOL   C14626934   6.889   0.326   1.794  0.0001 -0.3730  0.3643
   75MOL   O14726935   6.962   0.280   1.710 -0.7110 -0.5045  0.0095
   75MOL   C14826936   6.822   0.229   1.895 -0.2965  0.7463  0.1557
   75MOL   C14926937   6.899   0.219   2.021  0.3299 -0.1415  0.4504
   75MOL   C15026938   7.016   0.126   2.018 -0.4695  0.5442  0.2230
   75MOL   C15126939   6.986   7.821   2.023  0.3276  0.5056  0.5192
   75MOL   C15226940   6.867   7.786   2.115  0.2213  0.2131 -0.0909
   75MOL   O15326941   6.845   7.643   2.110  0.0281  0.1495 -0.0161
   75MOL   H15426942   6.813   0.135   1.842 -1.3808  1.4799 -1.0133
   75MOL   H15526943   6.720   0.262   1.917 -0.2113  0.4592  0.9788
   75MOL   H15626944   6.834   0.195   2.105 -3.5859  1.4050 -1.9935
   75MOL   H15726945   6.950   0.315   2.035  2.8031 -0.8902 -2.7861
   75MOL   H15826946   7.081   0.140   2.104  1.5310 -2.0993 -0.8088
   75MOL   H15926947   7.081   0.141   1.932  0.9085 -2.9174  0.5997
   75MOL   H16026948   7.072   7.763   2.057 -0.1347 -0.1251  0.6166
   75MOL   H16126949   6.961   7.785   1.923 -0.6291 -1.4665  1.4424
   75MOL   H16226950   6.904   7.807   2.215  0.8331 -0.5738 -0.1476
   75MOL   H16326951   6.778   7.844   2.091  1.2686  1.6061 -0.7421
   75MOL   C16426952   6.772   7.580   2.202 -0.2393  0.2372  0.0823
   75MOL   O16526953   6.732   7.633   2.305 -0.0200 -0.0101 -0.2934
   75MOL   C16626954   6.747   7.429   2.174 -0.3206 -0.8290 -0.2537
   75MOL   C16726955   6.662   7.410   2.049  0.4889 -0.5577  0.4639
   75MOL   C16826956   6.532   7.489   2.065  0.2091 -0.1142 -0.2634
   75MOL   C16926957   6.421   7.443   1.963 -0.7168 -0.0329  0.5251
   75MOL   C17026958   6.331   7.328   2.013  0.7151 -0.3262 -0.1046
   75MOL   O17126959   6.261   7.368   2.132  0.1541 -0.4883  0.0264
   75MOL   H17226960   6.686   7.380   2.250 -1.0205 -3.0501 -2.1724
   75MOL   H17326961   6.841   7.374   2.164  0.0627  0.2149 -2.8264
   75MOL   H17426962   6.633   7.307   2.028 -3.5376  0.5320  0.2088
   75MOL   H17526963   6.721   7.454   1.969  0.3225  0.7110  1.0263
   75MOL   H17626964   6.566   7.587   2.031  0.9677 -1.0029 -2.0956
   75MOL   H17726965   6.496   7.495   2.168 -1.0013  1.1279 -0.7363
   75MOL   H17826966   6.462   7.420   1.865 -0.6882  1.5885  0.1556
   75MOL   H17926967   6.361   7.531   1.941  0.3694  0.3048 -1.1038
   75MOL   H18026968   6.258   7.303   1.936 -0.5210  0.8710  0.6494
   75MOL   H18126969   6.380   7.232   2.031 -0.1535 -0.7660 -0.0413
   75MOL   C18226970   6.154   7.449   2.128  0.0187  0.1077 -0.2387
   75MOL   O18326971   6.108   7.509   2.032  0.0137  0.2708  0.3458
   75MOL   C18426972   6.108   7.457   2.273 -0.9702  0.1418  0.0740
   75MOL   C18526973   6.176   7.563   2.357  1.0078  0.1112  0.1202
   75MOL   C18626974   6.118   7.707   2.343  0.1427 -0.1971 -0.2478
   75MOL   C18726975   6.200   7.811   2.423 -0.3503 -0.0748  0.0442
   75MOL   C18826976   6.127   0.101   2.423  0.0318  0.1484 -0.5709
   75MOL   O18926977   6.197   0.199   2.487 -0.1711  1.0228  0.4864
   75MOL   H19026978   6.121   7.359   2.318  0.0765 -0.4880 -1.5446
   75MOL   H19126979   5.999   7.456   2.272 -0.9828  0.2939  1.0058
   75MOL   H19226980   6.285   7.567   2.344  0.6999  1.3628 -2.4384
   75MOL   H19326981   6.178   7.531   2.461 -1.5711 -2.1905 -0.4765
   75MOL   H19426982   6.020   7.696   2.390 -0.2059  2.0637 -0.3813
   75MOL   H19526983   6.096   7.743   2.242  1.2657 -3.2912 -1.6633
   75MOL   H19626984   6.300   7.826   2.384 -0.6720  0.3268 -0.6233
   75MOL   H19726985   6.217   7.792   2.529 -1.3741 -1.0944  0.0296
   75MOL   H19826986   6.124   0.134   2.319 -1.0419 -0.2303 -0.6622
   75MOL   H19926987   6.032   0.093   2.475  0.2170 -2.7550 -0.6237
   75MOL   C20026988   6.151   0.326   2.477  0.1235  0.5975 -1.2952
   75MOL   O20126989   6.051   0.365   2.422 -0.2242  0.1694  0.3794
   75MOL   C20226990   6.231   0.439   2.548 -0.3781  0.5333 -0.4470
   75MOL   C20326991   6.209   0.447   2.701  0.2152  0.2184 -0.2648
   75MOL   C20426992   6.302   0.532   2.776  0.1425  0.1613  0.5200
   75MOL   C20526993   6.282   0.516   2.931  0.3331 -0.7273 -0.3082
   75MOL   C20626994   6.373   0.608   3.013  0.1770 -0.0015  0.2324
   75MOL   O20726995   6.330   0.742   3.024  0.7220 -0.0080  0.3013
   75MOL   H20826996   6.193   0.532   2.506 -1.3128  0.3960  0.0830
   75MOL   H20926997   6.336   0.424   2.526 -0.7943 -1.6170 -1.0958
   75MOL   H21026998   6.208   0.352   2.753 -3.5997  0.9880  1.2376
   75MOL   H21126999   6.112   0.493   2.719  0.5013  0.8984 -0.4354
   75MOL   H21227000   6.292   0.637   2.749 -0.7741  0.2696  1.2698
   75MOL   H21327001   6.404   0.509   2.744 -0.8525 -0.0417 -2.6820
   75MOL   H21427002   6.293   0.410   2.956 -0.6141 -0.9870 -0.9612
   75MOL   H21527003   6.177   0.532   2.954  0.3386 -1.9554  0.6130
   75MOL   H21627004   6.394   0.561   3.109 -0.7620  1.5551  1.2232
   75MOL   H21727005   6.461   0.601   2.949  0.1863 -1.2230  0.3697
   75MOL   C21827006   6.408   0.845   3.073  0.5643 -0.3227 -0.7084
   75MOL   O21927007   6.525   0.828   3.100 -0.3235 -0.2433  0.0520
   75MOL   C22027008   6.335   0.979   3.072  0.5724  0.3021 -0.9096
   75MOL   C22127009   6.426   1.107   3.091  0.0981 -0.1174  0.5755
   75MOL   C22227010   6.348   1.216   3.171  0.2880  0.1618 -1.1055
   75MOL   C22327011   6.424   1.340   3.209  0.1415 -0.1022  0.2202
   75MOL   C22427012   6.330   1.443   3.281 -0.3315  0.2637 -0.2322
   75MOL   O22527013   6.408   1.558   3.319 -0.4254 -0.0216 -0.1140
   75MOL   H22627014   6.261   0.993   3.151  0.7526 -0.3302 -0.6220
   75MOL   H22727015   6.282   0.984   2.977 -1.4848  1.6741  0.2727
   75MOL   H22827016   6.461   1.145   2.995  0.4600 -0.7336  0.4602
   75MOL   H22927017   6.513   1.083   3.152 -1.5859 -2.3627  2.2204
   75MOL   H23027018   6.308   1.182   3.267  1.1156  1.4468 -0.2970
   75MOL   H23127019   6.264   1.237   3.104  0.2350  1.6464 -0.5834
   75MOL   H23227020   6.466   1.384   3.118 -0.5298 -1.0237 -0.5487
   75MOL   H23327021   6.511   1.311   3.268  0.4730  0.9399  0.2593
   75MOL   H23427022   6.245   1.471   3.219  0.2140  0.8419 -0.7311
   75MOL   H23527023   6.283   1.396   3.367  2.3629 -1.3778  0.4098
   75MOL   C23627024   6.419   1.667   3.247  0.1009 -0.6976  0.3562
   75MOL   O23727025   6.341   1.697   3.154 -0.1373 -0.1600 -0.1158
   75MOL   C23827026   6.541   1.752   3.292  0.0846 -0.3187  0.5416
   75MOL   C23927027   6.628   1.798   3.167 -0.5228 -0.0589 -0.4748
   75MOL   C24027028   6.760   1.716   3.159  0.0278  0.5495 -0.1216
   75MOL   C24127029   6.734   1.566   3.121 -0.3176 -0.2986 -0.2225
   75MOL   C24227030   6.867   1.490   3.104 -1.0033  0.0924 -0.0346
   75MOL   O24327031   6.857   1.354   3.064 -0.4017  0.0755 -0.1777
   75MOL   H24427032   6.593   1.702   3.374  1.9913  0.8301  0.0591
   75MOL   H24527033   6.513   1.848   3.336  0.8713  0.3139 -0.3227
   75MOL   H24627034   6.643   1.904   3.183 -1.1829 -0.4085  2.8216
   75MOL   H24727035   6.582   1.786   3.069  0.5038  1.2927 -1.1413
   75MOL   H24827036   6.814   1.715   3.254  0.2307 -0.0453 -0.2390
   75MOL   H24927037   6.823   1.761   3.082  1.1021 -0.3818  0.1971
   75MOL   H25027038   6.686   1.554   3.024 -1.5341 -0.8853  0.4355
   75MOL   H25127039   6.681   1.511   3.199 -0.0034  0.5781  0.6222
   75MOL   H25227040   6.922   1.541   3.025 -2.0926  0.4470 -0.5869
   75MOL   H25327041   6.935   1.500   3.188 -0.1726  1.9124 -0.9090
   75MOL   C25427042   6.953   1.267   3.082 -0.1176  0.5139  0.5929
   75MOL   O25527043   7.069   1.290   3.120  0.0221  0.0004 -0.2213
   75MOL   C25627044   6.909   1.115   3.061 -0.1684 -0.9352  0.2397
   75MOL   C25727045   7.003   1.017   3.121 -0.3788 -0.1160  0.1322
   75MOL   C25827046   6.973   1.018   3.274  0.8209 -0.0331  0.1099
   75MOL   C25927047   7.090   0.963   3.349  0.4209  0.2074  0.1459
   75MOL   C26027048   7.076   0.987   3.498 -0.0522  0.4872 -0.3887
   75MOL   O26127049   7.001   0.889   3.566 -0.0421  0.0420  0.4773
   75MOL   H26227050   6.921   1.102   2.953  0.5474  0.0252  0.2059
   75MOL   H26327051   6.803   1.099   3.084 -0.3634 -0.1921 -0.1272
   75MOL   H26427052   7.105   1.052   3.107 -0.8493  1.1930 -0.0166
   75MOL   H26527053   6.983   0.920   3.075 -3.0587 -1.1652  3.3067
   75MOL   H26627054   6.878   0.968   3.294 -0.9958  3.1473 -0.2304
   75MOL   H26727055   6.971   1.122   3.309  1.3519 -0.0915  0.3225
   75MOL   H26827056   7.180   1.016   3.317 -0.8318  1.3285 -1.6439
   75MOL   H26927057   7.100   0.856   3.332  0.0100  0.3194 -0.8036
   75MOL   H27027058   7.172   0.989   3.549 -1.5142  1.6702  2.4355
   75MOL   H27127059   7.023   1.081   3.514 -1.2232 -0.3749  0.9154
   75MOL   C27227060   6.960   0.912   3.693  0.3710 -0.0698  0.5847
   75MOL   O27327061   7.004   1.002   3.767 -0.0536  0.1291 -0.4835
   75MOL   C27427062   6.846   0.818   3.727  0.0007 -0.2375 -0.5140
   75MOL   C27527063   6.704   0.878   3.682  0.1497  0.2087 -0.4358
   75MOL   C27627064   6.688   0.893   3.531  0.6420 -0.0454  0.6444
   75MOL   C27727065   6.542   0.911   3.488 -0.3384  0.2072 -0.4518
   75MOL   C27827066   6.460   0.778   3.492  0.2842 -0.0637 -0.3931
   75MOL   O27927067   6.331   0.796   3.438  0.8235 -0.2412 -0.1715
   75MOL   H28027068   6.864   0.788   3.830  0.3458 -1.8959 -1.0456
   75MOL   H28127069   6.848   0.727   3.667  1.3977 -0.5362 -0.0184
   75MOL   H28227070   6.681   0.972   3.733 -0.0937 -0.5706  0.9204
   75MOL   H28327071   6.624   0.814   3.718  0.0566  1.8040  2.3111
   75MOL   H28427072   6.713   0.804   3.474 -1.6597 -0.7023  0.6027
   75MOL   H28527073   6.753   0.971   3.491 -1.8639  1.0503 -1.4792
   75MOL   H28627074   6.544   0.960   3.391 -0.5156 -0.8636 -1.0003
   75MOL   H28727075   6.496   0.981   3.557  1.7638  0.9260  0.2772
   75MOL   H28827076   6.513   0.700   3.438  1.0077 -0.3113  0.6581
   75MOL   H28927077   6.461   0.751   3.598 -0.1575 -1.0288 -0.6315
   75MOL   C29027078   6.267   0.703   3.382  0.5234  0.2452 -0.1645
   75MOL   O29127079   6.316   0.594   3.351  0.3275  0.0820  0.6632
   75MOL   C29227080   6.125   0.723   3.342 -0.3409 -0.1965 -0.1077
   75MOL   C29327081   6.080   0.869   3.350 -0.1547  0.3788  0.1878
   75MOL   C29427082   6.024   0.907   3.485 -0.4348 -0.0142 -0.0179
   75MOL   C29527083   6.018   1.059   3.500  0.0576  0.8952  0.1304
   75MOL   C29627084   5.987   1.093   3.647  0.4606  0.6835 -0.0335
   75MOL   O29727085   6.108   1.102   3.717 -0.0691  0.5067  0.4224
   75MOL   H29827086   6.073   0.661   3.415 -0.9285  1.4889  0.9589
   75MOL   H29927087   6.116   0.673   3.246 -0.1064  1.3609 -0.9671
   75MOL   H30027088   5.989   0.879   3.291 -0.2302 -0.6143  0.1233
   75MOL   H30127089   6.149   0.946   3.317 -2.7526  3.1817  1.0584
   75MOL   H30227090   6.093   0.875   3.563  0.7515  3.8106  0.5955
   75MOL   H30327091   5.922   0.873   3.503 -0.1927 -0.4834  0.4673
   75MOL   H30427092   5.936   1.096   3.439 -2.1752 -2.6755  0.8438
   75MOL   H30527093   6.107   1.110   3.463 -0.2568  1.6599  0.4305
   75MOL   H30627094   5.930   1.185   3.644 -0.2487  0.2385 -0.2264
   75MOL   H30727095   5.910   1.023   3.681 -0.0384  0.8861 -0.7382
   75MOL   C30827096   6.115   1.036   3.823 -0.2024 -0.3294  0.0543
   75MOL   O30927097   6.022   0.985   3.888  0.6275 -0.1588 -0.1544
   75MOL   C31027098   6.258   1.037   3.873  0.5963 -0.2433  0.2503
   75MOL   C31127099   6.317   0.887   3.871 -0.5687 -1.0105 -0.3333
   75MOL   C31227100   6.446   0.873   3.954 -0.1671 -0.2141  0.5085
   75MOL   C31327101   6.493   0.730   3.960  0.0428 -0.1054 -0.1118
   75MOL   C31427102   6.596   0.686   4.067  0.5751 -0.0818 -0.0218
   75MOL   O31527103   6.710   0.762   4.038 -0.0720 -0.1614 -0.0517
   75MOL   H31627104   6.257   1.068   3.977 -0.0625 -2.7444  1.0268
   75MOL   H31727105   6.325   1.100   3.815 -0.0911  0.2602 -0.0030
   75MOL   H31827106   6.353   0.873   3.769 -0.1163 -0.0219 -0.3193
   75MOL   H31927107   6.243   0.806   3.869  0.2195 -1.7169 -1.2854
   75MOL   H32027108   6.411   0.903   4.053  0.6663  0.0265  0.7290
   75MOL   H32127109   6.522   0.939   3.913 -0.7847  0.7428  0.8667
   75MOL   H32227110   6.519   0.697   3.859  0.2655  0.8991 -0.3904
   75MOL   H32327111   6.401   0.674   3.977 -0.2183  0.5578  0.6862
   75MOL   H32427112   6.560   0.709   4.168  1.2934  1.5955 -0.1267
   75MOL   H32527113   6.613   0.578   4.069  2.9387  0.2040 -2.0101
   75MOL   C32627114   6.807   0.790   4.143  0.0235  0.5482  0.1249
   75MOL   O32727115   6.807   0.726   4.249  0.0635  0.5270 -0.2474
   75MOL   C32827116   6.911   0.899   4.115 -0.9176 -0.0983  0.9004
   75MOL   C32927117   6.851   1.038   4.078 -0.2496  1.2909  0.3056
   75MOL   C33027118   6.953   1.151   4.062 -0.6709 -0.2455  0.0089
   75MOL   C33127119   6.905   1.277   4.002  0.4425 -0.0221  0.0706
   75MOL   C33227120   7.005   1.385   4.014  0.2971  0.3713  0.2175
   75MOL   O33327121   6.943   1.501   3.964 -0.2208  0.2661 -0.1438
   75MOL   H33427122   6.976   0.869   4.032 -0.9533  0.2753  0.7351
   75MOL   H33527123   6.982   0.908   4.197 -1.1955 -0.0130  1.1291
   75MOL   H33627124   6.781   1.062   4.158 -1.2530  0.2030 -0.2304
   75MOL   H33727125   6.803   1.021   3.981  0.9855 -1.4651  0.1237
   75MOL   H33827126   7.045   1.114   4.018 -0.1169 -1.3492  2.0131
   75MOL   H33927127   6.981   1.180   4.164  0.1458  2.2558 -0.8851
   75MOL   H34027128   6.811   1.306   4.048  0.4238  0.0953 -0.0405
   75MOL   H34127129   6.890   1.258   3.896  2.5298 -1.3922 -0.0070
   75MOL   H34227130   7.031   1.405   4.118  1.1403  0.8060 -0.0725
   75MOL   H34327131   7.089   1.347   3.956 -1.4938  0.3137 -2.4293
   75MOL   C34427132   7.006   1.578   3.864 -0.2345 -0.7803  0.2539
   75MOL   O34527133   7.110   1.553   3.805 -0.4427  0.4180  0.3592
   75MOL   C34627134   6.923   1.700   3.822  0.0491 -0.0351 -0.4427
   75MOL   C34727135   6.926   1.804   3.945  0.2884  0.0707 -0.5326
   75MOL   C34827136   6.818   1.783   4.053 -0.1565  0.1582  0.0094
   75MOL   C34927137   6.838   1.886   4.170 -0.1963  0.2546  0.1756
   75MOL   C35027138   6.972   1.869   4.242  0.8096  0.4504 -0.3180
   75MOL   O35127139   6.982   1.954   4.358 -0.2475  0.0218 -0.4831
   75MOL   H35227140   6.830   1.676   3.771 -0.3943  1.8797 -0.5744
   75MOL   H35327141   6.981   1.756   3.748 -0.1526  3.1158  1.6604
   75MOL   H35427142   6.916   1.903   3.899 -2.0554 -0.8919 -2.2083
   75MOL   H35527143   7.021   1.806   3.998 -0.1998 -1.7582  0.4286
   75MOL   H35627144   6.817   1.679   4.086  0.8283  0.3322  0.6136
   75MOL   H35727145   6.718   1.788   4.011 -1.2745  2.2336  2.7268
   75MOL   H35827146   6.752   1.894   4.237 -0.5720  1.0537 -0.3866
   75MOL   H35927147   6.846   1.980   4.116 -0.3403  0.8705  1.2101
   75MOL   H36027148   6.980   1.765   4.274 -2.3392  0.7121  1.4882
   75MOL   H36127149   7.059   1.881   4.177 -0.8210  0.4238 -2.5277
   75MOL   H36227150   7.064   1.928   4.397 -0.5312 -1.0459 -0.5667
   76MOL     C127151   2.189   3.759   6.121 -0.6752  0.3695 -0.4924
   76MOL     O227152   2.149   3.698   6.021  0.5630  0.4650 -0.3448
   76MOL     C327153   2.099   3.797   6.240  0.6935 -0.2382  0.0583
   76MOL     C427154   1.954   3.832   6.198 -0.4932  0.0338  0.5268
   76MOL     C527155   1.860   3.715   6.178  0.0348 -0.3459 -0.2719
   76MOL     C627156   1.834   3.636   6.309 -0.3633 -0.2236 -0.0972
   76MOL     C727157   1.747   3.507   6.275 -0.2268  0.8073 -0.4171
   76MOL     O827158   1.806   3.419   6.175 -0.2231 -0.0986  0.1535
   76MOL     H927159   2.143   3.881   6.293  1.9626 -0.6583 -0.3060
   76MOL    H1027160   2.081   3.724   6.319 -0.3285  0.2562  0.2966
   76MOL    H1127161   1.949   3.899   6.112  0.9385  0.2892  0.6198
   76MOL    H1227162   1.916   3.891   6.281 -0.1668  0.3888  0.4259
   76MOL    H1327163   1.887   3.648   6.096 -0.6987  1.2578 -1.8659
   76MOL    H1427164   1.767   3.760   6.145  0.8297  2.9897  1.7922
   76MOL    H1527165   1.783   3.703   6.378  1.8142  0.2593  1.0968
   76MOL    H1627166   1.920   3.600   6.364 -0.2965 -1.8019 -1.2169
   76MOL    H1727167   1.732   3.459   6.372 -1.3692  2.1348  0.0876
   76MOL    H1827168   1.647   3.537   6.244 -0.6536 -0.3596 -0.1929
   76MOL    H1927169   2.293   3.780   6.144 -0.9238  0.0768  0.9091
   76MOL    C2027170   1.892   3.328   6.222 -0.3623  0.3033  0.4697
   76MOL    O2127171   1.922   3.304   6.341  0.3186 -0.1958 -0.4855
   76MOL    C2227172   1.963   3.262   6.101 -0.1580  0.2764 -0.0459
   76MOL    C2327173   2.052   3.146   6.145  0.3279  0.0770  0.8129
   76MOL    C2427174   1.971   3.024   6.186  0.0370  0.3936 -0.0674
   76MOL    C2527175   2.056   2.898   6.223  1.0584 -0.8489 -0.1311
   76MOL    C2627176   1.975   2.769   6.221  0.4765  1.3662 -0.2989
   76MOL    O2727177   1.878   2.759   6.327  0.1151 -0.4333 -0.8296
   76MOL    H2827178   2.028   3.334   6.051 -0.9131 -1.1944 -3.2462
   76MOL    H2927179   1.892   3.222   6.029 -0.5735  2.1681 -0.7206
   76MOL    H3027180   2.120   3.168   6.227 -1.4462 -1.3062  2.7374
   76MOL    H3127181   2.100   3.114   6.053 -2.2930  1.9606 -1.2792
   76MOL    H3227182   1.904   2.989   6.108  0.9409  1.9772 -1.6033
   76MOL    H3327183   1.905   3.051   6.268  1.1019 -1.1082  1.3200
   76MOL    H3427184   2.096   2.907   6.324  0.8531 -1.2286 -0.0192
   76MOL    H3527185   2.134   2.881   6.148  3.2513 -1.6112  2.2438
   76MOL    H3627186   1.920   2.760   6.127 -0.5937 -1.2135  0.5116
   76MOL    H3727187   2.040   2.682   6.222 -0.6355  0.5101 -0.4938
   76MOL    C3827188   1.754   2.755   6.308  0.3188 -0.0594 -0.5737
   76MOL    O3927189   1.701   2.756   6.198  0.2084 -0.2463  0.4136
   76MOL    C4027190   1.664   2.781   6.431 -0.2078  0.1294  0.0678
   76MOL    C4127191   1.551   2.680   6.438 -0.2012  0.2087 -0.0336
   76MOL    C4227192   1.483   2.701   6.568 -0.0426  0.1246 -0.5845
   76MOL    C4327193   1.357   2.622   6.588 -0.6570  0.1512  0.3373
   76MOL    C4427194   1.295   2.651   6.719 -0.4628  0.6147 -0.1384
   76MOL    O4527195   1.363   2.585   6.828  0.9740 -0.2067  0.2184
   76MOL    H4627196   1.646   2.886   6.454  2.1614 -0.0975  3.2908
   76MOL    H4727197   1.730   2.749   6.511 -0.2474  0.7745  0.3669
   76MOL    H4827198   1.585   2.577   6.430 -0.4611  0.1244 -0.0651
   76MOL    H4927199   1.481   2.692   6.355  2.6084  0.5579 -2.4265
   76MOL    H5027200   1.458   2.807   6.572  1.9639  0.5772  0.7894
   76MOL    H5127201   1.557   2.684   6.647  1.5161 -0.2380 -2.0893
   76MOL    H5227202   1.381   2.516   6.577  1.9428  0.7657 -0.2578
   76MOL    H5327203   1.285   2.658   6.515 -0.4443 -1.9987 -0.9468
   76MOL    H5427204   1.312   2.758   6.737  0.6082  0.5125 -0.5046
   76MOL    H5527205   1.192   2.616   6.715 -0.8789  1.8987 -0.9096
   76MOL    C5627206   1.285   2.559   6.936 -0.1269 -0.3192  0.2908
   76MOL    O5727207   1.162   2.593   6.940  0.2201  0.2807 -0.2270
   76MOL    C5827208   1.352   2.487   7.054 -0.3390  0.4320  0.2402
   76MOL    C5927209   1.274   2.482   7.178  0.3244 -0.0219  0.7375
   76MOL    C6027210   1.280   2.609   7.268  0.0134  0.0452  0.3499
   76MOL    C6127211   1.202   2.588   7.402  0.0019  0.5052  0.7513
   76MOL    C6227212   1.244   2.672   7.517 -0.0643 -0.6046 -0.7287
   76MOL    O6327213   1.186   2.804   7.509 -0.0477  0.2324 -0.3537
   76MOL    H6427214   1.453   2.524   7.071 -0.0026 -0.1496 -0.4679
   76MOL    H6527215   1.368   2.385   7.019 -3.4444  0.3452 -1.1450
   76MOL    H6627216   1.309   2.394   7.232  0.1157 -0.2236  0.5448
   76MOL    H6727217   1.168   2.461   7.164  0.5215 -0.6168  0.1336
   76MOL    H6827218   1.248   2.701   7.221  0.0112 -1.6438 -3.1337
   76MOL    H6927219   1.381   2.627   7.304  0.6559 -0.2565 -1.2386
   76MOL    H7027220   1.206   2.482   7.430  2.6975  0.0117 -1.2752
   76MOL    H7127221   1.098   2.611   7.378  0.0817 -0.2758 -0.3622
   76MOL    H7227222   1.220   2.611   7.604  1.8224 -2.3920 -1.4279
   76MOL    H7327223   1.353   2.682   7.517 -0.2146  1.2703  0.1675
   76MOL    C7427224   1.153   2.857   7.629 -0.2861 -0.2993  1.2212
   76MOL    O7527225   1.160   2.800   7.737  0.1038 -0.0072 -0.1009
   76MOL    C7627226   1.102   3.003   7.621  0.7662  0.3304  0.6811
   76MOL    C7727227   1.221   3.107   7.601 -0.5655 -0.1027  0.1542
   76MOL    C7827228   1.268   3.163   7.734 -1.0731 -0.6061  0.5776
   76MOL    C7927229   1.387   3.249   7.714  1.2516  0.6596 -0.8310
   76MOL    C8027230   1.433   3.315   7.838 -0.2946 -0.2230 -0.2489
   76MOL    O8127231   1.365   3.439   0.020  0.2938  0.2894 -0.1584
   76MOL    H8227232   1.034   3.015   7.706  1.0397  1.2517  0.7783
   76MOL    H8327233   1.032   3.001   7.537  1.0896  1.0200  0.3906
   76MOL    H8427234   1.171   3.185   7.544 -0.2876  0.3900  0.5892
   76MOL    H8527235   1.295   3.053   7.541 -0.0182  0.4077  0.3614
   76MOL    H8627236   1.283   3.088   7.811  1.3401  0.5863  1.2945
   76MOL    H8727237   1.181   3.221   7.765  1.2191  2.9893  0.4710
   76MOL    H8827238   1.367   3.316   7.631 -2.3205  1.8832  0.8912
   76MOL    H8927239   1.458   3.183   7.664  2.3641  0.6999  0.6490
   76MOL    H9027240   1.418   3.240   0.072  1.6794 -3.0575 -2.4806
   76MOL    H9127241   1.540   3.337   7.834 -0.7678  2.7225  1.7803
   76MOL    C9227242   1.327   3.482   0.137 -0.3156  0.1551  0.3732
   76MOL    O9327243   1.363   3.429   0.240  0.1371  0.6650  0.7038
   76MOL    C9427244   1.229   3.591   0.120  0.4812  1.0011 -0.5259
   76MOL    C9527245   1.206   3.655   0.258 -0.7868  1.2111  0.4653
   76MOL    C9627246   1.314   3.764   0.289  0.1757  0.2495 -0.2986
   76MOL    C9727247   1.270   3.848   0.411  0.4574  0.2046  1.0038
   76MOL    C9827248   1.381   3.941   0.463  0.0539  0.0498  0.5394
   76MOL    O9927249   1.485   3.866   0.518  0.0379 -0.0281  0.1308
   76MOL   H10027250   1.140   3.543   0.079  0.5053 -0.8369  1.4943
   76MOL   H10127251   1.251   3.668   0.046  0.1308  1.7622  0.1579
   76MOL   H10227252   1.206   3.576   0.333 -1.7889  0.8751  0.1184
   76MOL   H10327253   1.110   3.705   0.268 -0.8324  1.0345  0.9240
   76MOL   H10427254   1.323   3.832   0.204  0.0955  0.8760  0.1952
   76MOL   H10527255   1.401   3.701   0.308 -2.1594 -2.7047  1.0404
   76MOL   H10627256   1.249   3.790   0.501  2.2225 -0.9398  0.6846
   76MOL   H10727257   1.179   3.905   0.391  1.7120  2.0941  0.5141
   76MOL   H10827258   1.413   4.004   0.380 -0.2875  2.5317  2.2286
   76MOL   H10927259   1.348   4.013   0.538  0.8231  0.4096  0.5361
   76MOL   C11027260   1.611   3.909   0.508 -0.0177  0.4872 -0.2031
   76MOL   O11127261   1.652   4.019   0.469  0.3694  0.1234 -0.2433
   76MOL   C11227262   1.713   3.804   0.549 -0.2420  0.3696  0.3703
   76MOL   C11327263   1.756   3.821   0.695 -0.7271  0.5580  0.0153
   76MOL   C11427264   1.645   3.785   0.796 -0.1680 -0.1105 -0.2516
   76MOL   C11527265   1.694   3.794   0.945  0.2473  0.7684 -0.0568
   76MOL   C11627266   1.586   3.762   1.042 -0.3255 -0.0809  0.4341
   76MOL   O11727267   1.531   3.630   1.029 -0.4945  0.4756 -0.0161
   76MOL   H11827268   1.798   3.807   0.481  0.5485  1.1694  1.3728
   76MOL   H11927269   1.664   3.707   0.546 -0.8362  0.7205 -1.5689
   76MOL   H12027270   1.801   3.918   0.711  1.6756 -0.3267 -1.1782
   76MOL   H12127271   1.825   3.738   0.713 -0.8738  0.3890 -0.1982
   76MOL   H12227272   1.613   3.687   0.763 -0.3666 -0.2122  0.2426
   76MOL   H12327273   1.559   3.847   0.774 -0.5796 -0.9685 -1.0655
   76MOL   H12427274   1.736   3.894   0.952  1.5290  0.3786 -1.7609
   76MOL   H12527275   1.775   3.721   0.945  1.8481  2.5052 -0.5409
   76MOL   H12627276   1.617   3.794   1.141  0.9598  0.5255 -0.1591
   76MOL   H12727277   1.506   3.829   1.008 -1.6489 -1.9968 -0.3622
   76MOL   C12827278   1.578   3.523   1.098 -0.8662  0.2251 -0.2132
   76MOL   O12927279   1.669   3.534   1.186  0.2617  0.5775  0.7701
   76MOL   C13027280   1.506   3.387   1.072 -0.1609  0.0192 -0.2438
   76MOL   C13127281   1.488   3.332   0.928  0.2439  0.0399  0.4031
   76MOL   C13227282   1.400   3.206   0.932  0.0411  0.1501 -0.2859
   76MOL   C13327283   1.257   3.237   0.964 -0.5665 -0.0732 -0.1376
   76MOL   C13427284   1.168   3.118   0.990  0.2321  0.1072  0.3927
   76MOL   O13527285   1.163   3.047   0.864 -0.0541 -0.2490 -0.1552
   76MOL   H13627286   1.411   3.399   1.124  0.0085 -0.9395  0.3155
   76MOL   H13727287   1.558   3.313   1.134  2.0141 -0.0090 -2.0370
   76MOL   H13827288   1.589   3.311   0.892  0.0007 -1.7444  0.7290
   76MOL   H13927289   1.431   3.401   0.865 -1.5815 -0.7750  1.1114
   76MOL   H14027290   1.444   3.135   1.003  1.4134  0.0406 -1.2400
   76MOL   H14127291   1.405   3.151   0.838 -1.8741  0.5984 -0.6689
   76MOL   H14227292   1.221   3.292   0.877 -0.2329 -2.3217 -1.7517
   76MOL   H14327293   1.248   3.294   1.056 -0.6006 -1.9789  1.0670
   76MOL   H14427294   1.202   3.064   1.078  1.1192  0.5603  0.3325
   76MOL   H14527295   1.065   3.142   1.017  0.1082  0.5607 -0.4582
   76MOL   C14627296   1.165   2.912   0.875 -0.8487 -0.5057 -0.2273
   76MOL   O14727297   1.152   2.850   0.982  0.6634  0.3211  0.4266
   76MOL   C14827298   1.202   2.834   0.748  0.0996  0.6317  0.3076
   76MOL   C14927299   1.350   2.787   0.751 -0.1829  0.1344 -0.8771
   76MOL   C15027300   1.415   2.730   0.626 -0.1634 -0.5185  0.1620
   76MOL   C15127301   1.546   2.657   0.651 -0.2667 -0.0592 -0.2278
   76MOL   C15227302   1.667   2.760   0.658  0.6302 -0.0375 -0.6042
   76MOL   O15327303   1.793   2.701   0.639 -0.2728 -0.2126 -0.3749
   76MOL   H15427304   1.179   2.910   0.673 -1.3661  0.6408  0.7480
   76MOL   H15527305   1.136   2.751   0.725  0.7167  0.6530 -1.5763
   76MOL   H15627306   1.352   2.708   0.827  1.0709 -0.2787 -1.3319
   76MOL   H15727307   1.415   2.866   0.788  1.1854 -1.4406  0.2067
   76MOL   H15827308   1.425   2.815   0.558 -0.1437 -0.5507  0.1241
   76MOL   H15927309   1.338   2.670   0.577 -0.7065 -0.9621  1.5290
   76MOL   H16027310   1.569   2.593   0.566  0.2248 -0.3660  0.1346
   76MOL   H16127311   1.536   2.593   0.739 -0.7187  0.6929  0.2758
   76MOL   H16227312   1.659   2.825   0.570 -0.2958 -1.6031 -1.7141
   76MOL   H16327313   1.659   2.821   0.748 -0.4484  0.5653 -1.0913
   76MOL   C16427314   1.856   2.650   0.746  0.8009 -0.0759  0.1585
   76MOL   O16527315   1.818   2.655   0.863  0.1525  0.5027 -0.1159
   76MOL   C16627316   1.981   2.572   0.704 -0.5113  0.8609  0.3550
   76MOL   C16727317   2.108   2.658   0.703  0.5108  0.3870  0.3364
   76MOL   C16827318   2.092   2.787   0.635  0.0636  0.2312  0.8941
   76MOL   C16927319   2.073   2.777   0.478 -0.0373 -0.5579  0.3303
   76MOL   C17027320   2.044   2.917   0.422  0.6959  0.4394 -0.3888
   76MOL   O17127321   2.030   2.920   0.284  1.4407  0.5941 -0.3510
   76MOL   H17227322   1.977   2.532   0.603  0.3510 -0.6064  0.8842
   76MOL   H17327323   1.995   2.486   0.770  1.8257 -1.1326 -2.6407
   76MOL   H17427324   2.186   2.597   0.657  0.0456  0.7940 -1.0238
   76MOL   H17527325   2.137   2.680   0.805  1.0274  2.5237 -0.2478
   76MOL   H17627326   2.184   2.843   0.652 -0.4323  0.9105  1.3507
   76MOL   H17727327   2.021   2.846   0.693 -0.3171  1.0082 -0.3446
   76MOL   H17827328   1.990   2.707   0.467  1.1584 -2.0671  0.7952
   76MOL   H17927329   2.161   2.737   0.427  1.1875  1.0146  1.1748
   76MOL   H18027330   1.955   2.958   0.469  0.3769 -1.0439  0.3233
   76MOL   H18127331   2.132   2.979   0.438  0.9640 -0.2441  0.8036
   76MOL   C18227332   2.136   2.920   0.206 -0.5788 -0.3013  0.9020
   76MOL   O18327333   2.253   2.909   0.246  0.7579  0.3996  1.0812
   76MOL   C18427334   2.097   2.924   0.056 -0.2343 -0.1530 -0.1904
   76MOL   C18527335   2.217   2.908   7.805  0.7270 -0.7325 -0.4909
   76MOL   C18627336   2.265   2.764   7.801 -0.0610 -0.5095 -0.0015
   76MOL   C18727337   2.365   2.746   7.681  0.6183  0.2189 -0.3879
   76MOL   C18827338   2.400   2.599   7.644  1.2265  0.6609  0.3525
   76MOL   O18927339   2.288   2.513   7.626 -0.8279  0.4282  0.4181
   76MOL   H19027340   2.042   3.016   0.035 -0.1566  0.6494  2.7832
   76MOL   H19127341   2.011   2.860   0.040 -0.9004  0.2938  1.4148
   76MOL   H19227342   2.301   2.972   7.832  0.3470 -0.9990  1.4649
   76MOL   H19327343   2.190   2.946   7.707 -0.9234 -0.8033 -0.0878
   76MOL   H19427344   2.188   2.692   7.773 -0.6174 -0.7843  2.1492
   76MOL   H19527345   2.306   2.731   0.052  1.0453  1.0090  0.0664
   76MOL   H19627346   2.455   2.804   7.701 -0.3116  0.7112  2.7823
   76MOL   H19727347   2.312   2.793   7.598  1.6100  0.0238 -1.1287
   76MOL   H19827348   2.461   2.593   7.554 -1.8939 -0.4107 -1.8118
   76MOL   H19927349   2.459   2.554   7.723 -1.0145 -0.3736  1.4945
   76MOL   C20027350   2.233   2.501   7.507 -0.9762 -0.1079  0.1759
   76MOL   O20127351   2.260   2.573   7.413  0.4398 -0.3310 -0.8196
   76MOL   C20227352   2.112   2.411   7.500 -0.1951 -0.3664 -0.0137
   76MOL   C20327353   2.012   2.427   7.615  0.3183 -0.4021  0.2088
   76MOL   C20427354   1.945   2.564   7.614  0.2321  1.0631  0.4132
   76MOL   C20527355   1.825   2.581   7.706 -0.0178  0.1924 -0.2016
   76MOL   C20627356   1.767   2.729   7.705 -0.1795  0.7999  0.1098
   76MOL   O20727357   1.718   2.772   7.581  0.6355  0.0430 -0.8100
   76MOL   H20827358   2.144   2.307   7.504  1.0799 -0.0096 -0.6569
   76MOL   H20927359   2.066   2.422   7.401  0.6073 -1.7659 -0.5484
   76MOL   H21027360   2.074   2.415   7.704 -0.2256 -0.7961  0.5412
   76MOL   H21127361   1.937   2.348   7.606 -0.9251  0.7651  0.1186
   76MOL   H21227362   1.897   2.570   7.516 -1.2456 -1.3379  0.9545
   76MOL   H21327363   2.018   2.643   7.630  0.6942  0.6253  0.4929
   76MOL   H21427364   1.873   2.572   7.804  0.6375 -0.7291 -0.6030
   76MOL   H21527365   1.747   2.505   7.694 -0.4348  0.9478 -2.4216
   76MOL   H21627366   1.697   2.745   7.787 -1.6190  0.1715 -0.9563
   76MOL   H21727367   1.850   2.795   7.727 -0.6926  1.1406  1.0506
   76MOL   C21827368   1.595   2.838   7.574  0.0448  0.1849  0.1196
   76MOL   O21927369   1.521   2.852   7.669 -0.0669  0.3248 -0.3559
   76MOL   C22027370   1.570   2.887   7.429 -0.2737 -0.1427 -0.1611
   76MOL   C22127371   1.686   2.978   7.374 -0.7754  0.2617  0.2749
   76MOL   C22227372   1.681   3.124   7.439  0.2978  0.0570 -0.0604
   76MOL   C22327373   1.574   3.213   7.371  0.1035  0.8099  0.7929
   76MOL   C22427374   1.638   3.307   7.273  0.3952  0.4620  0.0940
   76MOL   O22527375   1.724   3.232   7.188  0.9479 -0.0763 -0.0004
   76MOL   H22627376   1.476   2.942   7.427 -1.4243 -2.0548 -3.5753
   76MOL   H22727377   1.553   2.801   7.364  1.0478 -0.4848 -0.0750
   76MOL   H22827378   1.680   2.968   7.266 -2.4200 -0.9762  0.4550
   76MOL   H22927379   1.783   2.934   7.398 -0.5038  1.3343  1.1805
   76MOL   H23027380   1.778   3.172   7.430 -0.2584  1.3418  0.6288
   76MOL   H23127381   1.658   3.130   7.545  0.6829  2.8193 -0.0853
   76MOL   H23227382   1.507   3.272   7.434 -1.9249 -1.5646  0.9449
   76MOL   H23327383   1.499   3.145   7.329 -1.2704  0.8320  3.1002
   76MOL   H23427384   1.551   3.336   7.214 -0.0503 -0.5182  0.2742
   76MOL   H23527385   1.685   3.392   7.324  1.3378  0.5709 -0.9252
   76MOL   C23627386   1.764   3.277   7.070  0.4907  0.6833 -0.1665
   76MOL   O23727387   1.700   3.351   6.997  0.1304  0.0795 -0.3193
   76MOL   C23827388   1.911   3.233   7.043  0.7991  0.2859  0.1322
   76MOL   C23927389   2.017   3.311   7.122  0.0525  0.2268 -0.1825
   76MOL   C24027390   2.029   3.235   7.252  0.2262  0.8239  0.1241
   76MOL   C24127391   2.141   3.281   7.341 -0.5922 -0.6242 -0.1473
   76MOL   C24227392   2.151   3.220   7.482 -0.3960  0.1989 -0.6788
   76MOL   O24327393   2.061   3.278   7.570  0.0967 -0.0459  0.5243
   76MOL   H24427394   1.938   3.258   6.940  1.3999  1.0857  0.4804
   76MOL   H24527395   1.925   3.126   7.053  0.8537  0.2699 -0.1177
   76MOL   H24627396   1.976   3.411   7.131 -1.9400 -0.5239 -0.4457
   76MOL   H24727397   2.113   3.301   7.073 -0.1532 -2.7224 -0.1230
   76MOL   H24827398   2.050   3.130   7.233  1.0080  0.3447  3.3058
   76MOL   H24927399   1.937   3.253   7.309 -0.2841 -0.1914 -0.3549
   76MOL   H25027400   2.134   3.387   7.361  4.1687 -0.5716  1.9395
   76MOL   H25127401   2.233   3.264   7.284 -1.2666 -2.9924 -0.6043
   76MOL   H25227402   2.143   3.111   7.488  0.2804  0.2601  1.9251
   76MOL   H25327403   2.252   3.252   7.507 -0.2725  0.0481 -0.9814
   76MOL   C25427404   2.082   3.277   7.701  0.0308 -0.5123 -0.1714
   76MOL   O25527405   2.182   3.237   7.760  0.2591  0.0508 -0.2562
   76MOL   C25627406   1.976   3.369   7.765  0.6298  0.0388 -0.1308
   76MOL   C25727407   1.829   3.320   7.734  0.3358  0.0356  0.8636
   76MOL   C25827408   1.787   3.189   7.812  0.1308 -1.3775  0.2098
   76MOL   C25927409   1.814   3.208   0.115 -0.0872 -0.0161 -0.0136
   76MOL   C26027410   1.748   3.102   0.203 -0.1733 -0.6123 -0.2923
   76MOL   O26127411   1.606   3.103   0.197  0.3018  0.0422 -0.2667
   76MOL   H26227412   2.006   3.467   7.729  1.1479  0.4798  1.4329
   76MOL   H26327413   2.000   3.389   0.025  1.1824 -1.6140  0.0657
   76MOL   H26427414   1.812   3.309   7.626 -2.3200  0.8464  1.1734
   76MOL   H26527415   1.758   3.394   7.769 -0.6827 -0.1457 -0.7549
   76MOL   H26627416   1.855   3.108   7.783 -0.1032 -1.4642 -0.0981
   76MOL   H26727417   1.686   3.151   7.801 -0.1401 -0.1555 -1.7892
   76MOL   H26827418   1.781   3.308   0.142 -3.9607 -0.5462 -2.3884
   76MOL   H26927419   1.919   3.199   0.140 -0.3376 -0.4100  0.9326
   76MOL   H27027420   1.778   3.003   0.168 -2.0245 -0.8693 -1.2022
   76MOL   H27127421   1.783   3.111   0.306  4.2006  2.6694 -1.8684
   76MOL   C27227422   1.529   3.047   0.295  0.4660 -0.5110  0.1802
   76MOL   O27327423   1.578   3.010   0.401 -0.5694 -0.6728  0.4003
   76MOL   C27427424   1.379   3.028   0.266 -0.3952 -0.1378 -0.1888
   76MOL   C27527425   1.341   2.916   0.168  0.9972  0.1218  0.1607
   76MOL   C27627426   1.381   2.780   0.218 -0.3112  0.5239 -0.2528
   76MOL   C27727427   1.360   2.671   0.110  0.0836  0.0213 -0.2044
   76MOL   C27827428   1.391   2.531   0.153  0.0738 -0.7027 -0.0628
   76MOL   O27927429   1.518   2.481   0.124  0.1445  0.1861 -0.4257
   76MOL   H28027430   1.354   3.128   0.231 -1.5195 -0.1733  0.4772
   76MOL   H28127431   1.340   3.014   0.367 -0.5047  2.8746  0.2370
   76MOL   H28227432   1.389   2.938   0.073  2.6409 -1.1509  0.6712
   76MOL   H28327433   1.235   2.924   0.147  1.1699 -0.5867 -1.0067
   76MOL   H28427434   1.311   2.755   0.298 -0.4860  1.4379 -0.1137
   76MOL   H28527435   1.482   2.769   0.258  0.2755 -1.4402 -2.1741
   76MOL   H28627436   1.397   2.696   0.010  0.8385 -1.1034 -0.2159
   76MOL   H28727437   1.251   2.671   0.098 -0.1299  3.3579  1.1751
   76MOL   H28827438   1.371   2.508   0.257 -1.3368  0.9856  0.0703
   76MOL   H28927439   1.327   2.462   0.098 -0.1728  0.1356 -0.8466
   76MOL   C29027440   1.619   2.497   0.210  0.0560  0.4322  0.6732
   76MOL   O29127441   1.613   2.553   0.321  0.0955  0.2223 -0.0349
   76MOL   C29227442   1.737   2.412   0.162 -0.0386 -0.4191  0.2438
   76MOL   C29327443   1.723   2.258   0.207 -0.4556  0.4476 -0.8599
   76MOL   C29427444   1.611   2.177   0.131 -0.7372 -0.3281  0.4254
   76MOL   C29527445   1.568   2.041   0.202  0.4573  0.1094 -0.3172
   76MOL   C29627446   1.424   1.991   0.144  0.2144 -0.9745  0.1951
   76MOL   O29727447   1.317   2.053   0.219 -0.2223  0.2861 -0.0150
   76MOL   H29827448   1.832   2.454   0.194  0.1112 -0.0885 -0.6188
   76MOL   H29927449   1.733   2.417   0.053  1.1807 -0.2978  0.1967
   76MOL   H30027450   1.694   2.279   0.310 -1.3459 -0.5604 -0.8951
   76MOL   H30127451   1.817   2.203   0.198 -1.0364 -0.4925 -1.2031
   76MOL   H30227452   1.632   2.154   0.027  3.2912  1.6680  0.7149
   76MOL   H30327453   1.525   2.244   0.140  1.0485  2.1216 -0.1365
   76MOL   H30427454   1.564   2.033   0.311  0.0434 -1.8114 -0.4456
   76MOL   H30527455   1.646   1.964   0.194 -0.3931 -1.1424  2.5303
   76MOL   H30627456   1.419   2.021   0.039  1.5550  3.3448  1.2352
   76MOL   H30727457   1.416   1.883   0.137 -2.0505 -0.7054 -1.8634
   76MOL   C30827458   1.190   2.045   0.186  0.1535  0.5143 -0.0450
   76MOL   O30927459   1.143   1.972   0.096 -0.6070 -0.3916  0.7608
   76MOL   C31027460   1.103   2.127   0.276 -0.3732  0.2228  0.1878
   76MOL   C31127461   1.128   2.275   0.255  0.3908 -0.5930 -0.5077
   76MOL   C31227462   1.036   2.373   0.336 -0.1714  1.3380  1.1620
   76MOL   C31327463   1.069   2.517   0.315  0.4823  0.1386 -0.8070
   76MOL   C31427464   0.996   2.618   0.411 -0.3189  0.1838 -0.5215
   76MOL   O31527465   1.035   2.754   0.386 -0.1694 -0.4784 -0.5244
   76MOL   H31627466   1.106   2.101   0.381 -1.9201  0.4349  0.2971
   76MOL   H31727467   1.004   2.091   0.248 -0.0173 -1.5772  1.1902
   76MOL   H31827468   1.119   2.289   0.147 -1.6782 -0.0706 -0.2835
   76MOL   H31927469   1.227   2.307   0.287 -0.0946  0.0211  0.3833
   76MOL   H32027470   1.048   2.340   0.439  1.0806  0.1754  0.6765
   76MOL   H32127471   0.937   2.347   0.298  0.0717  0.0185  1.4013
   76MOL   H32227472   1.047   2.541   0.211 -2.2474 -1.2230 -0.5849
   76MOL   H32327473   1.174   2.543   0.323  0.3490  0.8085 -1.2293
   76MOL   H32427474   0.889   2.597   0.422 -0.3093  0.2696 -0.2599
   76MOL   H32527475   1.040   2.613   0.511  1.5558  1.5171 -1.2684
   76MOL   C32627476   0.982   2.858   0.451  0.1654  0.7290  0.0363
   76MOL   O32727477   0.890   2.854   0.538 -0.3525 -0.7992  0.4691
   76MOL   C32827478   1.046   2.994   0.408  0.0160 -0.1800 -0.0071
   76MOL   C32927479   0.938   3.107   0.411 -0.0719  0.0004  0.0634
   76MOL   C33027480   0.987   3.244   0.380  0.2479  0.7136 -0.3282
   76MOL   C33127481   1.087   3.312   0.472 -0.0307 -0.3634 -0.1725
   76MOL   C33227482   1.050   3.349   0.619 -0.4505  0.3985 -0.3580
   76MOL   O33327483   0.944   3.448   0.618 -0.1316 -0.1392  0.1120
   76MOL   H33427484   1.089   2.988   0.308 -1.2372 -1.2236 -0.4957
   76MOL   H33527485   1.127   3.020   0.476  0.6931 -0.9278 -0.5288
   76MOL   H33627486   0.904   3.098   0.514  2.2458 -0.7959  0.7766
   76MOL   H33727487   0.861   3.081   0.337  0.0364 -2.5763  0.7999
   76MOL   H33827488   0.900   3.310   0.382 -0.1470  0.1623  1.3241
   76MOL   H33927489   1.033   3.236   0.282  0.1213 -2.7520 -0.1723
   76MOL   H34027490   1.118   3.408   0.428  0.2854  0.5810  2.0632
   76MOL   H34127491   1.180   3.256   0.467  0.7496  1.0807 -2.8776
   76MOL   H34227492   1.032   3.268   0.689 -0.1068  0.6642  0.0474
   76MOL   H34327493   1.139   3.389   0.670 -0.2264 -1.9662  1.1865
   76MOL   C34427494   0.971   3.576   0.627 -0.3899  0.1235  0.6856
   76MOL   O34527495   1.083   3.622   0.620 -0.3711  0.0611  0.1075
   76MOL   C34627496   0.851   3.664   0.646 -0.0879 -0.2814 -0.0548
   76MOL   C34727497   0.773   3.652   0.783  0.1682  0.2689  0.2740
   76MOL   C34827498   0.632   3.715   0.781 -0.6869 -0.4045 -0.2905
   76MOL   C34927499   0.532   3.638   0.687 -0.0680 -0.2581 -0.3488
   76MOL   C35027500   0.390   3.703   0.698 -0.0637  0.4947  0.2129
   76MOL   O35127501   0.318   3.654   0.598 -0.0283  0.1452 -0.4885
   76MOL   H35227502   0.796   3.635   0.557 -0.5782 -0.6256  0.3582
   76MOL   H35327503   0.873   3.768   0.625 -4.5485  0.4591 -1.6685
   76MOL   H35427504   0.831   3.709   0.856  0.8445  1.6034 -1.2601
   76MOL   H35527505   0.777   3.548   0.814  0.6485  0.7536  1.8909
   76MOL   H35627506   0.641   3.819   0.751  0.0728 -0.1457  0.8038
   76MOL   H35727507   0.608   3.727   0.887  2.5792 -1.2462  0.5906
   76MOL   H35827508   0.522   3.534   0.718 -0.8779 -0.0665  0.0482
   76MOL   H35927509   0.567   3.633   0.583  0.3999  1.9752 -0.3304
   76MOL   H36027510   0.339   3.688   0.793 -2.3959 -0.7172 -1.1829
   76MOL   H36127511   0.399   3.811   0.692 -2.8103  0.7930  0.7361
   76MOL   H36227512   0.227   3.681   0.606  0.4514  1.8867 -0.7284
   77MOL     C127513   6.563   6.623   2.734  0.0952 -0.3016  0.2774
   77MOL     O227514   6.582   6.574   2.840  0.8384  0.8605  0.0567
   77MOL     C327515   6.658   6.737   2.683 -0.4725 -0.6629 -0.1120
   77MOL     C427516   6.675   6.858   2.776  0.3716 -0.3174 -0.3944
   77MOL     C527517   6.541   6.935   2.816  0.1553  0.7889  0.1706
   77MOL     C627518   6.562   7.063   2.901  0.0884 -0.6861 -0.6238
   77MOL     C727519   6.439   7.138   2.920  0.5682 -1.0168 -0.3697
   77MOL     O827520   6.391   7.180   2.792 -0.2595 -0.2581 -0.2121
   77MOL     H927521   6.632   6.771   2.582  0.4694  2.5966  0.6862
   77MOL    H1027522   6.757   6.691   2.682  0.3266  0.9720  0.8385
   77MOL    H1127523   6.736   6.939   2.737  1.5132 -1.9590 -2.1341
   77MOL    H1227524   6.733   6.826   2.863  0.0506 -0.1183 -0.1098
   77MOL    H1327525   6.481   6.864   2.872 -0.1373  0.0241 -1.0729
   77MOL    H1427526   6.483   6.955   2.726 -0.4478 -2.1074 -0.1354
   77MOL    H1527527   6.639   7.125   2.854 -0.5998  1.5357  1.1061
   77MOL    H1627528   6.589   7.032   3.002  0.9167  1.0508 -0.2962
   77MOL    H1727529   6.368   7.067   2.964  0.0203 -0.9953 -1.2027
   77MOL    H1827530   6.451   7.224   2.987  2.7605 -1.2728 -0.4237
   77MOL    H1927531   6.479   6.606   2.666 -0.1398 -3.8115  1.3239
   77MOL    C2027532   6.269   7.236   2.800  0.1801  0.5571 -0.0881
   77MOL    O2127533   6.211   7.255   2.908 -0.2552 -0.0431 -0.0506
   77MOL    C2227534   6.213   7.269   2.664  0.3156  0.0928  0.4122
   77MOL    C2327535   6.198   7.167   2.561  0.1743 -0.6241 -0.1641
   77MOL    C2427536   6.097   7.051   2.596  0.1215 -0.2146 -0.2639
   77MOL    C2527537   5.950   7.087   2.612 -0.8519 -0.1635 -0.6167
   77MOL    C2627538   5.862   6.971   2.659  0.5792  0.1448  0.1912
   77MOL    O2727539   5.735   7.015   2.699  0.3997 -0.0988  0.5195
   77MOL    H2827540   6.285   7.345   2.634 -1.1316  0.5851 -1.9381
   77MOL    H2927541   6.119   7.321   2.680  0.8226  1.1723 -0.0479
   77MOL    H3027542   6.296   7.118   2.553  0.8887  0.6896  0.3706
   77MOL    H3127543   6.173   7.216   2.467  0.5364  1.5029  0.8094
   77MOL    H3227544   6.122   6.998   2.687  1.0920  1.4771  0.4873
   77MOL    H3327545   6.112   6.977   2.518  0.9368 -0.7689  0.4159
   77MOL    H3427546   5.908   7.131   2.522  3.2063  2.9029 -1.1880
   77MOL    H3527547   5.951   7.167   2.686 -1.2165 -0.5479 -0.2011
   77MOL    H3627548   5.859   6.892   2.584  0.2847 -0.3805  0.7480
   77MOL    H3727549   5.908   6.925   2.746 -0.7189  0.7800  1.2394
   77MOL    C3827550   5.629   6.940   2.659 -0.1904 -0.0660  0.7595
   77MOL    O3927551   5.629   6.848   2.583  0.0864 -0.0837 -0.6483
   77MOL    C4027552   5.490   6.994   2.717 -0.1785  0.3034  0.0186
   77MOL    C4127553   5.381   6.953   2.624  0.2913  0.0593  0.2029
   77MOL    C4227554   5.236   6.942   2.673  0.2239 -0.0836 -0.5920
   77MOL    C4327555   5.212   6.845   2.793 -0.0318 -0.0761  0.2061
   77MOL    C4427556   5.088   6.891   2.871  0.0915  0.1348  0.0173
   77MOL    O4527557   4.970   6.899   2.794 -0.6706 -0.1263  0.9531
   77MOL    H4627558   5.500   7.102   2.717  0.1266  0.2872  1.4319
   77MOL    H4727559   5.462   6.959   2.817 -0.3782  0.0678 -0.1190
   77MOL    H4827560   5.395   6.852   2.585 -1.2497 -0.5409  1.1615
   77MOL    H4927561   5.384   7.024   2.542  0.4380 -1.1270 -0.8361
   77MOL    H5027562   5.177   6.900   2.591 -0.9843 -0.2560  0.3489
   77MOL    H5127563   5.204   7.042   2.701  0.0348 -0.4193  0.4023
   77MOL    H5227564   5.291   6.849   2.867 -0.4669  2.9871  0.5388
   77MOL    H5327565   5.197   6.741   2.762 -1.3255  0.7883 -2.2714
   77MOL    H5427566   5.080   6.826   2.959 -1.0912  3.9598  2.8860
   77MOL    H5527567   5.107   6.990   2.913 -1.0127  0.2008  0.3772
   77MOL    C5627568   4.873   6.806   2.798  0.2027  0.2163 -0.5628
   77MOL    O5727569   4.890   6.697   2.851  0.5520 -0.6607  0.2270
   77MOL    C5827570   4.751   6.845   2.721 -0.1945 -0.1409  0.0848
   77MOL    C5927571   4.741   6.787   2.579  0.0690 -0.1973 -0.5226
   77MOL    C6027572   4.860   6.809   2.485  0.1453  0.4819  0.0629
   77MOL    C6127573   4.828   6.799   2.334 -0.1958 -0.5373  0.3227
   77MOL    C6227574   4.955   6.746   2.257  0.5445 -0.4805 -0.3620
   77MOL    O6327575   5.066   6.841   2.291 -0.7394  0.0598 -0.1778
   77MOL    H6427576   4.740   6.953   2.709 -0.5025 -0.3856 -2.1382
   77MOL    H6527577   4.663   6.824   2.781 -1.0987  2.3449 -0.2816
   77MOL    H6627578   4.654   6.826   2.526 -0.2443 -1.6594 -1.0982
   77MOL    H6727579   4.723   6.681   2.591  0.0756 -0.0278  0.9791
   77MOL    H6827580   4.934   6.733   2.510  0.0939 -0.2816 -1.9903
   77MOL    H6927581   4.908   6.904   2.510 -2.0969  1.7132 -0.1422
   77MOL    H7027582   4.807   6.899   2.298 -0.4013 -1.7358 -3.0769
   77MOL    H7127583   4.750   6.724   2.322 -0.6562  0.0527 -0.4251
   77MOL    H7227584   4.987   6.646   2.286 -0.0129 -0.5590 -0.0117
   77MOL    H7327585   4.928   6.754   2.152  1.1927  1.6701 -0.3852
   77MOL    C7427586   5.137   6.893   2.194 -0.4688 -1.0750 -0.3655
   77MOL    O7527587   5.124   6.870   2.074  0.7301 -0.5259 -0.1947
   77MOL    C7627588   5.243   6.991   2.245  0.3097  0.9585 -0.3176
   77MOL    C7727589   5.189   7.129   2.281  0.6571 -0.0717 -0.4609
   77MOL    C7827590   5.104   7.210   2.176  0.4058 -0.0104 -0.2272
   77MOL    C7927591   5.093   7.359   2.212 -0.4597  0.2295  0.7154
   77MOL    C8027592   4.992   7.442   2.128  0.1795 -0.3760  0.1353
   77MOL    O8127593   5.001   7.427   1.987 -0.8771  0.4357  0.0067
   77MOL    H8227594   5.315   7.001   2.164  0.3317  1.5310 -0.2277
   77MOL    H8327595   5.292   6.939   2.327  1.2445 -0.9236 -2.0098
   77MOL    H8427596   5.275   7.192   2.304 -0.4519  1.7165 -1.1003
   77MOL    H8527597   5.136   7.120   2.376  0.9127 -0.7152 -0.3760
   77MOL    H8627598   5.008   7.162   2.161  0.1274  0.2568  0.6879
   77MOL    H8727599   5.142   7.208   2.073  1.1397 -2.5626  0.0517
   77MOL    H8827600   5.195   7.396   2.201 -0.1946 -1.2775 -2.7187
   77MOL    H8927601   5.064   7.346   2.316 -0.5525 -1.5234  0.4785
   77MOL    H9027602   4.893   7.415   2.165  0.1982  0.3980  0.7661
   77MOL    H9127603   4.998   7.545   2.164 -1.5902 -0.2170  0.0164
   77MOL    C9227604   5.006   7.533   1.897 -0.5301  0.0751 -0.1461
   77MOL    O9327605   5.013   7.651   1.924  0.7361 -0.1837 -0.1880
   77MOL    C9427606   5.006   7.477   1.760 -0.1533 -0.1445 -0.4225
   77MOL    C9527607   4.967   7.580   1.661 -0.6663  1.0418 -0.5988
   77MOL    C9627608   4.908   7.522   1.525  1.0451  0.9650  0.1092
   77MOL    C9727609   4.780   7.432   1.544  0.3534  0.1558 -0.1920
   77MOL    C9827610   4.729   7.384   1.408 -0.4955 -0.4981 -0.2831
   77MOL    O9927611   4.610   7.308   1.429  0.4518  0.0183  1.4428
   77MOL   H10027612   4.936   7.393   1.763  0.0524 -0.3219 -0.6146
   77MOL   H10127613   5.106   7.438   1.740  0.5446  1.4330 -0.0915
   77MOL   H10227614   5.047   7.651   1.641 -1.3356  1.4415 -1.9163
   77MOL   H10327615   4.891   7.645   1.705 -1.5808 -1.2719  1.3527
   77MOL   H10427616   4.990   7.470   1.477 -0.3992  0.3715 -1.7745
   77MOL   H10527617   4.873   7.604   1.462 -0.1239 -1.7374 -2.8337
   77MOL   H10627618   4.697   7.490   1.585  0.2109 -0.4428  0.3744
   77MOL   H10727619   4.782   7.343   1.606 -1.2023 -0.0588 -0.4339
   77MOL   H10827620   4.721   7.475   1.349 -1.5475  2.0898  3.6598
   77MOL   H10927621   4.794   7.322   1.346 -2.5109 -0.0751 -2.9396
   77MOL   C11027622   4.610   7.178   1.405  0.2377  0.0183  0.9993
   77MOL   O11127623   4.715   7.111   1.400 -0.1934  0.3402  0.2785
   77MOL   C11227624   4.474   7.123   1.376 -0.0720  0.0779  0.2027
   77MOL   C11327625   4.359   7.179   1.458 -0.1507  0.3897 -0.1529
   77MOL   C11427626   4.362   7.139   1.605 -0.1707 -0.1886 -1.7770
   77MOL   C11527627   4.433   7.236   1.694  0.2608 -0.2673 -0.2568
   77MOL   C11627628   4.401   7.389   1.687  0.3654  0.2730 -0.5225
   77MOL   O11727629   4.492   7.472   1.758  0.8512 -0.0744 -0.5736
   77MOL   H11827630   4.486   7.015   1.375  1.3768  0.2154  0.9736
   77MOL   H11927631   4.457   7.115   1.269 -1.6421  0.7917  0.3838
   77MOL   H12027632   4.267   7.138   1.416  1.2089 -1.3432 -1.5020
   77MOL   H12127633   4.350   7.285   1.433 -0.7014 -0.2126 -2.6908
   77MOL   H12227634   4.403   7.040   1.629  0.0479 -0.2847 -2.5214
   77MOL   H12327635   4.263   7.132   1.650  0.9860 -0.9480  0.7671
   77MOL   H12427636   4.541   7.228   1.681  0.2701 -0.3528 -0.1284
   77MOL   H12527637   4.432   7.205   1.798 -0.1288  2.2878  0.5337
   77MOL   H12627638   4.377   7.423   1.586  0.1440 -1.8449 -1.2087
   77MOL   H12727639   4.305   7.408   1.734  0.8549  0.8838  0.2543
   77MOL   C12827640   4.469   7.602   1.774 -0.3144 -0.3704 -0.0940
   77MOL   O12927641   4.377   7.665   1.718  0.1319 -0.5477 -0.3707
   77MOL   C13027642   4.593   7.670   1.833  0.2860 -1.0830  0.2481
   77MOL   C13127643   4.636   7.609   1.965 -0.7367 -0.3904  0.3198
   77MOL   C13227644   4.549   7.644   2.080  0.7468 -0.0287 -0.1332
   77MOL   C13327645   4.607   7.603   2.221  0.4267  0.1803 -0.1450
   77MOL   C13427646   4.512   7.641   2.337  0.5379  1.1380 -0.3011
   77MOL   O13527647   4.380   7.585   2.344  0.2975  0.2056  0.9131
   77MOL   H13627648   4.576   7.777   1.848  0.0476 -1.2418  1.1391
   77MOL   H13727649   4.669   7.664   1.755  0.1990  2.6520 -0.2087
   77MOL   H13827650   4.739   7.636   1.990  0.0866 -1.1906 -2.1154
   77MOL   H13927651   4.635   7.500   1.968  0.6111 -0.4013  0.5654
   77MOL   H14027652   4.454   7.592   2.070 -0.2941  1.5161  1.6597
   77MOL   H14127653   4.535   7.752   2.072  1.6540  0.1009 -0.0188
   77MOL   H14227654   4.701   7.653   2.244  0.6308 -0.8544  1.3200
   77MOL   H14327655   4.627   7.497   2.240 -1.3986  0.0921  1.4698
   77MOL   H14427656   4.568   7.619   2.428  0.0185  0.6021 -0.1113
   77MOL   H14527657   4.499   7.750   2.333  2.4126  1.3863 -0.0605
   77MOL   C14627658   4.354   7.487   2.434  0.2259  0.1092  0.3691
   77MOL   O14727659   4.437   7.443   2.515 -0.2926 -0.6190  0.5024
   77MOL   C14827660   4.213   7.424   2.428  0.1752  0.3337 -0.2776
   77MOL   C14927661   4.140   7.449   2.562 -0.3345  0.5259 -0.6253
   77MOL   C15027662   4.110   7.593   2.598  0.8732 -0.3738 -0.2201
   77MOL   C15127663   4.037   7.606   2.730 -0.6106  0.1107  0.4976
   77MOL   C15227664   4.024   7.757   2.771  0.0442  0.4099 -0.0992
   77MOL   O15327665   3.982   7.771   2.898 -0.5323 -0.2135 -0.2903
   77MOL   H15427666   4.215   7.317   2.407  0.6160  0.4751 -0.9824
   77MOL   H15527667   4.160   7.469   2.344  0.0445  2.3966  0.8825
   77MOL   H15627668   4.190   7.415   2.653 -0.2796 -0.9582 -1.1962
   77MOL   H15727669   4.045   7.395   2.559  0.1849 -0.5693  1.7278
   77MOL   H15827670   4.053   7.648   2.523  1.4761 -1.4181 -1.4607
   77MOL   H15927671   4.205   7.647   2.601 -0.4390  2.0001  0.3265
   77MOL   H16027672   4.092   7.547   2.804 -0.8049  0.1438  0.6656
   77MOL   H16127673   3.945   7.548   2.730  0.0904 -1.1512 -2.8982
   77MOL   H16227674   4.128   7.787   2.761 -0.4730  1.8743 -1.3305
   77MOL   H16327675   3.969   7.820   2.700  0.8547  0.7760 -0.4044
   77MOL   C16427676   3.851   7.753   2.931 -0.4754 -0.5126  0.8098
   77MOL   O16527677   3.759   7.707   2.864 -0.8549  0.4228  0.4988
   77MOL   C16627678   3.811   7.773   3.080  0.2785 -0.6194 -0.1751
   77MOL   C16727679   3.748   0.062   3.117  0.2523  0.0087 -0.1034
   77MOL   C16827680   3.681   0.058   3.254 -1.0399  0.1406  0.0469
   77MOL   C16927681   3.536   0.002   3.244 -0.8359 -0.3141  0.4790
   77MOL   C17027682   3.472   7.779   3.364  0.4543  0.1605  0.5595
   77MOL   O17127683   3.532   7.654   3.398  0.8664 -0.1427  0.2014
   77MOL   H17227684   3.902   7.757   3.138 -0.6007 -1.8347  0.8892
   77MOL   H17327685   3.748   7.694   3.120 -1.1232  1.8613  2.7187
   77MOL   H17427686   3.678   0.091   3.039  0.3979 -0.3165 -0.3529
   77MOL   H17527687   3.826   0.138   3.111 -0.8698  1.1389 -0.6749
   77MOL   H17627688   3.688   0.161   3.289  1.9652 -0.6004  1.7915
   77MOL   H17727689   3.738   7.842   3.326 -0.2820 -0.1034 -0.7527
   77MOL   H17827690   3.537   7.775   3.162  0.7662 -0.2337  0.4152
   77MOL   H17927691   3.471   0.080   3.204  1.9098  2.0598  0.4732
   77MOL   H18027692   3.474   7.837   3.456 -1.6915 -0.9542  1.3299
   77MOL   H18127693   3.367   7.754   3.357  0.6024 -0.1561 -0.7560
   77MOL   C18227694   3.466   7.578   3.493  0.6226  1.3757 -0.2437
   77MOL   O18327695   3.370   7.612   3.563 -0.1835 -0.4069  0.2360
   77MOL   C18427696   3.545   7.452   3.531 -0.2722 -0.4162 -0.6454
   77MOL   C18527697   3.451   7.338   3.586  0.0470  0.3396 -0.0127
   77MOL   C18627698   3.519   7.203   3.622 -0.4361  0.0954 -0.0846
   77MOL   C18727699   3.411   7.100   3.642 -0.1591 -0.1827  0.0270
   77MOL   C18827700   3.474   6.965   3.681  0.0176 -0.1769  0.5700
   77MOL   O18927701   3.370   6.886   3.718  0.5382 -0.4272  0.2799
   77MOL   H19027702   3.615   7.495   3.603 -1.8337 -1.4320  1.5457
   77MOL   H19127703   3.595   7.425   3.438  3.3466  1.3489  0.6946
   77MOL   H19227704   3.371   7.327   3.513  0.0478  1.4001 -0.1835
   77MOL   H19327705   3.432   7.380   3.684 -0.9055 -0.8895  0.3354
   77MOL   H19427706   3.582   7.215   3.710 -0.8864  1.4645  0.0617
   77MOL   H19527707   3.579   7.166   3.539  0.2575  1.3366 -0.1552
   77MOL   H19627708   3.361   7.084   3.547  2.0430  1.9827 -1.5611
   77MOL   H19727709   3.347   7.132   3.724  1.3572 -0.3163  1.3019
   77MOL   H19827710   3.539   6.932   3.600  0.1281  1.2198  0.0645
   77MOL   H19927711   3.545   6.972   3.764  0.9508 -1.5290 -0.1001
   77MOL   C20027712   3.392   6.763   3.746  0.3834  0.5356 -0.3708
   77MOL   O20127713   3.503   6.709   3.763 -0.1018 -0.5381  0.0107
   77MOL   C20227714   3.265   6.681   3.759 -0.3148  0.3664 -0.0980
   77MOL   C20327715   3.216   6.669   3.896 -0.2298 -0.7459  0.1585
   77MOL   C20427716   3.151   6.798   3.953 -0.8631 -0.2851  0.4971
   77MOL   C20527717   3.086   6.785   4.097  0.1104  0.1513  0.1996
   77MOL   C20627718   3.038   6.917   4.167 -0.2476 -0.3934 -0.0500
   77MOL   O20727719   3.149   7.000   4.189  0.1822 -0.1960 -0.6476
   77MOL   H20827720   3.291   6.583   3.718 -0.7120  0.9183 -1.7398
   77MOL   H20927721   3.193   6.722   3.687 -0.2303 -0.0250 -0.4063
   77MOL   H21027722   3.299   6.641   3.961 -1.1447 -2.7200  0.5032
   77MOL   H21127723   3.150   6.583   3.901 -2.1007  0.6244 -0.4141
   77MOL   H21227724   3.080   6.845   3.885  1.9874  2.3873 -0.7711
   77MOL   H21327725   3.222   6.880   3.950  0.2423 -1.1747  1.7774
   77MOL   H21427726   3.169   6.749   4.159  1.1859  2.3161  0.0517
   77MOL   H21527727   3.004   6.714   4.097  0.6072 -0.4661 -2.0497
   77MOL   H21627728   2.953   6.958   4.112 -2.2376 -2.8301  1.0712
   77MOL   H21727729   2.984   6.890   4.258 -1.1778 -0.8647 -0.7266
   77MOL   C21827730   3.171   7.112   4.125  0.5625  0.6242 -0.3838
   77MOL   O21927731   3.117   7.135   4.018 -0.2965  0.6167  0.0060
   77MOL   C22027732   3.283   7.197   4.181  0.3422 -0.3270 -0.6153
   77MOL   C22127733   3.243   7.284   4.315 -0.2098  0.0063  0.8871
   77MOL   C22227734   3.164   7.418   4.278 -0.2161  0.0453  0.1010
   77MOL   C22327735   3.258   7.510   4.211  0.2319 -0.2489  0.6714
   77MOL   C22427736   3.191   7.642   4.186  0.2464  0.4913  0.0832
   77MOL   O22527737   3.277   7.717   4.098  0.3413 -0.6398  0.2935
   77MOL   H22627738   3.316   7.267   4.103  0.2114  1.6767  1.0718
   77MOL   H22727739   3.370   7.133   4.197  0.6446  0.3189  0.3600
   77MOL   H22827740   3.329   7.318   4.374  0.3161 -0.3621  0.3407
   77MOL   H22927741   3.190   7.223   4.388  0.3607 -0.0132  1.2901
   77MOL   H23027742   3.126   7.461   4.371 -1.4865 -2.0241  0.5803
   77MOL   H23127743   3.072   7.396   4.224  0.4457 -1.1522 -0.5492
   77MOL   H23227744   3.297   7.455   4.125 -1.4448  1.0705 -0.9943
   77MOL   H23327745   3.349   7.531   4.266  1.7242  2.4628 -2.6130
   77MOL   H23427746   3.097   7.623   4.135  0.3451 -1.9239  0.7349
   77MOL   H23527747   3.175   7.694   4.280  0.8586 -1.5243  1.3369
   77MOL   C23627748   3.274   0.013   4.109  0.8278  0.4422  0.2605
   77MOL   O23727749   3.220   0.079   4.196  0.1533  0.2099 -0.4030
   77MOL   C23827750   3.342   0.080   3.991  0.1830  0.5104 -0.6262
   77MOL   C23927751   3.296   0.026   3.859  0.7124 -0.5017  0.3681
   77MOL   C24027752   3.146   0.033   3.817 -0.0540 -0.6586 -0.0778
   77MOL   C24127753   3.128   0.022   3.661 -0.3175 -0.1365  0.4516
   77MOL   C24227754   2.986   0.049   3.607 -0.7042 -0.0666 -0.0095
   77MOL   O24327755   2.958   0.175   3.559 -0.2365 -0.2933 -0.0543
   77MOL   H24427756   3.450   0.067   3.991  0.1771  0.4020  0.8733
   77MOL   H24527757   3.321   0.186   3.999 -0.3533  0.2133  2.2709
   77MOL   H24627758   3.328   7.768   3.839 -0.2259 -0.8168  0.4595
   77MOL   H24727759   3.353   0.081   3.784 -0.9658 -0.9456 -1.2913
   77MOL   H24827760   3.113   0.133   3.846 -2.8301 -1.6576  0.3881
   77MOL   H24927761   3.079   7.810   3.872  0.9096 -0.3352  1.5325
   77MOL   H25027762   3.140   7.760   3.638  1.7328 -0.0138  0.8847
   77MOL   H25127763   3.201   0.083   3.609 -1.1183 -2.5235 -3.6719
   77MOL   H25227764   2.966   7.825   3.524  2.6405 -3.6346  1.9556
   77MOL   H25327765   2.907   0.015   3.674 -1.9472  0.2518 -1.2939
   77MOL   C25427766   2.906   0.265   3.649  0.2051 -0.2885 -0.3597
   77MOL   O25527767   2.859   0.244   3.763  0.3695  0.2287  0.0653
   77MOL   C25627768   2.915   0.414   3.602 -0.2640  0.0509  0.1990
   77MOL   C25727769   2.995   0.439   3.476  0.8857 -0.5424  0.0316
   77MOL   C25827770   2.923   0.418   3.343  0.7899  0.7122 -0.4461
   77MOL   C25927771   3.008   0.430   3.216  0.0810  0.1212 -0.0333
   77MOL   C26027772   2.923   0.450   3.090 -0.1450  0.4194 -0.0589
   77MOL   O26127773   3.008   0.462   2.983 -0.1428  0.0060  0.3599
   77MOL   H26227774   2.956   0.479   3.679 -1.0989  1.8212 -0.8357
   77MOL   H26327775   2.814   0.450   3.583  0.1119  1.7037  1.2523
   77MOL   H26427776   3.081   0.372   3.479 -0.0210 -1.6687  1.3986
   77MOL   H26527777   3.034   0.540   3.490 -0.4757 -0.0464  0.3477
   77MOL   H26627778   2.854   0.503   3.335  1.6701  1.3783 -1.0375
   77MOL   H26727779   2.863   0.328   3.332 -1.7552  2.1301  1.0644
   77MOL   H26827780   3.068   0.339   3.209 -1.1198 -0.6317 -0.6631
   77MOL   H26927781   3.090   0.502   3.213 -0.6600  1.0081  0.5829
   77MOL   H27027782   2.845   0.375   3.078  0.9900 -1.0017  1.2619
   77MOL   H27127783   2.876   0.548   3.098  0.0650  0.5433 -0.3094
   77MOL   C27227784   2.955   0.474   2.856  0.0853 -1.4577  0.5541
   77MOL   O27327785   2.835   0.485   2.831  0.1466 -0.1326 -0.2584
   77MOL   C27427786   3.064   0.472   2.749 -0.2295  0.1801  0.6160
   77MOL   C27527787   3.187   0.548   2.781  0.1159 -0.5308 -0.4482
   77MOL   C27627788   3.286   0.552   2.666 -0.4064  0.1319  0.4835
   77MOL   C27727789   3.407   0.632   2.709  0.1472 -0.4250 -0.0068
   77MOL   C27827790   3.530   0.604   2.624 -0.2548 -0.2967 -1.2600
   77MOL   O27927791   3.632   0.664   2.698  0.4869  0.4025  0.3089
   77MOL   H28027792   3.019   0.508   2.657 -0.2963 -1.6076 -0.0837
   77MOL   H28127793   3.088   0.371   2.715  2.2283  0.6714  0.7642
   77MOL   H28227794   3.223   0.493   2.868  0.6325 -2.0830 -1.6203
   77MOL   H28327795   3.161   0.651   2.807 -1.6436 -0.9696 -0.4471
   77MOL   H28427796   3.234   0.576   2.573 -1.4954 -0.9366  0.7972
   77MOL   H28527797   3.311   0.446   2.667 -2.2056 -0.3329 -0.4315
   77MOL   H28627798   3.434   0.609   2.812  1.7341 -2.0487 -0.7551
   77MOL   H28727799   3.387   0.737   2.689  0.6287  0.1149  2.1960
   77MOL   H28827800   3.557   0.499   2.614  1.3064  0.1329 -1.6039
   77MOL   H28927801   3.502   0.646   2.528 -0.3698  2.1766 -0.2021
   77MOL   C29027802   3.666   0.792   2.682  0.5203  0.0775 -0.3919
   77MOL   O29127803   3.620   0.877   2.608 -0.7295 -0.3866 -0.1433
   77MOL   C29227804   3.760   0.835   2.799  0.1924  0.2280  0.2148
   77MOL   C29327805   3.735   0.982   2.860  0.5392  0.4396 -0.5855
   77MOL   C29427806   3.858   1.030   2.937  0.0940  0.0281 -1.2559
   77MOL   C29527807   3.837   1.176   2.988 -0.1963  0.6629 -0.8847
   77MOL   C29627808   3.957   1.199   3.080 -0.6644  0.5051  0.0302
   77MOL   O29727809   3.953   1.339   3.112  0.1195 -0.0799  0.0991
   77MOL   H29827810   3.862   0.831   2.761  0.8638 -1.5544  2.1902
   77MOL   H29927811   3.775   0.758   2.874  2.8842  0.6823  0.2103
   77MOL   H30027812   3.642   0.981   2.916  1.5768 -0.7982  1.1642
   77MOL   H30127813   3.707   1.050   2.779 -0.3472  1.8306  0.8562
   77MOL   H30227814   3.941   1.026   2.866 -0.1513 -3.6048 -1.4510
   77MOL   H30327815   3.891   0.959   3.014 -1.2122  0.4769 -0.2684
   77MOL   H30427816   3.743   1.161   3.042  0.9295 -1.0141  0.6494
   77MOL   H30527817   3.830   1.240   2.900  2.1146 -1.1358 -2.3996
   77MOL   H30627818   3.959   1.137   3.170 -0.3136  0.1049 -0.2577
   77MOL   H30727819   4.045   1.184   3.019 -1.8107  0.6337 -1.6920
   77MOL   C30827820   4.031   1.386   3.205  0.7043 -0.6134  0.2154
   77MOL   O30927821   4.127   1.334   3.262  0.0865  0.8319 -0.5042
   77MOL   C31027822   3.991   1.527   3.232 -0.3271  0.2392  0.0032
   77MOL   C31127823   4.000   1.574   3.380 -0.7761  0.5276 -0.4765
   77MOL   C31227824   3.871   1.561   3.465 -0.4917 -0.0848  0.3540
   77MOL   C31327825   3.803   1.414   3.467  1.1797 -0.5302 -0.2118
   77MOL   C31427826   3.677   1.409   3.559  0.2335  0.2130  0.3292
   77MOL   O31527827   3.706   1.422   3.695 -0.1741 -0.3510 -0.4141
   77MOL   H31627828   3.889   1.547   3.198 -0.3498 -2.2958 -1.5380
   77MOL   H31727829   4.055   1.591   3.172  0.2839 -1.6305 -1.3614
   77MOL   H31827830   4.043   1.673   3.383 -0.2768  0.2565  2.1783
   77MOL   H31927831   4.087   1.527   3.426  0.0699  1.4101 -1.1779
   77MOL   H32027832   3.795   1.632   3.434  0.2354  0.2274 -0.7478
   77MOL   H32127833   3.902   1.590   3.565 -0.0028  0.7285 -0.0234
   77MOL   H32227834   3.880   1.340   3.488  1.4096  0.5261  2.9426
   77MOL   H32327835   3.760   1.394   3.369 -0.4686 -0.2644  0.4364
   77MOL   H32427836   3.610   1.490   3.533 -0.5012  0.0105  1.5353
   77MOL   H32527837   3.629   1.315   3.535 -1.2836  1.0020  0.2618
   77MOL   C32627838   3.753   1.326   3.770 -0.1300  0.0347  0.1041
   77MOL   O32727839   3.766   1.208   3.735 -0.1386  0.1015  0.4151
   77MOL   C32827840   3.799   1.385   3.898  0.0028  0.1483  0.2691
   77MOL   C32927841   3.921   1.479   3.889  0.1214  0.1219  0.3083
   77MOL   C33027842   3.946   1.567   4.017 -0.1283  0.2421  0.0085
   77MOL   C33127843   4.054   1.673   4.017 -0.2449 -0.3553 -0.3786
   77MOL   C33227844   4.105   1.696   4.156 -0.3703  0.1499 -0.0130
   77MOL   O33327845   4.195   1.802   4.140  0.0662 -0.0816 -0.3770
   77MOL   H33427846   3.799   1.303   3.970 -1.7247 -0.2055 -0.1083
   77MOL   H33527847   3.716   1.445   3.933  1.1242  1.2604  1.0319
   77MOL   H33627848   3.933   1.537   3.797  2.5021  2.4517  2.0355
   77MOL   H33727849   4.004   1.409   3.886  0.2527  0.2673  0.5982
   77MOL   H33827850   3.959   1.497   4.099  0.9450  0.9383  0.4469
   77MOL   H33927851   3.855   1.618   4.047 -0.8513  0.0895 -1.8412
   77MOL   H34027852   4.017   1.765   3.970  1.3349  0.6609  0.3401
   77MOL   H34127853   4.146   1.641   3.968  1.3981  0.3170  2.1959
   77MOL   H34227854   4.023   1.717   4.225 -0.5785 -0.2958 -0.1175
   77MOL   H34327855   4.150   1.602   4.188 -0.7319  0.1174  0.4071
   77MOL   C34427856   4.317   1.800   4.193  0.0621  0.5795 -0.8485
   77MOL   O34527857   4.365   1.699   4.251  0.3396  0.1156  0.3698
   77MOL   C34627858   4.398   1.929   4.159 -0.2104 -0.1921  0.3824
   77MOL   C34727859   4.545   1.915   4.203  0.7663 -0.2917  0.5364
   77MOL   C34827860   4.625   1.836   4.101 -0.0182  0.0316  0.4677
   77MOL   C34927861   4.776   1.840   4.125 -0.0802 -0.5227  0.5543
   77MOL   C35027862   4.858   1.787   4.008 -0.0861  0.0859 -0.5680
   77MOL   O35127863   4.996   1.788   4.046  0.1021  0.8769 -0.4229
   77MOL   H35227864   4.342   2.001   4.219 -0.8380 -0.1016 -0.2977
   77MOL   H35327865   4.390   1.957   4.054 -0.4112 -0.9457  0.1919
   77MOL   H35427866   4.551   1.848   4.289  2.8255  1.4652  1.8107
   77MOL   H35527867   4.581   2.014   4.231 -1.7916  0.3831  1.5807
   77MOL   H35627868   4.627   1.879   4.000 -1.0146  2.2835  1.3822
   77MOL   H35727869   4.598   1.731   4.098 -0.9291  0.2030  2.1362
   77MOL   H35827870   4.813   1.775   4.204  1.3274  2.2933  2.3157
   77MOL   H35927871   4.802   1.943   4.150  0.7460 -0.6309  0.1651
   77MOL   H36027872   4.835   1.691   3.963  2.4801 -1.0227  0.3810
   77MOL   H36127873   4.865   1.863   3.930 -0.6511  0.3041 -0.4056
   77MOL   H36227874   5.048   1.771   3.968 -0.0693  2.3787 -0.8732
   78MOL     C127875   0.626   0.361   6.032  0.4093 -1.1244 -0.0493
   78MOL     O227876   0.710   0.340   6.120 -0.1362 -0.3538 -0.2450
   78MOL     C327877   0.480   0.316   6.054 -0.2775  0.3419 -0.2061
   78MOL     C427878   0.443   0.253   6.193 -0.4885  0.6265 -0.1497
   78MOL     C527879   0.293   0.233   6.210 -0.3007  0.2293  0.4557
   78MOL     C627880   0.254   0.140   6.328  0.5203 -0.6308 -0.3707
   78MOL     C727881   0.104   0.098   6.319 -1.1062 -0.6110  0.1745
   78MOL     O827882   0.066   0.027   6.199  0.1801 -0.1750 -0.4529
   78MOL     H927883   0.446   0.246   5.978 -0.6549  0.4210 -0.1109
   78MOL    H1027884   0.419   0.404   6.035  1.9717  2.0341  0.2507
   78MOL    H1127885   0.484   0.318   6.270 -0.1762  3.0271 -2.2609
   78MOL    H1227886   0.497   0.159   6.203  1.7312  2.0210  1.6017
   78MOL    H1327887   0.248   0.187   6.121  0.3223  0.5320 -0.0228
   78MOL    H1427888   0.251   0.331   6.229 -0.7597  0.1250  0.0044
   78MOL    H1527889   0.279   0.186   6.424  0.7042 -0.8720 -0.3027
   78MOL    H1627890   0.312   0.048   6.333  0.2750 -0.8697 -1.8720
   78MOL    H1727891   0.113   0.021   6.396  0.4455 -0.7796 -0.1471
   78MOL    H1827892   0.041   0.175   6.362 -0.8431 -0.6925  0.7101
   78MOL    H1927893   0.652   0.417   5.942 -1.2805  0.7860  0.6026
   78MOL    C2027894   7.777   0.014   6.170  0.0965  0.1580  0.4908
   78MOL    O2127895   7.681   0.055   6.230  0.3870 -0.0633  0.1680
   78MOL    C2227896   7.763   7.781   6.042 -0.0165 -0.0904  0.0139
   78MOL    C2327897   7.814   0.014   5.918 -0.0001  0.4597 -0.4596
   78MOL    C2427898   7.707   0.070   5.826 -0.0854 -0.1771  0.6888
   78MOL    C2527899   7.753   0.158   5.708 -0.5259 -0.3718  0.0508
   78MOL    C2627900   7.623   0.202   5.632 -0.0381 -0.3950 -0.3540
   78MOL    O2727901   7.559   0.312   5.690  0.0919 -0.2935  0.2210
   78MOL    H2827902   7.658   7.750   6.046  0.5859 -1.9968  2.1422
   78MOL    H2927903   7.821   7.690   6.057 -0.4066 -0.4502 -0.6465
   78MOL    H3027904   0.027   7.786   5.859 -1.0862 -0.0163 -0.9460
   78MOL    H3127905   0.049   0.085   5.942  2.4940 -1.7936 -1.8151
   78MOL    H3227906   7.627   0.120   5.881 -0.9596  0.7185 -1.3770
   78MOL    H3327907   7.654   7.830   5.782 -0.9033  1.3595 -1.3328
   78MOL    H3427908   7.809   0.104   5.633 -0.1392  1.0011 -0.6589
   78MOL    H3527909   7.820   0.240   5.733  0.3668 -1.0147 -0.2087
   78MOL    H3627910   7.642   0.239   5.532 -2.3083  1.4548 -0.1497
   78MOL    H3727911   7.554   0.118   5.620 -1.0220  0.1605  1.3050
   78MOL    C3827912   7.444   0.345   5.649  0.7778 -0.8312  0.1619
   78MOL    O3927913   7.370   0.286   5.564 -0.2513 -0.0480  0.1845
   78MOL    C4027914   7.399   0.472   5.716 -0.2420 -0.1818 -0.5859
   78MOL    C4127915   7.302   0.560   5.644 -0.1018 -0.2226 -0.3873
   78MOL    C4227916   7.357   0.647   5.527  0.5886 -0.3458  0.6424
   78MOL    C4327917   7.243   0.732   5.465  0.6434  0.0781 -0.1134
   78MOL    C4427918   7.269   0.781   5.320 -0.3132 -0.1701 -0.8426
   78MOL    O4527919   7.157   0.866   5.285 -0.2485 -0.5156  0.2565
   78MOL    H4627920   7.486   0.532   5.741 -0.8526  0.5075 -0.0954
   78MOL    H4727921   7.360   0.438   5.812 -0.3964  2.2989  0.2663
   78MOL    H4827922   7.256   0.635   5.709  0.9244  0.4828 -0.4666
   78MOL    H4927923   7.220   0.496   5.612 -1.0238  0.5781  0.3192
   78MOL    H5027924   7.395   0.581   5.449  2.3248  2.0839 -0.6378
   78MOL    H5127925   7.446   0.706   5.547  1.3718 -1.4195  0.3649
   78MOL    H5227926   7.217   0.812   5.534 -1.6244 -0.0453 -0.7765
   78MOL    H5327927   7.156   0.667   5.468 -0.0516  0.9498 -0.9770
   78MOL    H5427928   7.355   0.846   5.309  0.4826 -0.7468  1.6700
   78MOL    H5527929   7.287   0.694   5.256  0.4948  0.0128 -0.8679
   78MOL    C5627930   7.152   0.992   5.317  0.9127 -0.4483 -0.6171
   78MOL    O5727931   7.229   1.058   5.379  0.2191 -0.3371 -0.2470
   78MOL    C5827932   7.021   1.056   5.262 -0.2016  0.7469 -0.4024
   78MOL    C5927933   7.010   1.207   5.247  0.0696 -0.4074 -0.1317
   78MOL    C6027934   6.881   1.258   5.177  0.6325 -0.1497  0.0276
   78MOL    C6127935   6.853   1.405   5.203 -0.3017 -0.6234  0.3876
   78MOL    C6227936   6.712   1.451   5.161 -0.3619 -0.1768 -0.1397
   78MOL    O6327937   6.706   1.462   5.017 -0.4626  0.6195  0.5261
   78MOL    H6427938   6.954   1.030   5.344 -1.0138 -0.8290 -1.5308
   78MOL    H6527939   6.998   1.004   5.169  1.2671  0.5141 -0.6446
   78MOL    H6627940   7.101   1.238   5.197  1.5579 -3.5537  0.5507
   78MOL    H6727941   7.013   1.256   5.345  0.7402  1.1765 -0.9250
   78MOL    H6827942   6.798   1.199   5.215 -0.3558  1.3539  0.2777
   78MOL    H6927943   6.882   1.246   5.069 -0.9771  1.3641 -0.1834
   78MOL    H7027944   6.939   1.460   5.165 -0.5456 -1.6949 -1.7932
   78MOL    H7127945   6.862   1.434   5.307  0.9778 -3.3059  1.0638
   78MOL    H7227946   6.639   1.377   5.194 -0.5790  0.8865  1.8696
   78MOL    H7327947   6.689   1.551   5.199  0.5189  0.0781 -0.2640
   78MOL    C7427948   6.604   1.403   4.948  0.0390 -0.6002  0.3348
   78MOL    O7527949   6.519   1.321   4.986 -0.1278  0.5598  0.1990
   78MOL    C7627950   6.615   1.425   4.793  0.4394  0.7271  0.1134
   78MOL    C7727951   6.509   1.343   4.713 -0.7660  0.7227  0.7877
   78MOL    C7827952   6.360   1.401   4.712 -0.4891  0.0197 -0.4261
   78MOL    C7927953   6.248   1.311   4.656  0.1027 -0.2816  0.2317
   78MOL    C8027954   6.185   1.242   4.774 -0.3003  0.4820  0.0820
   78MOL    O8127955   6.118   1.126   4.734 -0.1336  0.7129  0.2264
   78MOL    H8227956   6.710   1.385   4.758  0.4021  0.3480  0.4445
   78MOL    H8327957   6.607   1.532   4.771 -0.1831  0.5299 -0.6810
   78MOL    H8427958   6.510   1.241   4.750  0.9457  0.0976 -0.9432
   78MOL    H8527959   6.549   1.331   4.612  1.1950  0.7835  1.5371
   78MOL    H8627960   6.358   1.492   4.653  1.1151  0.2971 -0.0719
   78MOL    H8727961   6.338   1.412   4.819  0.1955  0.0851 -0.2924
   78MOL    H8827962   6.281   1.242   4.578  0.6065  2.1259 -1.7303
   78MOL    H8927963   6.165   1.371   4.617  1.3877  2.1397  1.1528
   78MOL    H9027964   6.267   1.213   4.839  0.0713  1.3069 -0.0119
   78MOL    H9127965   6.122   1.316   4.824 -0.8968 -0.6630  1.0311
   78MOL    C9227966   6.000   1.094   4.793 -0.2802  0.4378 -0.3058
   78MOL    O9327967   5.943   1.155   4.881 -0.0715  0.2119 -0.4948
   78MOL    C9427968   5.943   0.962   4.738  0.0117 -0.0204  0.5348
   78MOL    C9527969   5.800   0.917   4.779  0.3163 -0.0398 -0.0042
   78MOL    C9627970   5.739   0.793   4.716 -0.0382  0.4918  0.1524
   78MOL    C9727971   5.777   0.759   4.568 -0.1040  0.4203  0.7131
   78MOL    C9827972   5.860   0.640   4.531 -0.0890 -0.3108  0.2846
   78MOL    O9927973   5.776   0.520   4.524  0.6291 -0.3477  0.7150
   78MOL   H10027974   6.011   0.882   4.768 -0.5430 -0.3974  0.7943
   78MOL   H10127975   5.954   0.977   4.631  1.2664  1.1038  0.8153
   78MOL   H10227976   5.743   1.002   4.741  0.0373  0.0770  0.6667
   78MOL   H10327977   5.801   0.908   4.887  1.0428  0.4287  0.0382
   78MOL   H10427978   5.634   0.817   4.701  0.1404  0.1945 -1.7876
   78MOL   H10527979   5.753   0.707   4.780  0.0647 -1.5267 -2.4850
   78MOL   H10627980   5.817   0.853   4.530  0.7198 -0.0632  0.3566
   78MOL   H10727981   5.681   0.745   4.519  0.3769 -0.2404 -0.0647
   78MOL   H10827982   5.890   0.639   4.426  2.3894 -0.8586  0.9635
   78MOL   H10927983   5.955   0.624   4.583 -0.9632 -1.9971  1.4472
   78MOL   C11027984   5.834   0.396   4.488  0.6856 -0.2496  0.2772
   78MOL   O11127985   5.955   0.370   4.476  0.3478 -0.0473 -0.1362
   78MOL   C11227986   5.723   0.281   4.471  0.4672 -0.5768  0.6207
   78MOL   C11327987   5.651   0.254   4.605  0.0245 -0.0758 -0.1834
   78MOL   C11427988   5.543   0.154   4.592  0.0605 -0.1611 -0.3913
   78MOL   C11527989   5.455   0.134   4.719  0.0327 -0.4857 -0.3046
   78MOL   C11627990   5.351   0.242   4.751 -0.4102 -0.6123  0.1155
   78MOL   O11727991   5.402   0.365   4.795  0.0073 -0.2323 -0.8351
   78MOL   H11827992   5.767   0.193   4.426 -0.2825  0.1687 -1.6286
   78MOL   H11927993   5.647   0.321   4.404  1.5445  0.5042  0.0300
   78MOL   H12027994   5.608   0.345   4.646 -0.0063  0.7730 -2.0551
   78MOL   H12127995   5.718   0.208   4.677  0.1262 -0.9627 -0.8404
   78MOL   H12227996   5.581   0.058   4.558  1.1247 -0.1793  0.8007
   78MOL   H12327997   5.475   0.190   4.515 -1.0190  0.6038  0.8984
   78MOL   H12427998   5.506   0.096   4.808  2.3713 -0.4520 -1.5857
   78MOL   H12527999   5.393   0.046   4.699  0.5268 -0.8811 -0.1164
   78MOL   H12628000   5.289   0.260   4.663 -2.3298  1.1788  1.8008
   78MOL   H12728001   5.285   0.214   4.833 -0.1578 -1.7319 -0.0530
   78MOL   C12828002   5.449   0.374   4.923 -0.2835  0.6413  0.1298
   78MOL   O12928003   5.456   0.280   5.006 -0.1317 -0.0516 -0.4026
   78MOL   C13028004   5.518   0.503   4.954  0.0775 -0.8984  0.1438
   78MOL   C13128005   5.440   0.635   4.914  0.7558  0.0570  0.1215
   78MOL   C13228006   5.327   0.680   5.000 -0.9947  0.2319  0.0208
   78MOL   C13328007   5.296   0.827   4.984 -0.1143  0.0921 -0.3030
   78MOL   C13428008   5.195   0.887   5.089  0.5592 -0.7993  0.1919
   78MOL   O13528009   5.147   1.021   5.059 -0.1133 -0.0655  0.2412
   78MOL   H13628010   5.606   0.498   4.889 -1.0962  0.7347 -1.6245
   78MOL   H13728011   5.550   0.505   5.058  0.6122 -0.5843 -0.0238
   78MOL   H13828012   5.416   0.633   4.808 -0.0594 -0.7577  0.3217
   78MOL   H13928013   5.519   0.710   4.916  1.2696 -0.4433 -1.1489
   78MOL   H14028014   5.366   0.680   5.102 -0.7318 -0.4612 -0.0757
   78MOL   H14128015   5.241   0.612   4.996 -0.4694 -0.4003 -0.9934
   78MOL   H14228016   5.245   0.851   4.891  0.8431  0.2492 -0.7989
   78MOL   H14328017   5.385   0.888   4.997 -0.7286  0.6732  1.2340
   78MOL   H14428018   5.117   0.812   5.104  3.2927 -4.1354 -1.5184
   78MOL   H14528019   5.238   0.893   5.189 -0.7161  1.1115  0.6371
   78MOL   C14628020   5.038   1.069   5.128 -0.2838  0.3713 -0.6404
   78MOL   O14728021   4.980   1.015   5.227  0.4582  0.2386 -0.1689
   78MOL   C14828022   4.967   1.187   5.055 -0.0465 -0.3193 -0.5008
   78MOL   C14928023   4.888   1.136   4.928 -0.0961  0.2168 -0.4005
   78MOL   C15028024   4.971   1.090   4.799  0.0569 -0.1914 -0.3806
   78MOL   C15128025   4.869   1.063   4.686  1.0586  0.2738  0.1298
   78MOL   C15228026   4.935   1.007   4.559 -0.4853  0.6579  0.0725
   78MOL   O15328027   5.063   1.062   4.531 -0.4368  0.2123  0.5020
   78MOL   H15428028   5.036   1.266   5.024 -0.8755  0.6150  0.0076
   78MOL   H15528029   4.897   1.238   5.121  0.5679  0.9807 -0.8364
   78MOL   H15628030   4.823   1.218   4.896  0.0553  0.3772 -0.2961
   78MOL   H15728031   4.828   1.048   4.953  1.4035 -0.8962 -0.6873
   78MOL   H15828032   5.029   1.000   4.821  1.4543  1.0326  1.0770
   78MOL   H15928033   5.032   1.174   4.767  1.4211 -1.6952 -1.7478
   78MOL   H16028034   4.816   1.155   4.663  1.4050  0.5250  0.3326
   78MOL   H16128035   4.788   0.998   4.720  0.8361  0.3543 -0.2463
   78MOL   H16228036   4.953   0.901   4.576 -1.5770  0.6372  1.1932
   78MOL   H16328037   4.875   1.020   4.468 -0.9053  3.8864  0.7275
   78MOL   C16428038   5.080   1.186   4.485  0.0877  0.4925 -0.0175
   78MOL   O16528039   4.996   1.258   4.442 -0.1039  0.6384  0.0726
   78MOL   C16628040   5.225   1.226   4.475 -0.3630  0.1123  0.5737
   78MOL   C16728041   5.307   1.148   4.375  0.0131  0.1054 -0.3525
   78MOL   C16828042   5.456   1.196   4.384  0.2561 -0.0269 -0.2253
   78MOL   C16928043   5.554   1.108   4.301 -0.1212  0.1712  0.0253
   78MOL   C17028044   5.702   1.109   4.350 -0.1721  0.0378  0.0980
   78MOL   O17128045   5.784   1.022   4.276  0.1462 -0.0991  0.4387
   78MOL   H17228046   5.273   1.222   4.573 -0.0746  1.3933  0.4972
   78MOL   H17328047   5.232   1.331   4.443 -1.7194  0.0962  0.2215
   78MOL   H17428048   5.268   1.176   4.277 -1.5163 -1.2220 -0.1352
   78MOL   H17528049   5.289   1.042   4.390  0.1624  0.3593  1.7691
   78MOL   H17628050   5.483   1.193   4.489  0.3703 -1.9601 -0.2978
   78MOL   H17728051   5.464   1.297   4.344 -0.5003 -0.3431 -1.1994
   78MOL   H17828052   5.524   1.122   4.197 -1.5974 -0.0522  0.4117
   78MOL   H17928053   5.525   1.006   4.323  0.1372  0.4343  1.6462
   78MOL   H18028054   5.739   1.211   4.359  0.1137  0.0427 -1.0130
   78MOL   H18128055   5.708   1.070   4.451  0.4562  1.0263  0.4448
   78MOL   C18228056   5.921   1.024   4.277  0.3845  0.3021 -0.1016
   78MOL   O18328057   5.985   1.095   4.353 -0.1952  0.7092  0.1611
   78MOL   C18428058   5.986   0.924   4.185  0.0859 -0.5425 -0.1269
   78MOL   C18528059   5.986   0.771   4.220 -0.3825 -0.3018  1.1182
   78MOL   C18628060   6.058   0.689   4.105  0.0097 -0.6013  0.5294
   78MOL   C18728061   6.072   0.538   4.133 -0.5907 -0.5917 -0.2502
   78MOL   C18828062   5.941   0.463   4.138 -1.1366 -0.0017 -0.3017
   78MOL   O18928063   5.968   0.324   4.126  0.1832 -0.5969 -0.0001
   78MOL   H19028064   6.085   0.969   4.174 -0.4156  0.5297 -0.3630
   78MOL   H19128065   5.933   0.939   4.091  0.3192 -1.9463 -0.4936
   78MOL   H19228066   5.882   0.743   4.235 -0.3074  0.1800  2.5189
   78MOL   H19328067   6.034   0.756   4.317 -0.4167 -0.1049  1.1645
   78MOL   H19428068   6.159   0.727   4.093  0.9099 -3.4798 -1.6281
   78MOL   H19528069   6.012   0.702   4.007 -0.3869 -4.4828  0.1513
   78MOL   H19628070   6.127   0.518   4.225 -0.3441  2.0976  0.2221
   78MOL   H19728071   6.143   0.499   4.060  1.2194 -0.4695  1.3966
   78MOL   H19828072   5.912   0.480   4.242  0.5827 -2.4927  0.6276
   78MOL   H19928073   5.860   0.499   4.075  0.3392  0.5466 -1.9213
   78MOL   C20028074   5.864   0.232   4.140  0.7243  0.0704  0.2157
   78MOL   O20128075   5.740   0.246   4.140 -0.3076  0.2496  0.0014
   78MOL   C20228076   5.921   0.091   4.143 -0.2807  0.0758  0.0964
   78MOL   C20328077   5.964   0.056   4.286 -0.1642  0.3231 -0.0522
   78MOL   C20428078   6.081   7.808   4.295 -0.4307 -0.3477 -0.4371
   78MOL   C20528079   6.066   7.669   4.223 -0.1411 -0.1001  0.0172
   78MOL   C20628080   6.181   7.565   4.253  0.6960  0.5294  0.0672
   78MOL   O20728081   6.297   7.642   4.240  0.0495  0.4778 -0.0518
   78MOL   H20828082   6.006   0.086   4.076 -0.6421  0.5789 -0.4100
   78MOL   H20928083   5.845   0.023   4.104  0.1797 -0.6784  0.5007
   78MOL   H21028084   5.876   0.014   4.334 -0.0562  2.1257  1.7669
   78MOL   H21128085   5.996   0.142   4.345  1.0167 -0.5475  0.6023
   78MOL   H21228086   6.094   7.781   4.400  0.6871 -0.0363 -0.4948
   78MOL   H21328087   6.172   0.016   4.267 -0.8969 -0.6874 -2.6805
   78MOL   H21428088   6.073   7.682   4.115 -0.5759  2.0985  0.2301
   78MOL   H21528089   5.973   7.622   4.255 -1.7552  2.5199 -0.6664
   78MOL   H21628090   6.180   7.512   4.349  2.2560 -0.0780 -0.2441
   78MOL   H21728091   6.181   7.488   4.176  0.6378 -0.3094  0.8959
   78MOL   C21828092   6.405   7.624   4.326 -0.6074  0.4613 -0.0289
   78MOL   O21928093   6.411   7.534   4.408  0.2286  0.2983  0.1089
   78MOL   C22028094   6.525   7.717   4.301  0.5077  0.6573 -0.1748
   78MOL   C22128095   6.588   7.686   4.164 -0.1797  0.6673 -0.0224
   78MOL   C22228096   6.715   7.770   4.137 -0.5205 -0.5337  0.4722
   78MOL   C22328097   6.693   0.066   4.092  0.4571  1.0473 -0.1374
   78MOL   C22428098   6.824   0.144   4.077  0.9160 -0.1963 -0.0111
   78MOL   O22528099   6.812   0.270   4.018  0.0348  0.1379  0.2726
   78MOL   H22628100   6.604   7.687   4.369  0.1503 -1.2866 -0.5934
   78MOL   H22728101   6.508   7.824   4.317 -0.3022  0.2334  1.9535
   78MOL   H22828102   6.512   7.724   4.095 -1.6940 -1.0978  0.6620
   78MOL   H22928103   6.601   7.579   4.149  1.7590  1.1076 -1.7803
   78MOL   H23028104   6.776   7.714   4.066  0.8511  0.1518  1.0969
   78MOL   H23128105   6.776   7.755   4.227  0.7460  1.8843  0.0639
   78MOL   H23228106   6.624   0.122   4.155  0.0723  1.1163 -0.6138
   78MOL   H23328107   6.645   0.069   3.994  0.3778  0.9071 -0.1012
   78MOL   H23428108   6.871   0.153   4.175  0.8984 -1.4596  0.1287
   78MOL   H23528109   6.892   0.089   4.013  1.9577 -0.7150  1.5035
   78MOL   C23628110   6.928   0.335   4.000  0.8223  0.4750  0.5705
   78MOL   O23728111   7.037   0.289   4.023  0.6922  0.1410 -0.5409
   78MOL   C23828112   6.920   0.478   3.948  0.7721  0.3017  0.2681
   78MOL   C23928113   7.053   0.549   3.938 -0.2529 -1.1727  0.7888
   78MOL   C24028114   7.143   0.516   3.822 -0.0516 -0.5466  0.0113
   78MOL   C24128115   7.269   0.601   3.810 -0.4440 -0.0693  0.0112
   78MOL   C24228116   7.372   0.545   3.705  0.5648 -0.3026 -0.5594
   78MOL   O24328117   7.411   0.411   3.733  0.1974  0.2595 -0.2237
   78MOL   H24428118   6.854   0.523   4.022 -3.7313  0.3300 -3.5466
   78MOL   H24528119   6.867   0.495   3.855 -0.7631  0.4417  1.1575
   78MOL   H24628120   7.104   0.557   4.034  2.2316 -1.2396 -0.4863
   78MOL   H24728121   7.028   0.652   3.914 -2.1014 -1.5795  0.8983
   78MOL   H24828122   7.093   0.540   3.728  0.9204  0.9765 -0.1187
   78MOL   H24928123   7.162   0.408   3.822 -0.3150 -0.5967 -1.4215
   78MOL   H25028124   7.328   0.601   3.901 -0.2618  0.8565 -0.1004
   78MOL   H25128125   7.243   0.701   3.775 -0.4028  0.1200  0.5214
   78MOL   H25228126   7.338   0.553   3.601 -2.8069 -1.6591  0.3709
   78MOL   H25328127   7.466   0.600   3.704  0.4012  0.0074  0.4955
   78MOL   C25428128   7.507   0.353   3.656  0.5134 -0.9094 -0.0721
   78MOL   O25528129   7.576   0.404   3.571  0.4960  0.2677 -0.1602
   78MOL   C25628130   7.520   0.202   3.684  0.4523  0.0739 -0.0211
   78MOL   C25728131   7.397   0.135   3.626  0.1023  0.0957 -0.0145
   78MOL   C25828132   7.395   0.140   3.474 -0.3256  0.0202 -0.0039
   78MOL   C25928133   7.302   0.032   3.420 -0.4116  0.0115  0.4105
   78MOL   C26028134   7.280   0.047   3.266 -0.0250 -0.6582  0.3716
   78MOL   O26128135   7.397   0.032   3.187 -0.1291  0.0601 -0.2717
   78MOL   H26228136   7.516   0.191   3.792  3.8510  3.2011  0.5271
   78MOL   H26328137   7.614   0.162   3.646 -0.0656 -1.5036  0.2973
   78MOL   H26428138   7.301   0.172   3.661 -0.6206 -1.2580 -0.5831
   78MOL   H26528139   7.402   0.030   3.655 -0.6632 -0.4189 -1.7131
   78MOL   H26628140   7.491   0.122   3.426 -1.3520  0.8965 -2.4825
   78MOL   H26728141   7.362   0.237   3.437  1.7856  0.5500 -0.5991
   78MOL   H26828142   7.206   0.035   3.470 -0.8257 -1.1000 -0.2828
   78MOL   H26928143   7.345   7.776   3.425 -2.0277 -0.7085  0.0052
   78MOL   H27028144   7.210   7.813   3.236 -0.8817 -0.7449  2.5478
   78MOL   H27128145   7.234   0.141   3.236 -1.1376 -0.6717  2.0294
   78MOL   C27228146   7.425   7.762   3.121 -0.0166 -0.1158  0.6488
   78MOL   O27328147   7.367   7.657   3.131 -0.6951  0.5630  0.5384
   78MOL   C27428148   7.547   7.781   3.032  0.0120 -0.5613 -0.2703
   78MOL   C27528149   7.534   0.034   2.918 -0.0761 -0.1338 -0.0773
   78MOL   C27628150   7.425   7.832   2.822 -0.1604  0.5697 -0.9954
   78MOL   C27728151   7.413   0.066   2.692  0.1556 -0.3887 -0.1063
   78MOL   C27828152   7.317   0.002   2.588 -0.5116 -0.7181 -0.7890
   78MOL   O27928153   7.187   7.834   2.645  0.3523  0.1008 -0.7164
   78MOL   H28028154   7.567   7.681   2.992 -0.0263 -0.4982 -0.4507
   78MOL   H28128155   7.631   7.806   3.097 -0.8936  0.0403  0.6597
   78MOL   H28228156   7.625   0.047   2.860  0.8309  0.1911  1.3759
   78MOL   H28328157   7.501   0.129   2.962  1.6016  0.2962  0.2768
   78MOL   H28428158   7.326   7.831   2.867  0.1613 -1.8082 -0.2624
   78MOL   H28528159   7.451   7.730   2.795 -1.5094  0.4259 -1.7856
   78MOL   H28628160   7.511   0.067   2.644  0.4442  0.3918  0.4996
   78MOL   H28728161   7.388   0.171   2.705 -1.2990 -1.1382  3.7779
   78MOL   H28828162   7.312   0.057   2.493 -1.3201  0.3339 -0.1412
   78MOL   H28928163   7.349   7.745   2.565  2.1673  0.1909 -1.3646
   78MOL   C29028164   7.088   7.781   2.572  0.5151 -0.7135 -0.5104
   78MOL   O29128165   7.091   7.768   2.454  0.0234 -0.6483 -0.2285
   78MOL   C29228166   6.984   7.714   2.656  0.2062  0.2579  0.3279
   78MOL   C29328167   7.036   7.595   2.738 -0.2347  0.9731  0.1909
   78MOL   C29428168   6.925   7.512   2.798  0.6212 -0.7578 -0.3543
   78MOL   C29528169   6.972   7.407   2.898  0.1574 -0.2533  0.6586
   78MOL   C29628170   6.860   7.321   2.942  0.2484 -0.2428 -0.4171
   78MOL   O29728171   6.915   7.218   3.032 -0.0686 -0.0499 -0.1436
   78MOL   H29828172   6.897   7.688   2.596  1.1713 -0.0451 -0.9751
   78MOL   H29928173   6.938   7.779   2.730 -0.0640  0.4126  0.0266
   78MOL   H30028174   7.107   7.634   2.811  1.9225  1.2325 -1.9553
   78MOL   H30128175   7.106   7.534   2.681  1.2898  1.2867  1.6809
   78MOL   H30228176   6.870   7.470   2.713  1.0911 -2.6283  0.2489
   78MOL   H30328177   6.855   7.563   2.863 -0.4414 -0.3054 -1.8258
   78MOL   H30428178   7.013   7.460   2.985  0.6120  3.1718 -1.5423
   78MOL   H30528179   7.051   7.342   2.860  0.2486  0.8650 -1.1132
   78MOL   H30628180   6.792   7.382   3.001 -0.1807 -0.1435 -1.0177
   78MOL   H30728181   6.791   7.271   2.874 -1.0910  1.6891 -0.5029
   78MOL   C30828182   6.942   7.092   2.997  0.3296  0.3970  0.3600
   78MOL   O30928183   6.931   7.053   2.886 -0.4085  0.7081  0.2197
   78MOL   C31028184   6.990   7.004   3.110 -0.6481  1.5415 -0.8774
   78MOL   C31128185   7.125   7.058   3.168  0.4699 -0.2833 -0.4336
   78MOL   C31228186   7.148   7.039   3.320 -0.2958  0.5609  0.2954
   78MOL   C31328187   7.272   7.116   3.367  0.2277  0.2992 -0.2249
   78MOL   C31428188   7.319   7.097   3.509 -0.3743 -0.4473  0.3355
   78MOL   O31528189   7.416   7.188   3.527  0.3671  0.2711  0.2728
   78MOL   H31628190   7.010   6.909   3.061  0.0938  0.5099  1.3527
   78MOL   H31728191   6.910   6.994   3.184  0.2109 -3.1084 -0.4709
   78MOL   H31828192   7.136   7.165   3.149 -3.5269  0.5215  1.3263
   78MOL   H31928193   7.218   7.024   3.122  0.4515  1.6337 -1.9414
   78MOL   H32028194   7.162   6.933   3.343  0.3280  0.7002  0.5594
   78MOL   H32128195   7.061   7.076   3.373 -2.4588 -2.5743 -0.9012
   78MOL   H32228196   7.263   7.223   3.348  3.4501  1.0786  2.3015
   78MOL   H32328197   7.348   7.085   3.295 -0.2157 -0.8963 -0.1892
   78MOL   H32428198   7.244   7.114   3.586 -1.8200 -0.4798 -1.0381
   78MOL   H32528199   7.356   6.994   3.518  3.1325  0.7816  0.6012
   78MOL   C32628200   7.551   7.161   3.531  0.5011 -0.4962 -0.2874
   78MOL   O32728201   7.599   7.059   3.483 -0.3021  0.4534  0.7805
   78MOL   C32828202   7.637   7.267   3.598 -0.6741 -0.3123  0.2389
   78MOL   C32928203   7.794   7.245   3.585 -0.5273  0.4488  0.4903
   78MOL   C33028204   0.035   7.343   3.672 -0.6807 -0.2798  0.6981
   78MOL   C33128205   0.183   7.310   3.661  0.0049  0.0505  1.3762
   78MOL   C33228206   0.274   7.416   3.718  0.2191  0.5371 -0.2464
   78MOL   O33328207   0.410   7.392   3.718  0.1424  0.0121  0.5727
   78MOL   H33428208   7.621   7.275   3.705 -0.8984 -1.3876  0.2890
   78MOL   H33528209   7.602   7.367   3.575  1.8659  1.0511  2.0792
   78MOL   H33628210   7.811   7.253   3.478 -3.6549  0.7091 -0.0090
   78MOL   H33728211   7.803   7.139   3.607 -2.1390 -0.0136 -0.9757
   78MOL   H33828212   7.835   7.329   3.771  0.9354  2.6171  1.8944
   78MOL   H33928213   0.015   7.445   3.639  0.0307  0.2046  1.7399
   78MOL   H34028214   0.217   7.279   3.562 -0.5517 -0.3585  1.3130
   78MOL   H34128215   0.189   7.212   3.709 -1.8881 -0.5171  0.4889
   78MOL   H34228216   0.246   7.506   3.663  0.3881  1.0016  0.4125
   78MOL   H34328217   0.241   7.415   3.823  0.6359 -1.1973 -0.1243
   78MOL   C34428218   0.460   7.318   3.813  0.8206 -0.6860  0.8388
   78MOL   O34528219   0.407   7.258   3.904  0.2710  0.0858  0.4548
   78MOL   C34628220   0.612   7.303   3.786 -0.4508 -0.1285 -0.3594
   78MOL   C34728221   0.683   7.196   3.874 -0.4871  0.2524  0.5216
   78MOL   C34828222   0.836   7.180   3.830 -0.5876 -0.3569 -0.6362
   78MOL   C34928223   0.936   7.288   3.876 -0.7765 -0.3269  0.3706
   78MOL   C35028224   0.981   7.288   4.023  0.1068 -0.2304 -0.1003
   78MOL   O35128225   1.060   7.404   4.042  0.2125 -0.2960 -0.2709
   78MOL   H35228226   0.663   7.393   3.820  1.4922 -0.9058 -1.1212
   78MOL   H35328227   0.639   7.291   3.681  1.3878 -1.6353  0.2607
   78MOL   H35428228   0.644   7.094   3.872 -1.6610  0.6693  1.6256
   78MOL   H35528229   0.671   7.226   3.978 -1.5776  0.3795  0.3571
   78MOL   H35628230   0.842   7.185   3.721  0.7825 -0.7811 -0.5920
   78MOL   H35728231   0.878   7.084   3.861 -0.3770  0.5814  2.0580
   78MOL   H35828232   0.892   7.387   3.863  0.9162  0.3777 -0.1230
   78MOL   H35928233   1.014   7.280   3.801 -1.3212 -1.0264 -0.1307
   78MOL   H36028234   0.895   7.292   4.089 -0.5560  3.2889 -1.0843
   78MOL   H36128235   1.040   7.201   4.052  0.8432 -0.2834 -1.6847
   78MOL   H36228236   1.017   7.486   4.021 -1.2636 -0.8259  0.6286
   79MOL     C128237   5.675   4.945   3.998 -0.0016  0.3042 -0.3366
   79MOL     O228238   5.638   4.912   4.108  0.0117  0.1006 -0.2384
   79MOL     C328239   5.608   5.057   3.918  0.2340  0.1580 -0.5981
   79MOL     C428240   5.487   5.008   3.839  0.3355  0.3167  0.3767
   79MOL     C528241   5.381   5.112   3.820 -0.5180 -0.0164 -0.0863
   79MOL     C628242   5.293   5.071   3.698  0.2365 -0.1433  0.5155
   79MOL     C728243   5.177   5.164   3.673  0.7411 -0.1559  0.0824
   79MOL     O828244   5.241   5.282   3.636  0.1982  0.1253 -0.3531
   79MOL     H928245   5.675   5.105   3.846  2.2713 -1.0624  0.4489
   79MOL    H1028246   5.565   5.131   3.985 -4.5884 -1.1716 -1.9998
   79MOL    H1128247   5.448   4.926   3.898  2.0361 -0.3643  0.5668
   79MOL    H1228248   5.526   4.952   3.754 -0.2806 -2.6257  1.9840
   79MOL    H1328249   5.423   5.213   3.822  1.3870 -0.7661 -1.3578
   79MOL    H1428250   5.322   5.105   3.912 -1.3588  0.0337 -0.6223
   79MOL    H1528251   5.259   4.968   3.702  1.3281 -0.5212  0.2486
   79MOL    H1628252   5.364   5.066   3.615 -1.0338 -0.5882 -0.5537
   79MOL    H1728253   5.110   5.113   3.604  1.2897  0.4921 -0.9496
   79MOL    H1828254   5.112   5.181   3.758 -1.3678  0.6046 -1.6268
   79MOL    H1928255   5.763   4.903   3.949  1.6572  1.5348  1.5111
   79MOL    C2028256   5.175   5.368   3.553 -0.3765 -0.7417  0.4246
   79MOL    O2128257   5.069   5.349   3.492 -0.9840  0.0395 -0.5987
   79MOL    C2228258   5.257   5.495   3.539  0.5985  0.8429  0.8425
   79MOL    C2328259   5.232   5.563   3.404  0.2728  0.4098 -0.8263
   79MOL    C2428260   5.306   5.701   3.405  0.1343  0.0765 -0.4135
   79MOL    C2528261   5.455   5.692   3.398 -0.0273 -0.6834 -0.4070
   79MOL    C2628262   5.528   5.826   3.398 -0.1107  0.4902  0.4368
   79MOL    O2728263   5.668   5.799   3.420 -0.3834 -0.1865 -0.0848
   79MOL    H2828264   5.361   5.469   3.557  1.1685  1.5102 -1.3720
   79MOL    H2928265   5.222   5.561   3.619 -1.2128  0.1665  0.6327
   79MOL    H3028266   5.126   5.588   3.397  0.0141 -0.7411 -1.1070
   79MOL    H3128267   5.250   5.501   3.317  3.4982 -3.4893  2.4257
   79MOL    H3228268   5.285   5.755   3.497 -0.9710  1.0599 -1.2302
   79MOL    H3328269   5.269   5.763   3.324  0.4471  2.1904  1.0115
   79MOL    H3428270   5.481   5.638   3.307  2.5061  0.7366 -0.5876
   79MOL    H3528271   5.493   5.621   3.472 -0.8108 -1.4509 -0.7354
   79MOL    H3628272   5.506   5.881   3.307 -1.0165  0.1223  0.4351
   79MOL    H3728273   5.492   5.889   3.480 -3.5103 -1.8543  0.8593
   79MOL    C3828274   5.754   5.824   3.319 -0.5509  0.1429 -1.3543
   79MOL    O3928275   5.732   5.887   3.212 -0.3021  0.1748 -0.4214
   79MOL    C4028276   5.899   5.771   3.349 -0.0929  0.5702 -0.4485
   79MOL    C4128277   5.906   5.640   3.430  0.1955  0.5746  0.0835
   79MOL    C4228278   6.036   5.567   3.430 -0.0188  0.1579 -0.5715
   79MOL    C4328279   6.040   5.465   3.547 -0.0175  0.6074 -0.2906
   79MOL    C4428280   6.155   5.364   3.551  0.3849  0.1578 -0.0056
   79MOL    O4528281   6.146   5.282   3.663 -0.1473 -0.1227  0.3994
   79MOL    H4628282   5.946   5.856   3.398  1.2789  0.6683 -1.9093
   79MOL    H4728283   5.960   5.757   3.259 -1.0945 -1.5362 -0.8275
   79MOL    H4828284   5.838   5.570   3.381  2.6910 -1.7895 -0.1155
   79MOL    H4928285   5.879   5.678   3.528  1.2556  1.7791 -0.0741
   79MOL    H5028286   6.115   5.641   3.438  1.0086 -0.7883 -1.7765
   79MOL    H5128287   6.030   5.516   3.334 -0.7725 -0.6537 -0.1031
   79MOL    H5228288   5.952   5.401   3.549  0.6893 -0.3409  3.6900
   79MOL    H5328289   6.025   5.527   3.635 -0.3031 -0.4380  0.4004
   79MOL    H5428290   6.148   5.296   3.466  1.4631  0.4073 -0.3009
   79MOL    H5528291   6.253   5.410   3.536  0.8169 -1.0324 -0.9538
   79MOL    C5628292   6.062   5.182   3.669  0.2457 -1.7225  0.0125
   79MOL    O5728293   5.973   5.152   3.589 -0.2454  0.2272  0.5916
   79MOL    C5828294   6.077   5.127   3.812  0.1225  0.3068 -0.1085
   79MOL    C5928295   5.967   5.167   3.914 -0.2660  1.0111  0.2423
   79MOL    C6028296   5.971   5.316   3.945  0.0412  0.1750  0.6061
   79MOL    C6128297   5.883   5.365   4.049 -0.5128  0.0354 -0.8622
   79MOL    C6228298   5.908   5.517   4.063  0.2374  0.0483  0.1049
   79MOL    O6328299   5.803   5.565   4.143  0.0363  0.2427  0.4473
   79MOL    H6428300   6.167   5.160   3.864  0.6096 -0.9460 -0.1515
   79MOL    H6528301   6.083   5.020   3.795  1.1535  0.1334  1.2695
   79MOL    H6628302   5.989   5.103   4.000  0.7554 -1.5367 -1.8411
   79MOL    H6728303   5.874   5.136   3.866 -0.5220 -0.5895  1.7237
   79MOL    H6828304   5.944   5.382   3.862  0.9720  1.0535  0.9908
   79MOL    H6928305   6.075   5.348   3.959  0.0977 -0.0733  0.7481
   79MOL    H7028306   5.902   5.314   4.144  0.7532 -0.4999 -1.3933
   79MOL    H7128307   5.780   5.339   4.024 -1.2834  2.0590  0.0819
   79MOL    H7228308   6.011   5.539   4.088  1.0629 -1.7479 -1.5146
   79MOL    H7328309   5.897   5.562   3.964 -0.6239  2.3245  1.2227
   79MOL    C7428310   5.779   5.693   4.144  0.5193  0.5386  0.1167
   79MOL    O7528311   5.824   5.780   4.070  0.4522  0.7376  0.4429
   79MOL    C7628312   5.665   5.732   4.235  0.3155 -0.1482  0.0531
   79MOL    C7728313   5.638   5.883   4.246 -0.4319 -0.0925 -0.1637
   79MOL    C7828314   5.740   5.964   4.322 -0.2565  0.2541  0.3367
   79MOL    C7928315   5.752   6.113   4.277 -0.5315 -0.5546 -0.5855
   79MOL    C8028316   5.637   6.195   4.339 -0.3145 -0.1487  0.4135
   79MOL    O8128317   5.619   6.309   4.257  0.1259 -0.0289  0.0682
   79MOL    H8228318   5.674   5.688   4.335 -0.1301  1.6602  0.9213
   79MOL    H8328319   5.576   5.677   4.205  0.1803  0.2704 -0.3132
   79MOL    H8428320   5.538   5.891   4.288  0.1081  0.0932  1.1051
   79MOL    H8528321   5.630   5.931   4.149 -0.5255 -0.5039 -0.3603
   79MOL    H8628322   5.841   5.928   4.305 -0.4193  0.2190 -0.5996
   79MOL    H8728323   5.725   5.952   4.429 -2.0757 -1.7783 -0.0879
   79MOL    H8828324   5.763   6.123   4.170 -0.6279 -0.9717 -0.6367
   79MOL    H8928325   5.845   6.158   4.313 -0.3496 -0.4080 -1.2436
   79MOL    H9028326   5.551   6.127   4.338 -0.0968 -0.4329  0.6424
   79MOL    H9128327   5.672   6.215   4.440 -0.2580  3.7320 -0.3116
   79MOL    C9228328   5.519   6.313   4.167 -0.4258  0.6915  0.4942
   79MOL    O9328329   5.425   6.236   4.154  0.3899 -0.6655 -0.0940
   79MOL    C9428330   5.528   6.444   4.082 -0.3427  0.1190  0.0088
   79MOL    C9528331   5.651   6.463   3.993 -0.4849 -0.0634 -0.0091
   79MOL    C9628332   5.649   6.621   3.954  0.3287  0.6514 -0.2488
   79MOL    C9728333   5.749   6.662   3.847  1.0815  0.8506  0.7027
   79MOL    C9828334   5.755   6.813   3.817 -0.3732 -0.1393  0.9392
   79MOL    O9928335   5.766   6.882   3.936  0.1685  0.6162  0.2740
   79MOL   H10028336   5.541   6.517   4.162  2.6754 -2.4541  1.9984
   79MOL   H10128337   5.432   6.466   4.035 -0.3349  2.2599  0.9437
   79MOL   H10228338   5.656   6.388   3.914 -0.6844  1.0909 -1.1408
   79MOL   H10328339   5.747   6.460   4.046 -0.0760 -0.2503 -0.7596
   79MOL   H10428340   5.666   6.673   4.048 -2.1164 -1.6695  1.5789
   79MOL   H10528341   5.547   6.649   3.927 -0.5456  0.1807  2.3748
   79MOL   H10628342   5.730   6.601   3.759  3.3275  0.9093  0.1525
   79MOL   H10728343   5.845   6.624   3.881  0.1549 -2.0217  0.1847
   79MOL   H10828344   5.834   6.828   3.744  0.3958  0.5532  1.9129
   79MOL   H10928345   5.663   6.824   3.758 -0.3520 -0.2410  0.8856
   79MOL   C11028346   5.880   6.906   3.995  0.1251 -0.0280  0.6295
   79MOL   O11128347   5.989   6.873   3.953  0.6512  0.0216 -0.2565
   79MOL   C11228348   5.868   6.987   4.119 -0.1425  0.2992  0.1555
   79MOL   C11328349   5.940   6.916   4.239  0.0663 -0.5310  0.4239
   79MOL   C11428350   5.924   7.006   4.356  0.4995  0.0040  0.0090
   79MOL   C11528351   5.790   6.993   4.434 -0.6761 -0.7616 -0.2322
   79MOL   C11628352   5.782   7.093   4.554  0.2766 -0.2701 -0.1785
   79MOL   O11728353   5.782   7.228   4.517 -0.3659  0.4934 -0.8773
   79MOL   H11828354   5.762   7.009   4.136  0.3033  1.9722  0.7886
   79MOL   H11928355   5.907   7.086   4.098  1.1056 -0.1926  0.1374
   79MOL   H12028356   6.047   6.899   4.229 -0.0392 -3.7970  3.7369
   79MOL   H12128357   5.891   6.819   4.249  1.1880 -1.1805 -0.3400
   79MOL   H12228358   5.953   7.108   4.332 -0.7174 -0.1156 -2.1663
   79MOL   H12328359   6.007   6.974   4.419  0.6684 -0.9664 -0.6877
   79MOL   H12428360   5.779   6.890   4.468 -1.8389 -1.5872 -2.9981
   79MOL   H12528361   5.704   7.008   4.370 -0.0959 -0.6616 -0.9956
   79MOL   H12628362   5.688   7.079   4.608  0.7719 -0.9077  0.5303
   79MOL   H12728363   5.853   7.055   4.628  2.1044  1.1465 -1.1469
   79MOL   C12828364   5.768   7.325   4.609 -0.4497 -0.6869  0.2631
   79MOL   O12928365   5.772   7.309   4.731  0.0076  0.2625 -0.0129
   79MOL   C13028366   5.766   7.462   4.548  0.5226 -0.6868  0.4024
   79MOL   C13128367   5.660   7.485   4.441 -0.9729  1.1480 -0.2120
   79MOL   C13228368   5.648   7.635   4.396  0.1637 -0.1117 -0.2487
   79MOL   C13328369   5.552   7.661   4.275 -0.1827 -0.7197  1.0380
   79MOL   C13428370   5.577   7.808   4.236  0.8632 -0.5132  0.6879
   79MOL   O13528371   5.493   7.835   4.121  0.1437 -0.5381  0.0241
   79MOL   H13628372   5.864   7.473   4.502  1.0741  0.6829  1.8594
   79MOL   H13728373   5.755   7.540   4.623  2.4151 -0.3383  0.3501
   79MOL   H13828374   5.563   7.448   4.475 -0.5794 -1.4124 -1.7105
   79MOL   H13928375   5.699   7.438   4.350 -0.6068 -1.1133  1.0886
   79MOL   H14028376   5.749   7.671   4.379  0.5318 -0.1178  1.8351
   79MOL   H14128377   5.607   7.690   4.481  0.5310  0.4963 -0.4610
   79MOL   H14228378   5.446   7.641   4.291 -0.5083  1.0745  1.2383
   79MOL   H14328379   5.582   7.588   4.200  0.1221  1.1751 -0.7145
   79MOL   H14428380   5.546   0.026   4.320  0.9402 -1.0445  1.1144
   79MOL   H14528381   5.683   7.833   4.224  1.3390 -2.2205  1.1725
   79MOL   C14628382   5.388   0.077   4.128  0.0602  0.2229 -0.1709
   79MOL   O14728383   5.358   0.141   4.226 -0.0847 -0.3203  0.4285
   79MOL   C14828384   5.313   0.103   3.996  0.3125  0.0234 -0.5103
   79MOL   C14928385   5.278   0.249   3.957  0.6266 -0.1537 -0.0958
   79MOL   C15028386   5.400   0.333   3.930 -0.2704  0.7465  0.6788
   79MOL   C15128387   5.363   0.466   3.871  0.7722 -0.6955  0.0186
   79MOL   C15228388   5.317   0.465   3.720 -0.6100 -0.1009 -0.0248
   79MOL   O15328389   5.411   0.387   3.643 -0.2907  0.8593 -0.2616
   79MOL   H15428390   5.220   0.051   4.017  1.1587 -0.2275  3.0787
   79MOL   H15528391   5.366   0.055   3.914  1.0869 -2.7523  1.5639
   79MOL   H15628392   5.224   0.291   4.042 -2.3299  0.3058 -2.0943
   79MOL   H15728393   5.217   0.248   3.866  2.3422 -0.5845 -1.2702
   79MOL   H15828394   5.463   0.269   3.868 -2.3866 -0.0902 -0.6915
   79MOL   H15928395   5.456   0.347   4.022  0.4656  0.8529  0.2188
   79MOL   H16028396   5.449   0.533   3.871 -1.0322  1.7268 -1.8300
   79MOL   H16128397   5.276   0.505   3.924  0.9204  0.6374 -0.6875
   79MOL   H16228398   5.212   0.436   3.714 -0.3091 -1.0505 -0.7491
   79MOL   H16328399   5.325   0.569   3.689 -0.4154  0.7062  2.5796
   79MOL   C16428400   5.404   0.378   3.511 -0.2987  0.1614 -0.4227
   79MOL   O16528401   5.311   0.428   3.442 -0.8497  0.0295 -0.6397
   79MOL   C16628402   5.505   0.282   3.450 -0.1066  0.2429  0.3389
   79MOL   C16728403   5.649   0.312   3.487  0.1011 -0.2470  0.3285
   79MOL   C16828404   5.700   0.268   3.628  0.1184 -0.2270 -0.1800
   79MOL   C16928405   5.684   0.114   3.640  0.3971  0.2770 -0.0643
   79MOL   C17028406   5.741   0.062   3.770  0.2807  0.1527  0.3422
   79MOL   O17128407   5.885   0.074   3.781  0.0262  0.4720  0.2362
   79MOL   H17228408   5.493   0.271   3.342 -0.1242 -1.8761  0.5253
   79MOL   H17328409   5.468   0.184   3.481 -0.8549  0.1842 -0.6873
   79MOL   H17428410   5.679   0.415   3.470  0.5961 -0.2713  1.0409
   79MOL   H17528411   5.711   0.263   3.412  0.8720  1.3951 -0.1253
   79MOL   H17628412   5.649   0.318   3.711 -0.1031  1.2146 -1.1680
   79MOL   H17728413   5.802   0.300   3.649  0.3229 -1.1669  0.2693
   79MOL   H17828414   5.741   0.052   3.571  0.1794  0.1825 -0.1571
   79MOL   H17928415   5.583   0.076   3.629  0.6373 -0.1720 -0.6721
   79MOL   H18028416   5.709   0.110   3.862  1.3681  2.8440 -0.6348
   79MOL   H18128417   5.720   7.800   3.778 -1.1122  0.4768  1.1794
   79MOL   C18228418   5.966   7.808   3.753  1.0083 -0.2332  0.0545
   79MOL   O18328419   5.921   7.707   3.699 -0.3575 -0.2009  0.8309
   79MOL   C18428420   6.111   7.831   3.798 -0.7075  0.6093 -0.2901
   79MOL   C18528421   6.215   7.811   3.690  0.4547 -0.1683 -0.0000
   79MOL   C18628422   6.354   7.783   3.739  0.2038 -0.6954 -0.1480
   79MOL   C18728423   6.450   7.745   3.621  0.0437  0.3948  0.0001
   79MOL   C18828424   6.587   7.684   3.663 -0.2021  0.6445  0.8449
   79MOL   O18928425   6.567   7.565   3.735 -0.4331 -0.0858  0.2378
   79MOL   H19028426   6.127   7.758   3.877  0.7948 -0.5003 -1.5979
   79MOL   H19128427   6.127   0.087   3.837  1.2827  1.0641 -2.1682
   79MOL   H19228428   6.225   0.052   3.623  0.9826  2.6022  3.4653
   79MOL   H19328429   6.170   7.726   3.638 -0.3032  0.7811 -0.9279
   79MOL   H19428430   6.343   7.708   3.818  2.1795 -1.1095 -0.2410
   79MOL   H19528431   6.389   0.025   3.796 -1.5354  0.7168 -1.1857
   79MOL   H19628432   6.475   7.826   3.551 -1.3379  1.6275  0.9141
   79MOL   H19728433   6.395   7.672   3.562 -0.6883  2.1474 -1.5544
   79MOL   H19828434   6.653   7.665   3.578  0.1758  1.2783  0.9953
   79MOL   H19928435   6.623   7.764   3.727 -1.3165  1.7246  0.1479
   79MOL   C20028436   6.526   7.456   3.673  0.5841 -0.1711  0.3044
   79MOL   O20128437   6.534   7.437   3.555 -0.2907  0.2260 -0.1313
   79MOL   C20228438   6.474   7.347   3.768 -0.0535 -0.4152  0.4726
   79MOL   C20328439   6.326   7.357   3.806 -0.2035 -0.0575  0.9453
   79MOL   C20428440   6.296   7.288   3.934  0.0332  0.3751  0.0171
   79MOL   C20528441   6.283   7.130   3.922 -0.7217 -0.4624 -0.2935
   79MOL   C20628442   6.234   7.064   4.056 -0.1060 -0.3262  0.8318
   79MOL   O20728443   6.326   7.100   4.162 -0.7348 -0.5066 -0.0786
   79MOL   H20828444   6.538   7.358   3.856 -0.5493 -0.4469  0.8357
   79MOL   H20928445   6.505   7.251   3.726  0.2007 -0.8747  1.7060
   79MOL   H21028446   6.262   7.312   3.729  0.3953 -2.3467  1.7462
   79MOL   H21128447   6.299   7.462   3.815 -0.3127  0.2373 -2.1209
   79MOL   H21228448   6.203   7.326   3.978 -0.9937 -0.7328 -1.1468
   79MOL   H21328449   6.382   7.309   3.997  1.1805  0.6178 -1.5975
   79MOL   H21428450   6.378   7.089   3.889 -1.0254  0.3908 -2.2771
   79MOL   H21528451   6.211   7.102   3.846  0.1745 -1.7144 -0.6924
   79MOL   H21628452   6.130   7.090   4.071 -0.1001  0.5113 -0.5142
   79MOL   H21728453   6.251   6.958   4.036  1.7785  0.0928  0.0958
   79MOL   C21828454   6.281   7.172   4.265 -0.2222 -0.0089  0.1225
   79MOL   O21928455   6.175   7.235   4.267  0.4168 -0.7356 -0.0923
   79MOL   C22028456   6.374   7.202   4.381  0.5893  0.2466  0.1617
   79MOL   C22128457   6.515   7.246   4.332 -0.3376 -0.3719 -0.0265
   79MOL   C22228458   6.618   7.265   4.438  0.2603  0.1210  0.0825
   79MOL   C22328459   6.750   7.296   4.367 -0.7767  0.0552 -0.0691
   79MOL   C22428460   6.862   7.359   4.449 -0.2439  0.0573  0.1821
   79MOL   O22528461   6.987   7.357   4.379  0.7676  0.5234 -0.3476
   79MOL   H22628462   6.381   7.124   4.458 -1.4463  0.9069  1.0662
   79MOL   H22728463   6.323   7.281   4.436  0.9398 -0.3951  1.4383
   79MOL   H22828464   6.512   7.340   4.276  1.0123 -1.1468 -1.4352
   79MOL   H22928465   6.554   7.175   4.259 -1.2544 -0.5291 -0.3727
   79MOL   H23028466   6.623   7.186   4.514 -1.0722  1.3317  1.4612
   79MOL   H23128467   6.595   7.356   4.493 -1.4108 -0.1327 -0.1828
   79MOL   H23228468   6.742   7.373   4.291  0.9129  0.3664  0.0616
   79MOL   H23328469   6.785   7.205   4.318 -2.5756  0.1311 -1.5335
   79MOL   H23428470   6.827   7.450   4.499  1.0685  0.6246  0.0982
   79MOL   H23528471   6.863   7.285   4.529 -0.5356 -0.0540  0.0837
   79MOL   C23628472   7.020   7.447   4.291 -0.1720  0.4949  0.4246
   79MOL   O23728473   6.945   7.524   4.235  0.2175  0.1778  0.8473
   79MOL   C23828474   7.170   7.433   4.249 -0.5736 -0.3028 -0.3633
   79MOL   C23928475   7.251   7.441   4.379  0.5323 -0.4352  0.6814
   79MOL   C24028476   7.402   7.434   4.359  0.0573 -0.4584  0.0391
   79MOL   C24128477   7.471   7.409   4.495 -0.1953 -0.7041 -0.5116
   79MOL   C24228478   7.443   7.510   4.605  0.2463 -0.3943 -0.2365
   79MOL   O24328479   7.324   7.484   4.684  0.1535  0.2345  0.7662
   79MOL   H24428480   7.198   7.518   4.187  1.2191 -0.0494  0.7566
   79MOL   H24528481   7.201   7.344   4.195 -0.0865  1.1949 -2.5925
   79MOL   H24628482   7.234   7.360   4.450 -1.8850  0.5590  1.2977
   79MOL   H24728483   7.230   7.535   4.430  0.1963 -0.2900  0.2797
   79MOL   H24828484   7.441   7.528   4.321  1.1869 -0.7231  0.5264
   79MOL   H24928485   7.423   7.364   4.278  0.0559 -0.9278  0.4402
   79MOL   H25028486   7.574   7.423   4.461 -0.8004 -0.3939 -2.2858
   79MOL   H25128487   7.460   7.306   4.529 -1.2578 -0.8202 -1.1922
   79MOL   H25228488   7.522   7.529   4.679 -1.1208  3.5882  0.3380
   79MOL   H25328489   7.431   7.608   4.558  0.3221 -0.5065 -0.4916
   79MOL   C25428490   7.310   7.549   4.792  0.0223  0.4597 -0.4443
   79MOL   O25528491   7.372   7.647   4.834  0.6614 -0.1472  0.1448
   79MOL   C25628492   7.203   7.480   4.869 -0.0983  0.0143 -0.3548
   79MOL   C25728493   7.059   7.523   4.832 -1.0971  0.1536 -0.5609
   79MOL   C25828494   6.938   7.452   4.897 -1.4086 -0.4488 -0.1135
   79MOL   C25928495   6.806   7.484   4.822  0.1488  0.3847 -0.4688
   79MOL   C26028496   6.686   7.451   4.908  0.3077 -0.3202 -0.0722
   79MOL   O26128497   6.680   7.313   4.936 -0.0062  0.0849  0.7337
   79MOL   H26228498   7.223   7.488   4.976 -1.9055  0.2218 -0.0200
   79MOL   H26328499   7.208   7.372   4.855 -3.7180 -0.0562 -1.6683
   79MOL   H26428500   7.062   7.503   4.725  1.1247  1.9287 -0.8653
   79MOL   H26528501   7.053   7.631   4.848  0.7832  0.0552  0.9885
   79MOL   H26628502   6.926   7.473   5.003  0.5929 -1.6399  0.3790
   79MOL   H26728503   6.956   7.345   4.887  4.1423  0.3525 -0.6288
   79MOL   H26828504   6.815   7.445   4.721  1.4604 -0.3787 -0.0740
   79MOL   H26928505   6.806   7.593   4.816  1.9098  0.4358  0.0557
   79MOL   H27028506   6.692   7.523   4.989 -0.6256  1.4471 -1.5323
   79MOL   H27128507   6.599   7.488   4.853  0.8470  0.8573 -0.1603
   79MOL   C27228508   6.578   7.277   5.018 -0.6325  0.3561 -0.0174
   79MOL   O27328509   6.492   7.352   5.059 -0.6430  0.5799 -0.0065
   79MOL   C27428510   6.574   7.127   5.044 -0.2243 -0.1938  0.0705
   79MOL   C27528511   6.497   7.066   5.158  0.0864 -0.4506 -0.5125
   79MOL   C27628512   6.486   6.910   5.166 -1.1138  0.0243  0.1094
   79MOL   C27728513   6.627   6.842   5.184  0.1291  0.1985 -0.0997
   79MOL   C27828514   6.613   6.690   5.196 -0.7424 -0.5338  0.1090
   79MOL   O27928515   6.566   6.668   5.332 -0.3090 -0.2753  0.3776
   79MOL   H28028516   6.675   7.088   5.038  0.1023  0.6540 -0.1174
   79MOL   H28128517   6.525   7.085   4.956 -0.1695  0.1841 -0.1452
   79MOL   H28228518   6.403   7.120   5.167  0.6356  0.2959  1.0333
   79MOL   H28328519   6.554   7.090   5.248 -0.9259  3.1702 -0.7573
   79MOL   H28428520   6.437   6.859   5.084 -0.6566 -1.4080  0.7100
   79MOL   H28528521   6.422   6.881   5.249 -0.3137 -1.0727  0.3561
   79MOL   H28628522   6.678   6.892   5.266  0.2827 -0.3726  0.1574
   79MOL   H28728523   6.669   6.868   5.086  0.6753 -0.0010  0.0797
   79MOL   H28828524   6.560   6.644   5.112 -1.4001  2.6348 -1.2947
   79MOL   H28928525   6.708   6.637   5.195  0.0002  0.6888  2.0446
   79MOL   C29028526   6.478   6.575   5.352  0.0267 -0.6685 -0.0831
   79MOL   O29128527   6.446   6.485   5.276  0.2531  0.4768  0.2793
   79MOL   C29228528   6.418   6.592   5.491  0.4908 -0.4021 -0.1818
   79MOL   C29328529   6.498   6.526   5.600 -0.5325 -0.5633  0.4579
   79MOL   C29428530   6.467   6.599   5.741  0.0129  0.1845 -0.5938
   79MOL   C29528531   6.509   6.533   5.878 -0.4548  0.6190 -0.3801
   79MOL   C29628532   6.434   6.596   5.997 -0.3535 -0.4833  0.2328
   79MOL   O29728533   6.460   6.732   6.002  0.0370  0.0551  0.7434
   79MOL   H29828534   6.314   6.562   5.491  0.7445 -1.3931  1.6142
   79MOL   H29928535   6.420   6.701   5.497  2.1452 -0.5332  2.6871
   79MOL   H30028536   6.606   6.529   5.587 -0.5687  0.1526  0.2835
   79MOL   H30128537   6.470   6.421   5.606  1.1805 -1.1777 -1.6638
   79MOL   H30228538   6.360   6.621   5.745  0.1706  1.4097 -2.3584
   79MOL   H30328539   6.514   6.697   5.743  2.4754 -0.9817  3.2147
   79MOL   H30428540   6.616   6.548   5.888 -0.6572  0.6451  2.0875
   79MOL   H30528541   6.497   6.424   5.880  2.2655  0.2842 -0.4628
   79MOL   H30628542   6.326   6.595   5.982 -0.5156 -0.3229  1.3434
   79MOL   H30728543   6.455   6.537   6.087 -0.4243 -0.4346  0.2819
   79MOL   C30828544   6.537   6.791   6.100  0.2052 -0.0077 -0.4624
   79MOL   O30928545   6.566   6.732   6.206  0.0198  0.1398  0.5786
   79MOL   C31028546   6.585   6.940   6.070  0.1716 -0.5361 -0.2324
   79MOL   C31128547   6.542   6.984   5.929 -0.9169 -0.0628  0.3066
   79MOL   C31228548   6.654   6.935   5.841 -0.5604  0.0563  0.4231
   79MOL   C31328549   6.633   6.975   5.697 -0.1073 -0.1045 -0.6117
   79MOL   C31428550   6.748   6.943   5.601 -0.7840  0.3305  0.4626
   79MOL   O31528551   6.760   6.807   5.577  0.3136 -0.1880  0.2930
   79MOL   H31628552   6.691   6.962   6.085  0.3662 -1.1811 -0.6524
   79MOL   H31728553   6.518   6.998   6.135  1.1893  1.8521 -1.2574
   79MOL   H31828554   6.539   7.093   5.924 -2.2543 -0.0357  1.1873
   79MOL   H31928555   6.447   6.938   5.900  0.0375 -1.2367 -1.0347
   79MOL   H32028556   6.673   6.829   5.851  0.6474  0.2791  0.5917
   79MOL   H32128557   6.752   6.980   5.861  0.1238 -0.9300 -0.6557
   79MOL   H32228558   6.597   7.076   5.675  1.3071  0.1638 -1.7825
   79MOL   H32328559   6.550   6.914   5.661 -0.5921 -0.0327  0.3599
   79MOL   H32428560   6.721   6.984   5.504  1.1638 -1.9980 -1.1323
   79MOL   H32528561   6.838   6.996   5.631 -0.4170 -0.8071  1.4297
   79MOL   C32628562   6.877   6.759   5.554  0.1836 -0.0870 -0.0808
   79MOL   O32728563   6.977   6.823   5.564 -0.2348 -0.3202  0.8062
   79MOL   C32828564   6.876   6.617   5.496 -0.3767  0.9863 -0.3415
   79MOL   C32928565   6.895   6.519   5.608 -0.7610 -0.0992  0.4889
   79MOL   C33028566   6.891   6.374   5.567 -0.0843 -0.1305 -0.5272
   79MOL   C33128567   6.994   6.326   5.466  0.6459  0.1207  0.5252
   79MOL   C33228568   6.970   6.178   5.434 -0.2269  0.3572 -0.1802
   79MOL   O33328569   7.015   6.136   5.307  0.2491  0.0340 -0.2665
   79MOL   H33428570   6.953   6.626   5.418 -0.8726  1.6194 -0.7657
   79MOL   H33528571   6.788   6.584   5.441  0.3500  0.5699 -1.2646
   79MOL   H33628572   6.807   6.540   5.669 -1.5714  0.6348 -0.9042
   79MOL   H33728573   6.985   6.548   5.662 -1.0610  1.0619  0.3923
   79MOL   H33828574   6.787   6.362   5.537 -0.4762 -0.2018  0.7985
   79MOL   H33928575   6.906   6.316   5.658  3.1129 -0.1984 -1.0192
   79MOL   H34028576   7.097   6.353   5.490  1.3832 -0.3269 -1.9115
   79MOL   H34128577   6.979   6.384   5.375  0.4635 -0.5939  0.0913
   79MOL   H34228578   7.001   6.111   5.515 -2.9009  0.2722  0.8349
   79MOL   H34328579   6.862   6.166   5.437 -0.3448  1.5532  2.8645
   79MOL   C34428580   7.140   6.109   5.293  0.7976  0.3827 -0.0425
   79MOL   O34528581   7.218   6.093   5.389 -0.0968  0.2929  0.8975
   79MOL   C34628582   7.180   6.088   5.148  0.2728  0.0095  0.3438
   79MOL   C34728583   7.077   6.009   5.063  0.5320 -0.2773  0.0392
   79MOL   C34828584   7.079   5.860   5.103  0.1048  0.3632 -0.2112
   79MOL   C34928585   7.017   5.773   4.990  1.0848 -0.1626  0.5258
   79MOL   C35028586   6.870   5.800   4.982 -0.2856 -0.1420  0.0983
   79MOL   O35128587   6.802   5.773   5.102 -0.8285 -0.7548 -0.3506
   79MOL   H35228588   7.275   6.034   5.152  0.3218  0.2095  3.1981
   79MOL   H35328589   7.191   6.183   5.095 -0.5791 -0.2129 -0.2325
   79MOL   H35428590   7.111   6.017   4.959  0.4015  1.4218  0.1226
   79MOL   H35528591   6.977   6.051   5.075  1.7199  2.4226  0.7305
   79MOL   H35628592   7.034   5.852   5.202 -0.6652 -0.1939 -0.6106
   79MOL   H35728593   7.182   5.824   5.110  0.0026 -0.0199 -0.6779
   79MOL   H35828594   7.029   5.665   4.998  1.2993 -0.2598 -0.9824
   79MOL   H35928595   7.058   5.801   4.893  0.6527  0.7730  0.6018
   79MOL   H36028596   6.850   5.901   4.947 -0.2175 -0.2835 -0.3627
   79MOL   H36128597   6.825   5.738   4.904  2.0047  0.4922 -1.7695
   79MOL   H36228598   6.819   5.845   5.161 -0.9519  1.1966 -2.6500
   80MOL     C128599   2.917   3.051   6.880 -0.3790 -0.5139 -0.0197
   80MOL     O228600   3.038   3.070   6.908 -0.8549 -0.3050  0.2109
   80MOL     C328601   2.871   2.952   6.775  0.2863 -0.0228  0.4106
   80MOL     C428602   2.855   2.806   6.832 -0.0327 -0.4750  0.1677
   80MOL     C528603   2.810   2.708   6.722  0.5029 -0.9216 -0.2908
   80MOL     C628604   2.817   2.566   6.771 -0.5546 -0.4371  0.3001
   80MOL     C728605   2.766   2.460   6.669 -0.4039 -0.4378  0.2828
   80MOL     O828606   2.726   2.338   6.725  0.0492  0.3737  0.2506
   80MOL     H928607   2.943   2.962   6.694 -0.9811  1.1215 -0.6039
   80MOL    H1028608   2.777   2.998   6.744  1.0961  0.3328 -1.5587
   80MOL    H1128609   2.782   2.813   6.914  0.3043 -0.4894  0.4709
   80MOL    H1228610   2.951   2.769   6.867 -0.0993 -0.4942  0.3350
   80MOL    H1328611   2.880   2.711   6.638  0.3592 -1.8144 -0.4548
   80MOL    H1428612   2.707   2.730   6.694  1.9142  3.3798 -2.5543
   80MOL    H1528613   2.752   2.566   6.859 -3.0203 -1.3992 -1.4604
   80MOL    H1628614   2.919   2.538   6.797 -2.0615 -3.6843  3.2343
   80MOL    H1728615   2.676   2.485   6.613  0.5269 -1.3883 -1.7066
   80MOL    H1828616   2.833   2.428   6.589 -0.8234  0.5650 -0.4778
   80MOL    H1928617   2.831   3.108   6.916 -1.0457 -1.8477  0.5642
   80MOL    C2028618   2.814   2.243   6.748 -0.1699 -0.3314 -0.9822
   80MOL    O2128619   2.932   2.255   6.728  0.8989 -0.0040  0.3183
   80MOL    C2228620   2.749   2.127   6.811 -0.4212  0.2252  0.8982
   80MOL    C2328621   2.722   2.134   6.957 -0.3809  0.6555  0.4600
   80MOL    C2428622   2.850   2.116   7.046  0.0981  0.4134 -0.0629
   80MOL    C2528623   2.832   2.100   7.197 -0.1262 -0.5212 -0.1175
   80MOL    C2628624   2.969   2.094   7.271  0.5745 -0.6841  0.8955
   80MOL    O2728625   3.050   1.993   7.208  0.7026 -0.6178 -0.3177
   80MOL    H2828626   2.818   2.043   6.804 -1.4085 -0.3196 -3.4073
   80MOL    H2928627   2.660   2.101   6.754 -0.7687  0.7039  1.2211
   80MOL    H3028628   2.643   2.065   6.986 -0.4161  0.9294  1.0175
   80MOL    H3128629   2.686   2.233   6.984 -1.8877  0.6689 -1.4449
   80MOL    H3228630   2.915   2.203   7.033  0.1004  0.1960 -1.6146
   80MOL    H3328631   2.908   2.027   7.022  0.5261 -0.1066  2.7750
   80MOL    H3428632   2.770   2.011   7.209  0.7973 -1.0901  0.4982
   80MOL    H3528633   2.771   2.179   7.242  1.3781  0.3031  0.4926
   80MOL    H3628634   3.021   2.189   7.261 -2.3326  0.8108 -0.5126
   80MOL    H3728635   2.966   2.079   7.379  1.0666 -0.1237  0.9877
   80MOL    C3828636   3.180   1.983   7.241  0.4951  0.5195 -1.0194
   80MOL    O3928637   3.236   2.039   7.332  0.4782 -0.5283 -0.2925
   80MOL    C4028638   3.243   1.882   7.148  0.4220  0.0070 -0.2746
   80MOL    C4128639   3.266   1.733   7.195 -0.2885  0.3562 -0.7965
   80MOL    C4228640   3.374   1.703   7.301 -0.3287 -0.4386 -0.5549
   80MOL    C4328641   3.358   1.558   7.358 -0.1139  0.4552 -0.2044
   80MOL    C4428642   3.479   1.510   7.450  0.8971  0.5322 -0.4815
   80MOL    O4528643   3.455   1.380   7.497  0.2634 -0.8666  0.2160
   80MOL    H4628644   3.338   1.923   7.114  1.3951 -0.1957  2.0932
   80MOL    H4728645   3.187   1.872   7.055  1.5744 -0.0541 -0.9738
   80MOL    H4828646   3.295   1.679   7.105  1.9567 -0.5036  0.3838
   80MOL    H4928647   3.171   1.695   7.231  0.9797 -1.6119  0.6272
   80MOL    H5028648   3.373   1.775   7.382 -0.8363 -1.7490  0.6308
   80MOL    H5128649   3.469   1.706   7.248  0.6982  3.6864  1.3761
   80MOL    H5228650   3.345   1.479   7.283 -3.9213 -1.1422  1.9599
   80MOL    H5328651   3.271   1.555   7.424  0.8063  0.3124  1.0010
   80MOL    H5428652   3.565   1.494   7.384  0.8027 -2.1210 -0.0186
   80MOL    H5528653   3.515   1.573   7.532 -0.6285 -0.0511  0.6413
   80MOL    C5628654   3.546   1.313   7.571  0.3597 -0.5626 -0.2303
   80MOL    O5728655   3.660   1.354   7.583  0.5778  0.2591 -0.0549
   80MOL    C5828656   3.497   1.178   7.632 -0.1974 -0.2003 -0.1612
   80MOL    C5928657   3.574   1.123   7.748  0.0288 -0.3290 -0.3838
   80MOL    C6028658   3.534   1.193   0.034  0.1742 -0.5316  0.2162
   80MOL    C6128659   3.572   1.135   0.168 -0.0517  0.8399 -1.0896
   80MOL    C6228660   3.531   1.214   0.297 -0.1119  0.2352 -0.0496
   80MOL    O6328661   3.542   1.120   0.407 -0.5703 -0.6124  0.2066
   80MOL    H6428662   3.485   1.103   7.554  0.7360 -1.0952  0.5396
   80MOL    H6528663   3.398   1.206   7.667 -0.5637 -1.4040 -0.2415
   80MOL    H6628664   3.682   1.121   7.733 -0.3153 -1.7614 -2.8285
   80MOL    H6728665   3.536   1.021   7.753 -0.6988 -0.0862 -0.8071
   80MOL    H6828666   3.428   1.211   0.051  0.3215 -0.2538  0.8837
   80MOL    H6928667   3.572   1.295   0.027 -0.7176 -0.2007  0.1163
   80MOL    H7028668   3.676   1.103   0.166 -0.5204 -0.6656 -2.1294
   80MOL    H7128669   3.515   1.042   0.169 -0.1626  0.9008  1.4727
   80MOL    H7228670   3.588   1.303   0.322  0.9447 -0.9161  1.7513
   80MOL    H7328671   3.432   1.257   0.288 -0.5841 -0.8920 -0.3432
   80MOL    C7428672   3.623   1.146   0.513 -0.5546 -0.2308 -0.2837
   80MOL    O7528673   3.707   1.235   0.524 -0.5152 -0.0131  0.2756
   80MOL    C7628674   3.601   1.039   0.621 -0.3186  0.5729  0.0742
   80MOL    C7728675   3.467   1.058   0.685 -0.3925  0.3578 -0.1638
   80MOL    C7828676   3.455   0.972   0.808 -0.1315 -0.2359  0.4297
   80MOL    C7928677   3.317   0.985   0.872  0.1884  0.0046  0.3013
   80MOL    C8028678   3.292   0.891   0.999 -0.9324  0.2651 -0.3766
   80MOL    O8128679   3.389   0.932   1.097 -0.4592 -0.0628  0.2023
   80MOL    H8228680   3.685   1.050   0.690  1.5250  1.1456 -2.1727
   80MOL    H8328681   3.615   0.947   0.565 -0.7919  1.3191 -1.2919
   80MOL    H8428682   3.388   1.024   0.618 -1.3999 -1.4563  1.8803
   80MOL    H8528683   3.450   1.161   0.719 -0.6478  0.5886 -0.9787
   80MOL    H8628684   3.533   1.002   0.877 -0.1204  0.4416  0.1264
   80MOL    H8728685   3.460   0.865   0.785 -2.1224 -0.2775  0.1351
   80MOL    H8828686   3.249   0.950   0.793  0.8408  1.1103 -0.7641
   80MOL    H8928687   3.288   1.087   0.895  0.2560 -0.1396  1.0324
   80MOL    H9028688   3.189   0.910   1.030 -1.5108  0.5845 -2.4265
   80MOL    H9128689   3.286   0.786   0.973 -0.8681 -0.3407  1.9511
   80MOL    C9228690   3.432   0.837   1.186 -0.0884 -0.5402 -0.2289
   80MOL    O9328691   3.384   0.728   1.210 -0.0215 -0.7302 -0.6153
   80MOL    C9428692   3.555   0.891   1.259  0.4048  0.5563 -0.5472
   80MOL    C9528693   3.604   0.812   1.384 -0.8666 -0.2577  0.4699
   80MOL    C9628694   3.514   0.812   1.508  0.2341 -0.0397  0.2875
   80MOL    C9728695   3.555   0.717   1.613  0.0190 -0.1165 -0.4972
   80MOL    C9828696   3.697   0.747   1.669  0.1619 -0.1655 -0.0747
   80MOL    O9928697   3.730   0.654   1.770 -0.5592  0.5339  0.1515
   80MOL   H10028698   3.523   0.989   1.294  0.7341  0.2068  0.7876
   80MOL   H10128699   3.637   0.917   1.191  0.1626  1.5670 -0.4619
   80MOL   H10228700   3.702   0.845   1.418 -0.6646  1.1774 -1.4386
   80MOL   H10328701   3.623   0.708   1.357  0.9192 -0.1143  1.1152
   80MOL   H10428702   3.408   0.797   1.488 -0.1621 -2.3175  3.6547
   80MOL   H10528703   3.510   0.909   1.557 -3.4170  0.0753 -0.0985
   80MOL   H10628704   3.570   0.618   1.570  1.0767  0.2181 -0.9272
   80MOL   H10728705   3.483   0.721   1.695  1.3518  3.2120  0.5829
   80MOL   H10828706   3.763   0.720   1.586 -0.9481  1.2458 -1.4570
   80MOL   H10928707   3.724   0.849   1.696  3.1867 -0.7029 -0.9170
   80MOL   C11028708   3.695   0.675   1.898  0.0871 -0.0560  0.8705
   80MOL   O11128709   3.646   0.777   1.941  0.3020  0.2169  0.0480
   80MOL   C11228710   3.720   0.560   1.988  0.4560 -0.3604 -0.1834
   80MOL   C11328711   3.633   0.428   1.952 -0.2702  0.0476 -0.2380
   80MOL   C11428712   3.689   0.351   1.828  0.1886 -0.7334  0.2498
   80MOL   C11528713   3.588   0.252   1.765 -0.5055  0.0906  0.0446
   80MOL   C11628714   3.638   0.189   1.637 -0.3017  0.2390  0.4583
   80MOL   O11728715   3.638   0.276   1.524  0.4434 -0.1990  0.0533
   80MOL   H11828716   3.673   0.594   2.081 -1.1643  0.6979 -1.3783
   80MOL   H11928717   3.825   0.538   2.008  0.4802  0.3262  0.4410
   80MOL   H12028718   3.527   0.450   1.937 -0.3033  0.0232 -0.0498
   80MOL   H12128719   3.621   0.364   2.039  0.4115 -1.9293 -1.5784
   80MOL   H12228720   3.782   0.301   1.857  0.0421 -1.1376  0.0421
   80MOL   H12328721   3.724   0.420   1.751  0.1210 -0.2462  0.6524
   80MOL   H12428722   3.498   0.304   1.730 -0.5749 -1.3715 -2.0556
   80MOL   H12528723   3.565   0.170   1.832  1.6788  1.5082  2.6137
   80MOL   H12628724   3.735   0.142   1.654 -1.0018 -0.5850  2.2663
   80MOL   H12728725   3.575   0.103   1.615 -0.5175  0.3463  0.6602
   80MOL   C12828726   3.753   0.335   1.491 -0.0369  0.1983  0.4010
   80MOL   O12928727   3.863   0.317   1.540 -0.3022  0.6462  0.9607
   80MOL   C13028728   3.744   0.436   1.378 -0.8073  0.5681  0.4693
   80MOL   C13128729   3.654   0.392   1.257 -0.0665  0.4067  0.1812
   80MOL   C13228730   3.651   0.491   1.134 -0.1221 -0.1392  0.2764
   80MOL   C13328731   3.552   0.451   1.020  0.4630 -0.2092 -0.1884
   80MOL   C13428732   3.580   0.515   0.888  0.7748 -0.1937 -0.3541
   80MOL   O13528733   3.690   0.445   0.831  0.1517  0.1467 -0.4383
   80MOL   H13628734   3.844   0.451   1.337 -1.4605  0.4125 -1.2108
   80MOL   H13728735   3.716   0.534   1.417  2.8833  2.0278 -0.3154
   80MOL   H13828736   3.552   0.378   1.293 -0.1448  0.4380 -0.0305
   80MOL   H13928737   3.692   0.298   1.218  0.9810  1.7697 -2.1630
   80MOL   H14028738   3.754   0.510   1.105 -0.0924  1.8157  1.6122
   80MOL   H14128739   3.630   0.594   1.163  1.5547  0.2381  0.1790
   80MOL   H14228740   3.453   0.490   1.043  0.7829  0.3403  0.2775
   80MOL   H14328741   3.561   0.343   1.006  1.1882  0.0136 -1.4952
   80MOL   H14428742   3.498   0.487   0.822 -0.2891  0.0445  0.8260
   80MOL   H14528743   3.584   0.624   0.899 -0.2015 -0.2031  0.1594
   80MOL   C14628744   3.718   0.449   0.702  0.5337  0.6195  0.0542
   80MOL   O14728745   3.643   0.499   0.616  0.0257  0.2201 -0.3759
   80MOL   C14828746   3.831   0.357   0.668 -0.2182  0.2263 -0.0786
   80MOL   C14928747   3.875   0.365   0.523  0.1426 -0.1969  0.9307
   80MOL   C15028748   3.934   0.503   0.475 -0.4956  1.4844 -0.9123
   80MOL   C15128749   3.948   0.507   0.323 -0.3207 -0.5996  0.8827
   80MOL   C15228750   4.038   0.615   0.265  0.0029  0.1610 -0.0690
   80MOL   O15328751   4.173   0.581   0.267 -0.2929 -0.5097  0.1465
   80MOL   H15428752   3.807   0.256   0.700  0.4026  0.5372  1.4293
   80MOL   H15528753   3.920   0.383   0.727  0.7059  0.0335 -1.3674
   80MOL   H15628754   3.789   0.331   0.466 -2.1940  2.7215  2.6066
   80MOL   H15728755   3.948   0.284   0.512 -2.3732 -2.3959 -0.0315
   80MOL   H15828756   4.034   0.522   0.514  0.7122 -2.1953 -2.0148
   80MOL   H15928757   3.877   0.590   0.508 -0.1212  0.4556  2.7702
   80MOL   H16028758   3.847   0.515   0.281  0.0715 -0.9531 -0.1353
   80MOL   H16128759   3.988   0.416   0.279  1.4676  1.0138 -0.9520
   80MOL   H16228760   4.009   0.629   0.161 -0.1542  2.1078  0.2246
   80MOL   H16328761   4.028   0.710   0.317 -0.6010 -0.5080  1.0609
   80MOL   C16428762   4.259   0.611   0.160  0.9072 -0.6428  0.0245
   80MOL   O16528763   4.230   0.661   0.051 -0.2270  0.5387  0.0540
   80MOL   C16628764   4.401   0.564   0.190  0.2147 -0.1822  0.2120
   80MOL   C16728765   4.444   0.485   0.069  0.1239 -0.5589  0.7482
   80MOL   C16828766   4.564   0.396   0.096 -0.6706  0.9724 -0.7898
   80MOL   C16928767   4.550   0.288   0.206 -0.0617  0.3672 -0.6048
   80MOL   C17028768   4.667   0.183   0.216 -0.0194 -0.5557  0.4832
   80MOL   O17128769   4.626   0.056   0.267 -0.5077  0.1668 -0.7715
   80MOL   H17228770   4.385   0.501   0.278 -2.4599  0.7422  0.4382
   80MOL   H17328771   4.467   0.648   0.212 -0.6482  0.5029  0.2285
   80MOL   H17428772   4.479   0.552   7.834 -2.1551 -2.2661 -1.8115
   80MOL   H17528773   4.362   0.427   0.026  0.2172 -0.7169  0.7855
   80MOL   H17628774   4.636   0.471   0.128 -1.8890  0.2118  3.9757
   80MOL   H17728775   4.588   0.357   7.841  1.5338  0.1530  0.0259
   80MOL   H17828776   4.466   0.227   0.174  0.3886  0.6080 -2.3373
   80MOL   H17928777   4.524   0.327   0.304  1.0162  0.3225 -0.2901
   80MOL   H18028778   4.709   0.169   0.117 -0.7106 -0.3729  0.1635
   80MOL   H18128779   4.743   0.229   0.279  1.2807  0.4542 -1.7684
   80MOL   C18228780   4.642   0.032   0.400 -0.1637  0.1950 -0.1508
   80MOL   O18328781   4.679   0.109   0.486  0.0880  0.3931  0.3149
   80MOL   C18428782   4.622   7.729   0.442 -0.0353 -0.2783  0.0776
   80MOL   C18528783   4.625   7.695   0.591 -0.1729  0.6390  0.3575
   80MOL   C18628784   4.485   7.730   0.648 -0.4506  0.0854 -0.3711
   80MOL   C18728785   4.371   7.670   0.567  0.3347  1.1387 -0.3448
   80MOL   C18828786   4.231   7.681   0.639  0.0073 -0.3673  0.5820
   80MOL   O18928787   4.128   7.680   0.534 -0.4864  0.2509  0.6422
   80MOL   H19028788   4.707   7.677   0.398  2.6674  1.5665  2.9074
   80MOL   H19128789   4.542   7.687   0.382  0.5703 -1.7633  0.2708
   80MOL   H19228790   4.694   7.756   0.649 -1.5614 -0.1973  2.9686
   80MOL   H19328791   4.652   7.590   0.593 -0.4192  0.5543 -0.5404
   80MOL   H19428792   4.475   7.838   0.645 -0.1232  0.1578  0.9164
   80MOL   H19528793   4.484   7.713   0.756  0.0554 -2.1921 -0.6870
   80MOL   H19628794   4.381   7.563   0.545 -1.7128  0.4370  1.8037
   80MOL   H19728795   4.364   7.720   0.471  3.1402  3.5025  0.6268
   80MOL   H19828796   4.217   7.598   0.708  1.2625  0.1503  1.4673
   80MOL   H19928797   4.214   7.772   0.696  2.5318  0.1087  0.6075
   80MOL   C20028798   4.008   7.741   0.552  0.0057 -0.0745 -1.0633
   80MOL   O20128799   3.973   7.796   0.654 -0.3407 -0.3264 -0.5465
   80MOL   C20228800   3.920   7.724   0.424 -0.9027 -0.2642 -1.0791
   80MOL   C20328801   3.829   7.603   0.434 -0.2665 -0.0372  0.6055
   80MOL   C20428802   3.787   7.553   0.296 -0.0581 -0.9734  0.1069
   80MOL   C20528803   3.682   7.440   0.308  0.0678 -0.2378  0.3952
   80MOL   C20628804   3.646   7.392   0.169  0.4868  0.5578  0.0738
   80MOL   O20728805   3.746   7.320   0.095  0.2629 -0.1602 -0.0154
   80MOL   H20828806   3.975   7.722   0.330  0.2655 -0.7170 -0.4050
   80MOL   H20928807   3.850   7.807   0.417 -1.7467 -0.8035  0.8319
   80MOL   H21028808   3.747   7.642   0.494  1.0764  3.1498  0.4683
   80MOL   H21128809   3.878   7.521   0.486  0.4625 -0.6868 -1.0569
   80MOL   H21228810   3.876   7.514   0.247 -0.7380  0.0938 -2.0170
   80MOL   H21328811   3.751   7.626   0.224 -1.7367 -1.6480  0.2420
   80MOL   H21428812   3.596   7.478   0.364 -0.8856 -0.1384 -1.1143
   80MOL   H21528813   3.715   7.350   0.360 -0.8211 -0.3978  0.6826
   80MOL   H21628814   3.551   7.339   0.171  1.2871 -0.8957  0.9976
   80MOL   H21728815   3.615   7.483   0.118 -0.9259 -0.4507 -0.9146
   80MOL   C21828816   3.781   7.187   0.120  0.1399 -0.0844 -0.3952
   80MOL   O21928817   3.742   7.118   0.212 -0.0748 -0.2907 -0.0958
   80MOL   C22028818   3.885   7.147   0.014 -0.0041  0.3537  0.5403
   80MOL   C22128819   3.915   6.996   0.021 -0.6548  1.0079 -0.3107
   80MOL   C22228820   4.026   6.952   0.113  0.7839  0.1651  0.6877
   80MOL   C22328821   4.051   6.799   0.125  0.8142  0.2383  0.1290
   80MOL   C22428822   4.180   6.762   0.195  0.1719  0.4266 -0.2683
   80MOL   O22528823   4.286   6.781   0.103 -0.0202  0.5273  0.1582
   80MOL   H22628824   3.976   7.204   0.029  0.3716 -0.1072  0.0134
   80MOL   H22728825   3.849   7.164   7.757  1.5584 -0.2253 -0.1224
   80MOL   H22828826   3.941   6.954   7.768 -2.0162 -0.4814 -0.0409
   80MOL   H22928827   3.829   6.932   0.042 -0.8840  0.8950 -1.5560
   80MOL   H23028828   4.005   6.995   0.211  3.1703 -0.0905  1.3244
   80MOL   H23128829   4.116   7.008   0.090 -1.6530  3.4039 -1.4939
   80MOL   H23228830   4.063   6.754   0.026 -0.8970  0.0807 -0.0226
   80MOL   H23328831   3.963   6.754   0.171 -1.7175  3.2404 -1.5589
   80MOL   H23428832   4.205   6.826   0.279 -0.7411 -1.3743  1.4265
   80MOL   H23528833   4.182   6.659   0.232  0.0430  0.4158 -0.2919
   80MOL   C23628834   4.312   6.689   0.010 -0.3994 -0.5374  0.1208
   80MOL   O23728835   4.254   6.581   7.844  0.1066 -0.6262  0.4001
   80MOL   C23828836   4.423   6.734   7.757 -0.7463 -0.1681  0.2837
   80MOL   C23928837   4.416   6.680   7.616  0.2875 -0.1811 -0.3622
   80MOL   C24028838   4.294   6.736   7.546 -0.1088 -0.6172  0.6397
   80MOL   C24128839   4.261   6.669   7.412 -0.7640 -0.2626 -0.6848
   80MOL   C24228840   4.181   6.766   7.312 -0.0287  0.1102 -0.7262
   80MOL   O24328841   4.063   6.807   7.383  0.0370 -0.1404  0.3213
   80MOL   H24428842   4.514   6.691   7.799 -1.2732 -0.5053  1.0779
   80MOL   H24528843   4.446   6.841   7.759 -2.0511  0.1794 -1.6851
   80MOL   H24628844   4.414   6.571   7.620  2.1467 -0.2118  0.0941
   80MOL   H24728845   4.511   6.701   7.568  1.9860 -3.4765  1.3652
   80MOL   H24828846   4.301   6.843   7.532  0.4407 -0.8594 -1.1105
   80MOL   H24928847   4.207   6.721   7.610 -0.5653  0.1535  0.2046
   80MOL   H25028848   4.192   6.587   7.434 -0.2329 -0.0922  1.8146
   80MOL   H25128849   4.350   6.625   7.368 -0.0405  0.6233 -0.1164
   80MOL   H25228850   4.245   6.853   7.301 -0.1604  0.1442 -1.2553
   80MOL   H25328851   4.152   6.700   7.229 -0.6374 -0.2258 -0.2451
   80MOL   C25428852   4.016   6.941   7.380  0.2118  0.2744  0.0911
   80MOL   O25528853   4.083   7.033   7.331  0.1780 -0.4171  0.0603
   80MOL   C25628854   3.880   6.973   7.445 -0.0061  0.0145 -0.3010
   80MOL   C25728855   3.749   6.929   7.369 -0.2799 -0.1534  0.1059
   80MOL   C25828856   3.693   7.013   7.255 -0.3717 -0.0082 -0.3646
   80MOL   C25928857   3.574   6.940   7.198 -0.4659 -0.3959 -0.2398
   80MOL   C26028858   3.510   7.013   7.082  0.9005 -0.7151 -0.3862
   80MOL   O26128859   3.472   7.148   7.099 -0.0139 -0.1638  0.1095
   80MOL   H26228860   3.873   7.077   7.479 -0.0417 -0.4809  1.2623
   80MOL   H26328861   3.882   6.913   7.536  1.1073 -1.1251 -1.0670
   80MOL   H26428862   3.665   6.906   7.434 -0.3226 -1.1539 -0.2931
   80MOL   H26528863   3.777   6.831   7.328  1.4120  0.8859 -1.2878
   80MOL   H26628864   3.753   7.033   7.166 -0.2804 -0.3053 -0.3695
   80MOL   H26728865   3.677   7.115   7.290  1.0903  0.0135  0.2698
   80MOL   H26828866   3.499   6.919   7.274  2.7585 -0.8026  2.9360
   80MOL   H26928867   3.604   6.847   7.151 -0.2255 -0.2820 -0.3127
   80MOL   H27028868   3.579   7.017   6.997  0.2905 -0.6843 -0.8835
   80MOL   H27128869   3.433   6.954   7.033 -0.5990  2.0835 -1.5113
   80MOL   C27228870   3.338   7.164   7.135  0.5573  0.3038 -0.2749
   80MOL   O27328871   3.256   7.071   7.149 -0.1569 -0.1103 -0.1697
   80MOL   C27428872   3.288   7.309   7.131  0.1363 -0.1717 -0.0755
   80MOL   C27528873   3.135   7.330   7.133 -0.4281 -0.2921  0.9781
   80MOL   C27628874   3.093   7.447   7.042  0.8136 -0.2695  0.6272
   80MOL   C27728875   2.946   7.485   7.064 -0.3195 -0.0891 -0.3267
   80MOL   C27828876   2.903   7.605   6.978  0.0568  0.8349  0.6224
   80MOL   O27928877   2.764   7.630   7.013 -0.4462 -0.3419 -0.7533
   80MOL   H28028878   3.318   7.361   7.040  1.1147 -0.0696  0.2927
   80MOL   H28128879   3.330   7.370   7.211 -1.4110  0.4352  0.2953
   80MOL   H28228880   3.111   7.358   7.236 -0.0051  0.6111  0.8336
   80MOL   H28328881   3.079   7.245   7.096 -2.6567  1.2652  0.6919
   80MOL   H28428882   3.123   7.425   6.939 -0.5282  0.7711 -0.0081
   80MOL   H28528883   3.157   7.533   7.062 -0.9272  0.6373  2.4794
   80MOL   H28628884   2.941   7.509   7.170  1.2374  0.0151 -0.2689
   80MOL   H28728885   2.876   7.403   7.049 -0.5758  0.1040 -0.1949
   80MOL   H28828886   2.972   7.687   6.998  1.1378  0.1714 -0.3043
   80MOL   H28928887   2.916   7.593   6.870  0.2023 -0.0357  0.7387
   80MOL   C29028888   2.713   7.751   7.019  0.3048 -0.0794  0.2091
   80MOL   O29128889   2.764   0.002   6.960  0.0239  0.5153 -0.3544
   80MOL   C29228890   2.581   7.765   7.099 -0.2899 -0.0104  0.1485
   80MOL   C29328891   2.574   7.696   7.237  0.0615  0.6584  0.2229
   80MOL   C29428892   2.542   7.547   7.217  0.2724  0.0750 -0.1323
   80MOL   C29528893   2.531   7.472   7.344  0.0653 -0.2166 -0.0696
   80MOL   C29628894   2.532   7.323   7.328  0.1624 -0.4808 -0.0380
   80MOL   O29728895   2.646   7.286   7.263  0.2212  0.3121  0.3918
   80MOL   H29828896   2.500   7.725   7.039  0.1944  0.3426 -0.7432
   80MOL   H29928897   2.570   0.029   7.103 -1.1314  0.0341 -2.7573
   80MOL   H30028898   2.508   7.742   7.310 -1.0051 -0.0357 -0.3036
   80MOL   H30128899   2.676   7.703   7.276  0.1686 -0.6162  0.1833
   80MOL   H30228900   2.618   7.493   7.160 -1.6651 -2.8597 -0.0144
   80MOL   H30328901   2.445   7.533   7.169  0.1314  0.0996  0.1474
   80MOL   H30428902   2.439   7.501   7.395 -0.2799 -0.9005 -0.3060
   80MOL   H30528903   2.613   7.493   7.413 -1.8372 -1.7952  2.7758
   80MOL   H30628904   2.505   7.273   7.420  0.3007 -2.1804 -0.8997
   80MOL   H30728905   2.451   7.305   7.257 -2.0814  3.7321  1.2808
   80MOL   C30828906   2.740   7.204   7.327 -0.2439  0.3962 -0.1284
   80MOL   O30928907   2.733   7.172   7.445  0.1749  0.1104  0.4409
   80MOL   C31028908   2.860   7.168   7.246  0.4442 -0.2611  0.0779
   80MOL   C31128909   2.969   7.073   7.305  0.3735  0.3932  0.5877
   80MOL   C31228910   3.042   7.108   7.439  0.5771  0.3450  0.4468
   80MOL   C31328911   3.146   6.996   7.467  0.0675  0.3071 -0.0811
   80MOL   C31428912   3.229   7.024   7.592 -0.1098  0.1046  0.2034
   80MOL   O31528913   3.287   7.153   7.603  0.2643  0.1943  0.1511
   80MOL   H31628914   2.901   7.262   7.209  0.8837 -1.3004 -2.1841
   80MOL   H31728915   2.823   7.124   7.153  1.3108 -0.7580 -0.0377
   80MOL   H31828916   3.039   7.052   7.225 -1.5273 -0.3384 -0.9184
   80MOL   H31928917   2.905   6.986   7.317 -1.9692  1.9737 -0.0615
   80MOL   H32028918   2.977   7.105   7.526 -1.3375  3.3175 -0.8136
   80MOL   H32128919   3.082   7.208   7.427  0.2796  0.5562  1.2460
   80MOL   H32228920   3.213   6.991   7.381 -1.0239  2.4491 -1.0932
   80MOL   H32328921   3.085   6.905   7.468  1.5370 -0.6960 -0.2642
   80MOL   H32428922   3.165   7.008   7.678 -0.5575 -1.4267 -0.4060
   80MOL   H32528923   3.309   6.956   7.618  0.6894  1.1742  0.5847
   80MOL   C32628924   3.411   7.182   7.548 -0.1430  0.8595 -0.5326
   80MOL   O32728925   3.464   7.105   7.469  0.0667  0.2580  0.1626
   80MOL   C32828926   3.479   7.311   7.594  0.4236 -0.1035 -1.0651
   80MOL   C32928927   3.439   7.442   7.517 -0.1022  0.3386  0.2445
   80MOL   C33028928   3.289   7.479   7.513  0.2195 -0.0568  0.2887
   80MOL   C33128929   3.252   7.594   7.420 -0.4838 -0.5060  0.0527
   80MOL   C33228930   3.105   7.614   7.433  0.4229  0.0097  0.1951
   80MOL   O33328931   3.052   7.722   7.341  0.4942 -0.0126  0.1071
   80MOL   H33428932   3.587   7.298   7.587  0.7496  1.2972  1.0155
   80MOL   H33528933   3.458   7.318   7.701  0.2299 -0.3673 -1.0828
   80MOL   H33628934   3.480   7.435   7.416  0.0721 -0.8989  0.3889
   80MOL   H33728935   3.493   7.524   7.565 -0.9197  1.4180 -0.6406
   80MOL   H33828936   3.258   7.502   7.615 -0.9580 -1.5739  0.2890
   80MOL   H33928937   3.239   7.391   7.473  1.5332 -1.3144  1.3552
   80MOL   H34028938   3.274   7.556   7.320 -1.3673 -0.7853 -0.0372
   80MOL   H34128939   3.305   7.687   7.441 -2.0225  0.6501 -1.1141
   80MOL   H34228940   3.049   7.525   7.400  1.2516 -0.1706 -0.7444
   80MOL   H34328941   3.073   7.645   7.532 -0.4773 -1.1747  0.2951
   80MOL   C34428942   3.070   0.006   7.367  0.4569  0.7983 -0.3735
   80MOL   O34528943   3.106   0.055   7.479  0.4871 -0.0900  0.0607
   80MOL   C34628944   3.007   0.089   7.253  0.6001  0.0002 -0.2034
   80MOL   C34728945   2.871   0.142   7.298  0.1897 -0.3394 -0.1992
   80MOL   C34828946   2.813   0.234   7.189  0.0025  0.7300 -0.6151
   80MOL   C34928947   2.678   0.296   7.220  0.1198 -0.0185 -0.3872
   80MOL   C35028948   2.599   0.338   7.088  0.0062  0.2776 -0.0017
   80MOL   O35128949   2.485   0.401   7.137  0.3605 -0.3813  0.2206
   80MOL   H35228950   3.014   0.031   7.161  2.3825  1.1042 -0.7889
   80MOL   H35328951   3.070   0.177   7.240 -0.5539  0.6799 -1.3292
   80MOL   H35428952   2.877   0.191   7.395  1.9299  2.0209 -1.4533
   80MOL   H35528953   2.807   0.056   7.318 -0.7890  0.6332  0.9249
   80MOL   H35628954   2.821   0.188   7.090  2.5724  1.4228 -0.7438
   80MOL   H35728955   2.883   0.317   7.183  2.7402 -1.3835  0.7534
   80MOL   H35828956   2.679   0.384   7.283 -2.1869 -0.2760  0.0369
   80MOL   H35928957   2.617   0.226   7.276 -0.4242  1.3751  0.7834
   80MOL   H36028958   2.654   0.414   7.033  1.2469  0.2044  1.1161
   80MOL   H36128959   2.574   0.256   7.022  2.9785 -0.6707 -0.0255
   80MOL   H36228960   2.422   0.441   7.079 -0.9371 -2.7095 -0.0216
   81MOL     C128961   5.098   2.842   5.076 -0.3686 -0.2810 -0.3542
   81MOL     O228962   4.994   2.912   5.078 -0.1076 -0.2770  0.5018
   81MOL     C328963   5.103   2.687   5.099 -0.0035 -0.0690 -0.8878
   81MOL     C428964   5.006   2.638   5.211 -0.4794 -0.2635 -0.3050
   81MOL     C528965   5.015   2.484   5.225 -0.3798 -0.4116  0.2457
   81MOL     C628966   4.924   2.426   5.342  0.6672 -0.7759 -0.0989
   81MOL     C728967   4.772   2.407   5.309  0.2298 -0.4938  0.3939
   81MOL     O828968   4.759   2.300   5.219 -0.1827  0.1933  0.2196
   81MOL     H928969   5.207   2.667   5.127 -0.7570 -2.7734  0.1009
   81MOL    H1028970   5.105   2.631   5.005  1.3607 -1.0001 -0.3187
   81MOL    H1128971   4.903   2.671   5.196  0.1085  1.6365 -0.3202
   81MOL    H1228972   5.049   2.692   5.295 -0.4554  0.0817 -0.5365
   81MOL    H1328973   5.122   2.468   5.241  0.3052  1.3701 -2.2740
   81MOL    H1428974   4.993   2.442   5.127  3.2962  1.6782 -1.5867
   81MOL    H1528975   4.939   2.491   5.428  1.1332 -1.2087  0.1561
   81MOL    H1628976   4.967   2.327   5.357  0.0686 -1.1646 -0.9137
   81MOL    H1728977   4.721   2.387   5.403 -0.6084  1.0924  0.2910
   81MOL    H1828978   4.728   2.495   5.261 -0.0531 -1.1821 -0.6361
   81MOL    H1928979   5.195   2.890   5.066  0.4336 -1.7852  0.0156
   81MOL    C2028980   4.695   2.184   5.242  0.6617 -0.4031 -0.5166
   81MOL    O2128981   4.663   2.140   5.354 -0.2633 -0.2180 -0.4815
   81MOL    C2228982   4.685   2.104   5.116  0.4123 -0.9194 -0.0218
   81MOL    C2328983   4.538   2.102   5.059  0.2370  0.1362  1.1743
   81MOL    C2428984   4.447   1.999   5.114  0.0441 -0.0405 -0.1613
   81MOL    C2528985   4.308   1.999   5.052  0.3420  0.4099 -0.0389
   81MOL    C2628986   4.216   1.904   5.130  0.1406  0.2154  0.1190
   81MOL    O2728987   4.108   1.859   5.050  0.1773 -0.0080 -0.2730
   81MOL    H2828988   4.731   2.005   5.123  1.3111 -0.5297 -0.2730
   81MOL    H2928989   4.748   2.157   5.044 -1.0770  3.5216  1.8264
   81MOL    H3028990   4.542   2.099   4.950 -0.0865 -1.6385  1.1994
   81MOL    H3128991   4.501   2.204   5.073 -0.5540  0.0550 -0.2644
   81MOL    H3228992   4.452   2.004   5.223 -0.2465  0.4905 -0.1694
   81MOL    H3328993   4.494   1.902   5.104  1.2748  0.1682  2.9241
   81MOL    H3428994   4.313   1.961   4.950 -0.2602 -0.7578  0.3634
   81MOL    H3528995   4.261   2.097   5.062  2.3877  1.5651 -1.2092
   81MOL    H3628996   4.263   1.813   5.167  2.0675 -0.1664 -3.0840
   81MOL    H3728997   4.177   1.958   5.216 -0.0654 -0.0753  0.2098
   81MOL    C3828998   4.029   1.757   5.093 -0.3866 -0.3874 -0.0046
   81MOL    O3928999   4.033   1.694   5.200  0.4460 -0.5582 -0.2018
   81MOL    C4029000   3.929   1.715   4.993 -0.1418  0.6283 -0.3777
   81MOL    C4129001   3.994   1.630   4.886 -0.3063 -0.5417  0.0570
   81MOL    C4229002   4.024   1.719   4.767  0.1698  0.6243 -0.1655
   81MOL    C4329003   4.110   1.657   4.660  0.3130 -0.0065  0.2399
   81MOL    C4429004   4.178   1.760   4.570  0.0057  0.6096 -0.6563
   81MOL    O4529005   4.278   1.839   4.627  0.3605 -0.0374 -0.2910
   81MOL    H4629006   3.887   1.799   4.936 -1.3478 -0.7868 -1.6184
   81MOL    H4729007   3.866   1.646   5.049  1.8463  1.7989  3.4061
   81MOL    H4829008   3.930   1.546   4.858  1.1668 -1.2538 -1.2242
   81MOL    H4929009   4.091   1.589   4.913  0.2913  2.2241  2.4138
   81MOL    H5029010   4.088   1.793   4.815 -0.7852  1.9001 -0.8439
   81MOL    H5129011   3.931   1.760   4.727 -0.1532 -0.2637 -0.3364
   81MOL    H5229012   4.056   1.585   4.598  0.3676 -1.4678  1.8467
   81MOL    H5329013   4.193   1.599   4.699  1.1367  1.1010  0.1615
   81MOL    H5429014   4.239   1.696   4.508 -0.2856 -1.1445  0.8064
   81MOL    H5529015   4.102   1.819   4.519 -2.5243  0.0553  2.2687
   81MOL    C5629016   4.281   1.969   4.630  0.0209  0.0320  0.2760
   81MOL    O5729017   4.192   2.044   4.588 -0.5341  0.9518  0.2450
   81MOL    C5829018   4.416   2.026   4.674  0.5133  0.2144  0.2723
   81MOL    C5929019   4.526   1.989   4.567 -0.1434 -0.3197  0.5480
   81MOL    C6029020   4.668   2.026   4.614  0.0563  0.6293 -0.6755
   81MOL    C6129021   4.767   1.940   4.519  1.1560  0.8978  0.0435
   81MOL    C6229022   4.912   1.976   4.522 -0.4371  0.2075 -1.1568
   81MOL    O6329023   4.941   2.064   4.416 -0.0126 -0.4889 -0.4938
   81MOL    H6429024   4.458   1.999   4.771  0.9940 -1.5677 -0.4195
   81MOL    H6529025   4.400   2.134   4.668  1.8730  0.4162  0.0745
   81MOL    H6629026   4.501   2.026   4.468  2.2704 -4.2006 -1.6177
   81MOL    H6729027   4.516   1.884   4.540 -0.7611  0.3416 -1.8662
   81MOL    H6829028   4.678   2.016   4.722 -2.3637 -2.5576 -0.6515
   81MOL    H6929029   4.701   2.128   4.599 -0.8909  0.9978 -0.2611
   81MOL    H7029030   4.733   1.931   4.415 -3.0495 -1.2040  1.4667
   81MOL    H7129031   4.764   1.834   4.542  0.3790  0.5735 -1.4974
   81MOL    H7229032   4.952   2.014   4.616  1.7270 -0.3350 -1.8077
   81MOL    H7329033   4.959   1.881   4.494  0.7870  1.2808 -2.7985
   81MOL    C7429034   5.046   2.148   4.411 -0.6485  0.2470  0.2506
   81MOL    O7529035   5.135   2.151   4.497 -0.2281  0.3286  0.2145
   81MOL    C7629036   5.034   2.237   4.285 -0.8069 -0.6004 -0.4972
   81MOL    C7729037   5.162   2.226   4.198  0.1499 -0.1013 -0.3503
   81MOL    C7829038   5.165   2.110   4.096  0.1492 -0.1998 -0.3153
   81MOL    C7929039   5.255   2.134   3.968 -0.5672  0.2337  0.4959
   81MOL    C8029040   5.221   2.046   3.845  1.0177 -0.0691 -1.0581
   81MOL    O8129041   5.086   2.071   3.811 -0.8321 -0.4821  0.3784
   81MOL    H8229042   5.020   2.340   4.317  0.2461 -0.9291  1.1054
   81MOL    H8329043   4.939   2.210   4.237  0.0275  0.5704 -2.8748
   81MOL    H8429044   5.250   2.215   4.261 -1.2634 -0.2638  1.6711
   81MOL    H8529045   5.176   2.317   4.140  1.5571 -1.7280 -2.6480
   81MOL    H8629046   5.060   2.103   4.068  0.4395 -0.2928 -1.4089
   81MOL    H8729047   5.195   2.013   4.134  1.2181 -0.0677 -0.7936
   81MOL    H8829048   5.359   2.113   3.991 -1.5547 -2.0511  3.1707
   81MOL    H8929049   5.244   2.238   3.935  2.2012  0.2942 -0.3184
   81MOL    H9029050   5.285   2.067   3.760  0.8094  1.0800 -0.9403
   81MOL    H9129051   5.231   1.941   3.873 -1.2642 -0.1346 -0.4010
   81MOL    C9229052   5.031   2.002   3.705  0.8101  0.6092 -0.9195
   81MOL    O9329053   5.084   1.921   3.630 -0.4311 -0.4393 -0.2084
   81MOL    C9429054   4.887   2.038   3.683 -1.1176 -0.7983 -0.4222
   81MOL    C9529055   4.845   2.099   3.548  0.6296  0.2859  0.0555
   81MOL    C9629056   4.914   2.239   3.538  0.2596  0.2544  0.0826
   81MOL    C9729057   4.902   2.275   3.392 -0.2269 -0.0796 -0.5870
   81MOL    C9829058   4.954   2.420   3.384  0.0212 -0.3831 -0.6357
   81MOL    O9929059   4.928   2.474   3.254  0.5389  0.4659 -0.0716
   81MOL   H10029060   4.852   2.112   3.754  0.2592  0.4272 -0.9803
   81MOL   H10129061   4.821   1.958   3.717 -0.5313 -0.6005  1.2317
   81MOL   H10229062   4.737   2.114   3.555  0.3823 -0.9863 -0.9721
   81MOL   H10329063   4.874   2.026   3.473 -0.2438  1.4377 -1.4127
   81MOL   H10429064   5.017   2.238   3.571  0.4843  1.5392 -0.5261
   81MOL   H10529065   4.868   2.314   3.603  1.0328  0.5206  0.3290
   81MOL   H10629066   4.796   2.268   3.368 -0.7476 -2.3431  2.0375
   81MOL   H10729067   4.960   2.209   3.328  0.9523 -0.4527  0.8515
   81MOL   H10829068   4.917   2.478   3.469  0.4199 -2.0847  0.7437
   81MOL   H10929069   5.061   2.429   3.399  0.0192  0.0581 -0.8720
   81MOL   C11029070   4.852   2.584   3.231 -0.0633  0.2503  0.4850
   81MOL   O11129071   4.800   2.650   3.316  0.1271 -0.0508 -1.0729
   81MOL   C11229072   4.846   2.628   3.082  0.0484  0.0883 -0.2269
   81MOL   C11329073   4.790   2.519   2.990  0.5780 -0.0027 -0.7172
   81MOL   C11429074   4.639   2.506   3.000 -0.6675  0.1680 -0.4452
   81MOL   C11529075   4.569   2.407   2.904  0.2458 -0.3054  0.3279
   81MOL   C11629076   4.601   2.259   2.935  0.3125 -0.6064  0.0410
   81MOL   O11729077   4.521   2.179   2.851  0.3303 -0.3951  0.3987
   81MOL   H11829078   4.952   2.647   3.061  0.4412 -1.8117 -0.1256
   81MOL   H11929079   4.788   2.718   3.062 -1.5723 -0.7085  0.7932
   81MOL   H12029080   4.848   2.428   3.004  0.3327  0.1800  1.7047
   81MOL   H12129081   4.812   2.549   2.888 -0.6182 -1.1535 -1.3320
   81MOL   H12229082   4.597   2.604   2.977  1.9371  2.1720  2.7536
   81MOL   H12329083   4.610   2.492   3.105 -0.6423  2.1038 -0.1589
   81MOL   H12429084   4.574   2.440   2.800 -1.7326 -0.2966  0.2026
   81MOL   H12529085   4.460   2.403   2.898  0.1726  2.5642 -0.9774
   81MOL   H12629086   4.708   2.243   2.930  0.2658 -1.0243  0.4167
   81MOL   H12729087   4.563   2.224   3.031  1.5056  1.0337  1.1495
   81MOL   C12829088   4.566   2.062   2.802 -0.8395 -0.1265  0.3006
   81MOL   O12929089   4.671   2.010   2.835 -0.1640 -0.1749  0.0084
   81MOL   C13029090   4.473   1.982   2.713 -0.2784 -0.1793 -0.2106
   81MOL   C13129091   4.325   2.028   2.740  0.7020  0.2471 -0.5028
   81MOL   C13229092   4.217   1.950   2.655 -0.3505  0.0745 -0.2823
   81MOL   C13329093   4.069   1.993   2.689 -0.1188  0.0621 -0.1993
   81MOL   C13429094   3.966   1.908   2.619 -0.6666  0.1287  0.5329
   81MOL   O13529095   3.984   1.771   2.647  0.4621  0.5806 -0.1635
   81MOL   H13629096   4.491   1.878   2.739  1.7842  0.0074 -0.7496
   81MOL   H13729097   4.499   1.996   2.608 -3.9762  2.3174 -0.8853
   81MOL   H13829098   4.311   2.133   2.715 -2.0946 -0.2873 -1.3643
   81MOL   H13929099   4.298   2.017   2.845  2.8030 -1.4084 -0.1038
   81MOL   H14029100   4.226   1.844   2.676  0.2651 -0.3387 -2.4289
   81MOL   H14129101   4.232   1.969   2.548  0.4638  0.7277 -0.0586
   81MOL   H14229102   4.059   2.098   2.661  0.8780  0.2735  0.1986
   81MOL   H14329103   4.060   1.989   2.798 -0.4716  0.8979 -0.1915
   81MOL   H14429104   3.873   1.954   2.652 -0.5127  1.6952 -1.1841
   81MOL   H14529105   3.960   1.917   2.511  1.3418 -2.2376  0.1758
   81MOL   C14629106   3.939   1.707   2.764 -0.2209 -0.1494  1.1351
   81MOL   O14729107   3.882   1.755   2.861 -0.1499  0.1776 -0.5507
   81MOL   C14829108   3.986   1.563   2.764  0.0640 -1.0024 -0.7525
   81MOL   C14929109   3.895   1.459   2.700  0.0125 -0.1024 -0.3294
   81MOL   C15029110   3.931   1.437   2.552  0.5990  0.4765  0.3552
   81MOL   C15129111   3.822   1.350   2.494 -0.4508 -0.0244  0.3315
   81MOL   C15229112   3.873   1.277   2.369 -0.3580 -0.7965  0.6439
   81MOL   O15329113   3.891   1.380   2.265 -0.5698 -0.2522  0.1890
   81MOL   H15429114   4.004   1.545   2.870 -4.3875 -0.5793  0.1773
   81MOL   H15529115   4.090   1.566   2.731  0.2603  1.7259 -0.0740
   81MOL   H15629116   3.790   1.485   2.718  0.0604 -0.2851  0.2408
   81MOL   H15729117   3.914   1.363   2.748 -0.4395 -0.4709 -0.8890
   81MOL   H15829118   4.032   1.397   2.539 -0.8938 -3.0253 -1.1396
   81MOL   H15929119   3.934   1.534   2.501 -0.6651  0.4283  0.1874
   81MOL   H16029120   3.732   1.409   2.480 -0.4285  0.6653  2.7563
   81MOL   H16129121   3.792   1.276   2.569 -0.6038  0.7224  1.0166
   81MOL   H16229122   3.968   1.227   2.388 -0.7433 -1.7832  0.0088
   81MOL   H16329123   3.802   1.199   2.344 -3.2172  1.2576  2.1174
   81MOL   C16429124   4.009   1.401   2.201 -0.4274 -0.3320  0.0121
   81MOL   O16529125   4.102   1.323   2.219  0.6209 -0.0289  0.4729
   81MOL   C16629126   4.019   1.525   2.114 -0.8816 -0.1496  0.2616
   81MOL   C16729127   3.994   1.651   2.191  0.0891  1.3089  0.3401
   81MOL   C16829128   4.005   1.782   2.108 -0.7160 -0.5563  0.5298
   81MOL   C16929129   3.972   1.910   2.186  0.1307  0.5048 -0.4460
   81MOL   C17029130   3.939   2.034   2.102 -0.3555  0.1645  0.0535
   81MOL   O17129131   4.059   2.082   2.036  0.7276 -0.2921  0.0238
   81MOL   H17229132   3.944   1.508   2.036 -0.2716 -1.0178 -0.1478
   81MOL   H17329133   4.109   1.528   2.052 -0.8036 -0.2796  0.3671
   81MOL   H17429134   4.069   1.656   2.270 -0.1116  0.6021  0.5841
   81MOL   H17529135   3.898   1.648   2.243 -0.8671 -1.2578 -1.4810
   81MOL   H17629136   3.948   1.782   2.015 -0.9429 -3.4891  0.6275
   81MOL   H17729137   4.107   1.791   2.072 -1.5717 -0.0345 -1.8677
   81MOL   H17829138   4.059   1.932   2.248  1.5282 -1.9932 -1.4443
   81MOL   H17929139   3.882   1.885   2.241 -1.9775 -0.5096 -4.2020
   81MOL   H18029140   3.860   2.022   2.029  0.0731 -1.4489 -0.1632
   81MOL   H18129141   3.918   2.114   2.173  0.7841  0.2484  0.3170
   81MOL   C18229142   4.076   2.214   1.987  0.1936  0.2238  0.0174
   81MOL   O18329143   3.988   2.301   1.986 -0.3485  0.2297  0.7771
   81MOL   C18429144   4.216   2.224   1.924 -0.0146 -0.2646  0.0762
   81MOL   C18529145   4.259   2.371   1.880  0.4376 -0.5324 -0.5052
   81MOL   C18629146   4.268   2.469   2.001 -0.3940  0.3815 -0.5305
   81MOL   C18729147   4.301   2.618   1.978  0.4516  1.0424  0.8592
   81MOL   C18829148   4.303   2.698   2.116  0.2627  0.1413  0.2775
   81MOL   O18929149   4.257   2.824   2.095  0.0667 -0.1388 -0.1458
   81MOL   H19029150   4.205   2.155   1.841  2.9628 -1.5199  0.6551
   81MOL   H19129151   4.286   2.177   1.993 -0.7910 -0.5748  0.6531
   81MOL   H19229152   4.179   2.417   1.821 -1.2204 -1.9170  0.6016
   81MOL   H19329153   4.358   2.361   1.836  1.5301  0.8916  1.5930
   81MOL   H19429154   4.323   2.434   2.089 -2.3082  0.6814  0.8185
   81MOL   H19529155   4.165   2.470   2.035 -0.0585  0.3926  0.5134
   81MOL   H19629156   4.230   2.661   1.909  1.7394  1.2518 -0.3627
   81MOL   H19729157   4.396   2.617   1.925 -0.1392 -0.6930 -0.2109
   81MOL   H19829158   4.246   2.647   2.194 -0.9200 -0.4763 -0.9616
   81MOL   H19929159   4.409   2.703   2.141 -0.0523  0.9409  1.4764
   81MOL   C20029160   4.235   2.900   2.209 -0.2674  0.7531  0.1800
   81MOL   O20129161   4.231   2.849   2.325 -0.4778  0.1819  0.2405
   81MOL   C20229162   4.231   3.049   2.177 -0.0221  0.6273  0.3819
   81MOL   C20329163   4.087   3.112   2.188 -0.5654  0.2424  0.0844
   81MOL   C20429164   4.082   3.250   2.121 -0.4413  0.5419  0.3106
   81MOL   C20529165   3.942   3.314   2.134  0.1375  0.2229  0.0029
   81MOL   C20629166   3.840   3.260   2.033 -0.3007 -0.0840  0.1799
   81MOL   O20729167   3.861   3.303   1.896  0.8257 -0.1427 -0.0728
   81MOL   H20829168   4.273   3.061   2.077  1.1010  0.9750  0.8816
   81MOL   H20929169   4.294   3.096   2.253  1.4782  1.3501 -1.2849
   81MOL   H21029170   4.063   3.126   2.294 -2.0744  4.9276 -0.7751
   81MOL   H21129171   4.012   3.042   2.150 -0.6268 -0.0624  0.7460
   81MOL   H21229172   4.094   3.244   2.013 -0.3267  1.6925  0.2550
   81MOL   H21329173   4.154   3.322   2.159 -1.4164  1.8410 -0.2660
   81MOL   H21429174   3.953   3.421   2.120 -0.0118  0.1874 -0.3944
   81MOL   H21529175   3.904   3.312   2.236 -0.6536 -2.0444 -0.3022
   81MOL   H21629176   3.832   3.152   2.025 -0.2382 -0.0533 -0.3389
   81MOL   H21729177   3.742   3.301   2.056  0.3330  1.7212 -0.1993
   81MOL   C21829178   3.835   3.426   1.861  0.7996 -0.3125  0.1008
   81MOL   O21929179   3.779   3.512   1.930  0.1984  0.2268 -0.1264
   81MOL   C22029180   3.896   3.456   1.724 -0.1830  0.3808 -0.2265
   81MOL   C22129181   4.047   3.484   1.736  0.2488 -0.3321 -0.0990
   81MOL   C22229182   4.121   3.524   1.611  0.1586 -0.6311 -0.2554
   81MOL   C22329183   4.272   3.562   1.634  0.7184 -0.7590  0.6522
   81MOL   C22429184   4.317   3.628   1.500  0.0333  0.2870 -0.1688
   81MOL   O22529185   4.350   3.529   1.408 -0.1858 -0.4538  0.0992
   81MOL   H22629186   3.838   3.542   1.689 -0.7146  0.2433  0.3095
   81MOL   H22729187   3.883   3.372   1.656 -1.3968  1.0179 -0.7957
   81MOL   H22829188   4.092   3.397   1.784 -0.0001 -1.8552 -2.5782
   81MOL   H22929189   4.053   3.566   1.808 -1.6235 -0.1603 -0.1087
   81MOL   H23029190   4.062   3.612   1.589 -0.3752 -0.6252  1.1295
   81MOL   H23129191   4.105   3.453   1.530  0.4874 -0.6907 -0.2692
   81MOL   H23229192   4.326   3.470   1.656  0.3191 -0.9789  0.7187
   81MOL   H23329193   4.281   3.632   1.717  1.4053  0.4512 -0.4227
   81MOL   H23429194   4.247   3.694   1.449 -1.2006  1.9771  3.5086
   81MOL   H23529195   4.399   3.695   1.527  1.0985 -1.9959  2.4913
   81MOL   C23629196   4.483   3.493   1.397  0.1564 -0.0538  0.7618
   81MOL   O23729197   4.572   3.532   1.473  0.0445 -0.0834 -0.1167
   81MOL   C23829198   4.500   3.414   1.276  0.3177 -1.1857 -0.6536
   81MOL   C23929199   4.502   3.257   1.303 -0.2648 -0.4084 -0.4165
   81MOL   C24029200   4.617   3.203   1.388 -0.0519  0.1519 -0.2423
   81MOL   C24129201   4.621   3.052   1.368 -0.3286 -0.2642 -0.1225
   81MOL   C24229202   4.755   2.997   1.419  0.2421 -0.0635 -0.2470
   81MOL   O24329203   4.860   3.017   1.328 -0.0841  0.1744 -0.2415
   81MOL   H24429204   4.589   3.459   1.230  0.0356  0.9455  0.8145
   81MOL   H24529205   4.416   3.431   1.209  0.9980 -0.6925 -1.4001
   81MOL   H24629206   4.517   3.218   1.203 -0.0516  0.7751 -0.8498
   81MOL   H24729207   4.406   3.226   1.344  0.0534  0.1072  0.7402
   81MOL   H24829208   4.598   3.226   1.492  1.7877 -1.1616  0.4117
   81MOL   H24929209   4.714   3.248   1.364  0.2842  0.8565  2.3484
   81MOL   H25029210   4.626   3.036   1.260  0.2561 -1.5707  0.0842
   81MOL   H25129211   4.535   3.007   1.418 -1.2999  1.6683 -0.0221
   81MOL   H25229212   4.781   3.055   1.508 -0.3975 -0.4575  0.1975
   81MOL   H25329213   4.746   2.899   1.467 -0.2895  0.1083  0.0086
   81MOL   C25429214   4.961   2.929   1.329 -0.8162  0.3073 -0.0067
   81MOL   O25529215   4.963   2.837   1.405  0.1745 -0.2646  0.0729
   81MOL   C25629216   5.067   2.949   1.214 -0.2159  0.5830  0.3671
   81MOL   C25729217   5.137   2.839   1.152 -0.1893  0.7562  0.7291
   81MOL   C25829218   5.243   2.761   1.244  1.1262  0.4963  0.1092
   81MOL   C25929219   5.296   2.634   1.180  0.4312  0.1638  0.3905
   81MOL   C26029220   5.405   2.561   1.248 -0.5051 -0.1303 -0.5032
   81MOL   O26129221   5.421   2.430   1.196  0.6748 -0.2755 -0.4045
   81MOL   H26229222   5.145   3.007   1.264  0.0636  1.2399 -0.8113
   81MOL   H26329223   5.024   3.012   1.136  0.0629  1.6669  1.0762
   81MOL   H26429224   5.163   2.875   1.053 -1.0867 -1.5462 -0.3843
   81MOL   H26529225   5.058   2.765   1.134  1.2163 -0.7725  0.7474
   81MOL   H26629226   5.191   2.733   1.335  0.2154 -2.2633 -1.2027
   81MOL   H26729227   5.330   2.821   1.270  2.8284 -2.7974  2.2457
   81MOL   H26829228   5.323   2.667   1.080 -0.9015  0.0981 -0.0031
   81MOL   H26929229   5.213   2.563   1.178  0.9450 -0.4600  0.6924
   81MOL   H27029230   5.495   2.621   1.240 -0.3675 -0.3227 -0.4122
   81MOL   H27129231   5.378   2.556   1.353 -1.0599 -0.0620 -0.6394
   81MOL   C27229232   5.493   2.412   1.088  0.5983  0.1474  0.1274
   81MOL   O27329233   5.534   2.502   1.014  0.0655  0.4389 -0.0004
   81MOL   C27429234   5.482   2.267   1.046  0.2370  0.8888  0.2518
   81MOL   C27529235   5.339   2.236   0.990 -0.6243  0.6607  0.2318
   81MOL   C27629236   5.237   2.193   1.094  0.1992 -0.1954  0.3975
   81MOL   C27729237   5.094   2.170   1.036  0.4704 -0.4066  0.5502
   81MOL   C27829238   4.995   2.110   1.135 -0.3362  0.5430 -0.7177
   81MOL   O27929239   4.859   2.091   1.088  0.1649  0.0240  0.2843
   81MOL   H28029240   5.497   2.202   1.132  1.0046  1.5639  0.6372
   81MOL   H28129241   5.558   2.250   0.969 -1.7832  1.5441 -1.9578
   81MOL   H28229242   5.349   2.156   0.917  2.2965  1.9494 -0.8665
   81MOL   H28329243   5.305   2.325   0.936  1.5737  1.2032 -0.3027
   81MOL   H28429244   5.235   2.267   1.173 -1.6180 -0.7457  0.9007
   81MOL   H28529245   5.261   2.099   1.144 -2.2340 -0.2973  1.4806
   81MOL   H28629246   5.111   2.112   0.946 -2.8510  1.7906 -1.6122
   81MOL   H28729247   5.050   2.268   1.014  0.7772 -0.4010 -0.0377
   81MOL   H28829248   5.030   2.011   1.164  1.9072  0.5484 -3.2801
   81MOL   H28929249   5.001   2.170   1.226  4.1047  0.2197 -0.6901
   81MOL   C29029250   4.763   2.071   1.177 -0.8021  0.2522 -0.1239
   81MOL   O29129251   4.790   2.074   1.299  0.6201 -0.1361  0.5003
   81MOL   C29229252   4.623   2.051   1.117  0.6972 -0.6287  0.3057
   81MOL   C29329253   4.504   2.057   1.220  0.1361 -0.1800  0.7433
   81MOL   C29429254   4.481   2.198   1.275 -0.6859  0.1403 -0.2648
   81MOL   C29529255   4.337   2.235   1.299  0.3197  0.0908  0.2798
   81MOL   C29629256   4.330   2.363   1.384  0.0579  0.0812 -0.2866
   81MOL   O29729257   4.201   2.415   1.399 -0.1835  0.2929  0.0115
   81MOL   H29829258   4.622   1.949   1.079  1.5991  0.3254 -2.4069
   81MOL   H29929259   4.609   2.113   1.028  0.1100 -1.0379  0.1072
   81MOL   H30029260   4.523   1.984   1.299  1.3275 -2.3187 -1.4356
   81MOL   H30129261   4.418   2.035   1.157 -1.0250 -0.8821  2.5104
   81MOL   H30229262   4.498   2.267   1.192 -0.4967  1.4735  0.8642
   81MOL   H30329263   4.548   2.226   1.356  0.2377 -0.3508 -0.8573
   81MOL   H30429264   4.285   2.148   1.339 -0.3193  0.2349 -0.2208
   81MOL   H30529265   4.285   2.263   1.207  0.4060 -0.2083  0.1417
   81MOL   H30629266   4.375   2.349   1.482  0.7549 -0.9164 -0.7338
   81MOL   H30729267   4.390   2.433   1.326  0.7767 -0.1608  0.1602
   81MOL   C30829268   4.124   2.359   1.495 -0.7941 -0.5688 -0.0303
   81MOL   O30929269   4.158   2.263   1.564 -0.4404 -0.3458  0.0132
   81MOL   C31029270   3.996   2.437   1.526 -0.4954  0.0332 -0.1275
   81MOL   C31129271   3.872   2.381   1.460 -0.4882 -0.4131 -0.2399
   81MOL   C31229272   3.865   2.413   1.307  0.1285  0.6723  0.1828
   81MOL   C31329273   3.733   2.354   1.257  0.6866 -0.0781  0.0316
   81MOL   C31429274   3.706   2.383   1.106 -0.1003 -0.1662  0.0585
   81MOL   O31529275   3.619   2.282   1.066  0.5537 -0.1606  0.2220
   81MOL   H31629276   4.019   2.541   1.504 -0.2720  0.3496  1.5146
   81MOL   H31729277   3.980   2.432   1.634 -1.1557  1.4277 -0.1526
   81MOL   H31829278   3.782   2.415   1.510  0.0044  1.2528 -0.4486
   81MOL   H31929279   3.866   2.272   1.465  0.0965 -0.4132  0.5766
   81MOL   H32029280   3.949   2.377   1.248 -0.2821  0.3607 -0.2245
   81MOL   H32129281   3.871   2.521   1.301 -1.4960  0.8950  2.0865
   81MOL   H32229282   3.639   2.370   1.310 -0.1060 -0.0278 -1.3570
   81MOL   H32329283   3.738   2.247   1.278 -0.1739  0.0933  1.1848
   81MOL   H32429284   3.662   2.481   1.091  0.0766  0.0830  1.1268
   81MOL   H32529285   3.808   2.378   1.069  0.3565  1.8747  0.9506
   81MOL   C32629286   3.662   2.158   1.029  0.5860 -0.3650 -0.4302
   81MOL   O32729287   3.776   2.109   1.046  0.9081 -0.7338  0.4112
   81MOL   C32829288   3.545   2.086   0.954 -0.4063 -0.6952 -0.1277
   81MOL   C32929289   3.584   1.944   0.892  0.6473 -0.2820 -0.3272
   81MOL   C33029290   3.612   1.838   0.999  0.4749 -0.0630  0.0262
   81MOL   C33129291   3.477   1.774   1.048 -0.1874 -0.2685  0.3147
   81MOL   C33229292   3.490   1.660   1.150 -0.3235  0.0450  0.3473
   81MOL   O33329293   3.587   1.698   1.248  0.4931 -0.0465 -0.2741
   81MOL   H33429294   3.522   2.148   0.867 -0.8059  0.6493  0.9346
   81MOL   H33529295   3.450   2.090   1.005  0.1774  0.8553  0.8571
   81MOL   H33629296   3.672   1.959   0.830  1.1123  2.0094  0.8378
   81MOL   H33729297   3.499   1.912   0.832  0.7223 -0.0018 -0.5859
   81MOL   H33829298   3.670   1.881   1.081  2.2057  0.0880 -1.2324
   81MOL   H33929299   3.669   1.760   0.947 -1.2201 -0.1948 -1.6828
   81MOL   H34029300   3.414   1.740   0.966  0.4925 -1.4516  0.2727
   81MOL   H34129301   3.407   1.848   1.087 -1.3407 -0.6363 -1.0084
   81MOL   H34229302   3.389   1.631   1.179  0.3970 -2.3577  0.5287
   81MOL   H34329303   3.525   1.566   1.108 -2.7763 -0.2527 -1.1109
   81MOL   C34429304   3.707   1.623   1.253  0.1503 -0.3227 -0.8239
   81MOL   O34529305   3.732   1.515   1.198  0.1586 -0.0213 -0.2649
   81MOL   C34629306   3.815   1.683   1.354  0.4381  0.2770  1.2890
   81MOL   C34729307   3.953   1.712   1.285 -0.0095  0.4469 -0.2503
   81MOL   C34829308   3.952   1.838   1.204 -0.1136  0.3343 -0.4945
   81MOL   C34929309   4.086   1.870   1.138  0.0736  0.2523 -0.0544
   81MOL   C35029310   4.073   2.011   1.065 -0.8919  0.1293  0.3652
   81MOL   O35129311   4.199   2.052   1.008  0.9755 -0.0242  0.2390
   81MOL   H35229312   3.830   1.600   1.423 -1.9264 -1.9289 -0.7703
   81MOL   H35329313   3.779   1.766   1.415 -0.4471  0.0199  1.1180
   81MOL   H35429314   3.972   1.634   1.212 -0.3901  0.3358 -0.2326
   81MOL   H35529315   4.033   1.714   1.360 -0.4053  1.2681  0.1625
   81MOL   H35629316   3.922   1.926   1.261 -0.0170  0.9937 -1.4455
   81MOL   H35729317   3.885   1.818   1.120 -1.6235 -0.3967  0.8671
   81MOL   H35829318   4.130   1.790   1.079 -0.4187 -0.6092  0.7280
   81MOL   H35929319   4.161   1.886   1.215  1.3180 -1.4680 -0.8882
   81MOL   H36029320   3.987   2.012   0.998 -0.0921  0.1457 -0.6735
   81MOL   H36129321   4.049   2.089   1.137  0.1247 -0.4305  1.3101
   81MOL   H36229322   4.225   1.999   0.935  0.3061 -1.2061  0.8378
   82MOL     C129323   4.003   6.006   4.986 -0.6329 -0.1732 -0.7584
   82MOL     O229324   3.976   6.113   4.928 -0.3003 -0.3521 -0.1838
   82MOL     C329325   3.995   5.989   5.143 -0.2169 -0.1910 -0.4433
   82MOL     C429326   4.128   6.010   5.205  0.0380 -0.3071 -0.4024
   82MOL     C529327   4.119   6.061   5.347 -0.1846  0.2061  0.0354
   82MOL     C629328   4.261   6.086   5.411 -0.2878  0.2263 -0.4997
   82MOL     C729329   4.265   6.161   5.542 -0.1068  0.4474  0.5316
   82MOL     O829330   4.258   6.302   5.522  0.0443  0.2283 -0.3904
   82MOL     H929331   3.950   5.894   5.172  2.2574 -0.6749  2.0840
   82MOL    H1029332   3.924   6.062   5.183 -1.6563 -1.4011 -0.7719
   82MOL    H1129333   4.182   6.091   5.156  0.1208  0.7778  1.4396
   82MOL    H1229334   4.186   5.918   5.214 -1.6141 -1.1349  2.5239
   82MOL    H1329335   4.070   5.990   5.413 -0.7988 -0.5172 -1.1915
   82MOL    H1429336   4.059   6.150   5.366  0.6461  0.6045  0.8977
   82MOL    H1529337   4.337   6.133   5.348  0.5873 -1.8259 -0.9887
   82MOL    H1629338   4.302   5.989   5.438 -0.2063  0.2583 -0.5098
   82MOL    H1729339   4.188   6.125   5.610 -1.5584  1.1129 -0.7284
   82MOL    H1829340   4.360   6.140   5.593  1.2754  1.1310 -1.6748
   82MOL    H1929341   4.040   5.923   4.927 -1.8479 -0.5574 -0.9934
   82MOL    C2029342   4.216   6.384   5.612  0.2226  0.1754  0.5494
   82MOL    O2129343   4.180   6.362   5.727  0.0526 -0.2909 -0.1719
   82MOL    C2229344   4.222   6.523   5.556  0.0791  0.3907 -0.1876
   82MOL    C2329345   4.140   6.636   5.633  0.2032 -0.2813  0.4021
   82MOL    C2429346   4.219   6.713   5.744 -0.5196  0.4930 -0.5027
   82MOL    C2529347   4.164   6.852   5.782  0.5000  0.0637 -0.0712
   82MOL    C2629348   4.048   6.850   5.887 -0.3931 -0.4097  0.0913
   82MOL    O2729349   4.105   6.807   6.007 -0.7614 -0.2947 -0.6597
   82MOL    H2829350   4.182   6.515   5.455 -0.0832 -0.6785 -0.0407
   82MOL    H2929351   4.327   6.551   5.559  0.4013 -0.6170 -1.7589
   82MOL    H3029352   4.045   6.604   5.675  0.4096 -0.7523  0.5119
   82MOL    H3129353   4.112   6.716   5.564 -0.3160  1.0403  2.0848
   82MOL    H3229354   4.322   6.721   5.711 -1.3104  1.6142 -2.8093
   82MOL    H3329355   4.227   6.657   5.837  0.4870  0.6883 -0.4709
   82MOL    H3429356   4.122   6.894   5.689  1.6217 -0.2720 -0.7345
   82MOL    H3529357   4.236   6.922   5.824 -2.1000  1.7268  1.8039
   82MOL    H3629358   3.990   6.939   5.908  0.6319  0.2554  0.1703
   82MOL    H3729359   3.977   6.778   5.848 -1.9500  1.2586 -0.1934
   82MOL    C3829360   4.024   6.749   6.096  0.1597  0.6973 -0.1647
   82MOL    O3929361   3.900   6.760   6.093 -0.1657  0.0358 -0.4025
   82MOL    C4029362   4.101   6.688   6.212  0.2426  0.6355 -0.3110
   82MOL    C4129363   4.181   6.560   6.168 -0.1969  0.1332  0.0412
   82MOL    C4229364   4.096   6.446   6.117  0.4322 -0.1563 -0.2991
   82MOL    C4329365   4.182   6.321   6.082 -0.0067  0.4802 -0.4835
   82MOL    C4429366   4.111   6.205   6.008 -0.4632 -0.0759  0.7119
   82MOL    O4529367   4.194   6.097   5.962 -0.8178 -0.2117  0.5127
   82MOL    H4629368   4.028   6.664   6.290 -1.5752 -0.9563 -2.4162
   82MOL    H4729369   4.172   6.762   6.249 -0.9005  1.6253 -0.0683
   82MOL    H4829370   4.250   6.529   6.247 -1.8165  1.5547  2.0742
   82MOL    H4929371   4.236   6.595   6.081  0.8821 -1.3852  0.1034
   82MOL    H5029372   4.042   6.477   6.028  0.7243  0.7778 -0.1666
   82MOL    H5129373   4.023   6.417   6.193  1.5384  0.9994  1.2479
   82MOL    H5229374   4.219   6.278   6.175  3.1959  1.5967 -1.1800
   82MOL    H5329375   4.274   6.351   6.033 -1.1897  1.1727 -2.3317
   82MOL    H5429376   4.023   6.171   6.061 -0.9549 -0.7560 -0.5055
   82MOL    H5529377   4.073   6.249   5.916 -1.7372 -0.6553  0.9520
   82MOL    C5629378   4.140   6.011   5.861  0.5554 -0.5362  0.0659
   82MOL    O5729379   4.030   6.027   5.804  0.1754 -0.4683 -0.2122
   82MOL    C5829380   4.234   5.888   5.832 -0.3483 -0.0718 -0.3116
   82MOL    C5929381   4.177   5.757   5.875 -0.0276  1.0945  0.3524
   82MOL    C6029382   4.072   5.697   5.779 -0.0663  0.0295 -0.3377
   82MOL    C6129383   4.036   5.553   5.826 -0.1888  0.2335 -1.0906
   82MOL    C6229384   3.918   5.491   5.751 -0.1820 -0.0572  0.4309
   82MOL    O6329385   3.853   5.381   5.812 -0.0865  0.6032 -0.3566
   82MOL    H6429386   4.327   5.906   5.886 -0.7869  2.4026 -0.3424
   82MOL    H6529387   4.266   5.908   5.729  0.2010  2.4888  0.3326
   82MOL    H6629388   4.123   5.777   5.967 -0.6881 -0.7117  0.3825
   82MOL    H6729389   4.253   5.684   5.904 -2.1253 -0.9517  0.8927
   82MOL    H6829390   4.105   5.691   5.676  0.5012 -0.2004 -0.1395
   82MOL    H6929391   3.978   5.752   5.776  0.1341  0.5456  1.9545
   82MOL    H7029392   4.019   5.543   5.933 -1.3082 -2.4902 -1.4636
   82MOL    H7129393   4.116   5.480   5.810  1.2468  1.3897  0.7006
   82MOL    H7229394   3.844   5.572   5.753  1.9778  2.1442 -3.1899
   82MOL    H7329395   3.949   5.482   5.647 -1.5621  2.5566 -0.2474
   82MOL    C7429396   3.905   5.254   5.787 -0.1934 -0.1257  0.2431
   82MOL    O7529397   4.000   5.227   5.709  0.1465 -0.0888 -0.4496
   82MOL    C7629398   3.827   5.151   5.859  0.0763 -0.2182 -0.3442
   82MOL    C7729399   3.893   5.095   5.982  0.5167 -0.1170  0.3463
   82MOL    C7829400   3.917   5.208   6.087  0.0991 -0.2676  0.1254
   82MOL    C7929401   3.988   5.152   6.206  0.7872 -0.5232 -0.9939
   82MOL    C8029402   3.936   5.220   6.330  0.3712  0.3128  0.0745
   82MOL    O8129403   4.008   5.180   6.442 -0.4636 -0.1101  0.3040
   82MOL    H8229404   3.799   5.075   5.786 -2.4734 -0.2487  0.6290
   82MOL    H8329405   3.730   5.191   5.887 -0.1003 -0.8661 -0.0239
   82MOL    H8429406   3.989   5.045   5.966  1.7214  2.6260 -1.3190
   82MOL    H8529407   3.817   5.029   6.026  1.9203 -0.6676  2.0424
   82MOL    H8629408   3.818   5.247   6.111  0.1557  0.6117 -0.9943
   82MOL    H8729409   3.988   5.287   6.060  1.2025 -0.6904  1.7234
   82MOL    H8829410   4.095   5.174   6.208  0.8730 -0.9954 -0.0080
   82MOL    H8929411   3.973   5.045   6.219 -0.7109 -0.3289 -1.0754
   82MOL    H9029412   3.945   5.328   6.313 -4.0882  0.9884  1.3835
   82MOL    H9129413   3.828   5.204   6.333  0.2433 -0.0347 -3.4930
   82MOL    C9229414   3.967   5.089   6.530  0.8703 -0.2446 -0.2322
   82MOL    O9329415   3.847   5.049   6.535  0.1748 -0.8220  0.3477
   82MOL    C9429416   4.076   5.050   6.631  0.0697 -0.1189 -0.6588
   82MOL    C9529417   4.217   5.023   6.574 -1.1508  0.3535  0.8205
   82MOL    C9629418   4.293   5.151   6.543  0.2891 -0.5147 -0.0164
   82MOL    C9729419   4.446   5.134   6.544 -1.2719  0.2592 -0.5837
   82MOL    C9829420   4.515   5.268   6.501  0.1801  0.1376 -0.2997
   82MOL    O9929421   4.648   5.241   6.450 -0.2758  0.1700  0.5803
   82MOL   H10029422   4.048   4.968   6.697  1.2590  0.8337  1.0625
   82MOL   H10129423   4.088   5.144   6.685  1.6820 -0.2828 -0.7259
   82MOL   H10229424   4.216   4.978   6.475 -1.2058  0.7848  0.6206
   82MOL   H10329425   4.267   4.955   6.644 -0.3606 -2.5393 -2.4519
   82MOL   H10429426   4.266   5.231   6.612 -0.0764 -0.7312  0.0941
   82MOL   H10529427   4.270   5.188   6.444  1.6180  1.1708  0.2819
   82MOL   H10629428   4.486   5.060   6.475 -2.6887 -0.5979 -0.4954
   82MOL   H10729429   4.481   5.097   6.640  1.6137 -0.5503 -1.8746
   82MOL   H10829430   4.448   5.304   6.424 -0.2302  0.1333  0.0535
   82MOL   H10929431   4.508   5.334   6.588  1.5221  1.4000 -1.1314
   82MOL   C11029432   4.722   5.343   6.413 -0.4454 -0.5523  0.1193
   82MOL   O11129433   4.684   5.466   6.414 -0.1222 -0.0774 -0.3300
   82MOL   C11229434   4.862   5.317   6.358  0.1860  0.1688 -0.4437
   82MOL   C11329435   4.950   5.210   6.435 -0.7703 -0.0168  0.3136
   82MOL   C11429436   5.037   5.269   6.546 -0.2761 -0.2528  0.1814
   82MOL   C11529437   4.961   5.359   6.652 -0.1709  0.3276  0.2604
   82MOL   C11629438   5.039   5.387   6.777 -0.4634 -0.3812  0.2689
   82MOL   O11729439   5.145   5.475   6.755 -0.3894  0.1531 -0.1401
   82MOL   H11829440   4.930   5.402   6.352  0.4451 -0.0435 -0.5409
   82MOL   H11929441   4.839   5.284   6.256  1.3345  1.2121 -1.0620
   82MOL   H12029442   5.010   5.157   6.362 -0.6866  1.3227 -0.6071
   82MOL   H12129443   4.877   5.136   6.468 -0.7608 -0.4180 -0.5397
   82MOL   H12229444   5.117   5.332   6.506 -0.9977  0.3337 -0.3542
   82MOL   H12329445   5.091   5.184   6.587  2.1614  2.0658  1.9395
   82MOL   H12429446   4.870   5.300   6.664  0.5204 -0.4478  1.8379
   82MOL   H12529447   4.931   5.452   6.603 -0.1409 -0.1497 -0.6909
   82MOL   H12629448   4.970   5.417   6.855 -0.4767  0.3821 -0.0257
   82MOL   H12729449   5.083   5.291   6.802  1.4124  0.1496 -0.8459
   82MOL   C12829450   5.259   5.457   6.814 -0.1889  0.3393  0.2442
   82MOL   O12929451   5.270   5.382   6.911 -0.2541 -0.2637 -0.5110
   82MOL   C13029452   5.362   5.560   6.778 -0.0364 -1.1346 -0.2122
   82MOL   C13129453   5.397   5.577   6.631 -0.4928  0.3426  0.0486
   82MOL   C13229454   5.305   5.668   6.547  0.3701 -0.0353 -0.5270
   82MOL   C13329455   5.304   5.814   6.584  0.2104  0.2248 -0.2134
   82MOL   C13429456   5.208   5.896   6.501 -0.3578  0.1361 -0.0885
   82MOL   O13529457   5.253   6.033   6.491  0.0188  0.5434 -0.1998
   82MOL   H13629458   5.462   5.533   6.813  0.3339  0.8206  0.3032
   82MOL   H13729459   5.345   5.654   6.829  2.9761 -1.0576  0.7561
   82MOL   H13829460   5.409   5.483   6.576 -2.3093 -0.1736  0.4993
   82MOL   H13929461   5.495   5.623   6.620 -1.1251  2.3925  2.6385
   82MOL   H14029462   5.203   5.634   6.529 -0.7303  2.1594  1.2037
   82MOL   H14129463   5.348   5.671   6.447  1.9487 -1.7692  0.0637
   82MOL   H14229464   5.405   5.856   6.579 -0.4136  2.0933  1.9040
   82MOL   H14329465   5.291   5.813   6.693  1.5934  2.1809  0.0121
   82MOL   H14429466   5.192   5.846   6.406 -0.1325 -0.8066  0.3678
   82MOL   H14529467   5.108   5.886   6.543  1.0925  1.0671  3.7894
   82MOL   C14629468   5.185   6.133   6.547  0.7013 -0.6382 -0.3693
   82MOL   O14729469   5.100   6.113   6.638 -0.4244 -0.6543  0.7037
   82MOL   C14829470   5.216   6.270   6.485  0.1846 -0.1345  0.0353
   82MOL   C14929471   5.167   6.385   6.570  0.5991  0.4978  0.1519
   82MOL   C15029472   5.254   6.509   6.564  0.0879 -0.0048 -0.3225
   82MOL   C15129473   5.181   6.630   6.614 -0.5124 -0.3152  0.3243
   82MOL   C15229474   5.264   6.754   6.602 -0.2628 -0.7153 -0.2407
   82MOL   O15329475   5.202   6.860   6.677  0.0307 -0.2551  0.4162
   82MOL   H15429476   5.175   6.270   6.384  1.2502  2.0010 -0.4324
   82MOL   H15529477   5.324   6.283   6.479  0.2986 -1.0433  0.0744
   82MOL   H15629478   5.149   6.352   6.673 -0.3246 -1.9287 -0.7619
   82MOL   H15729479   5.073   6.411   6.522 -0.0935  1.2542  1.8714
   82MOL   H15829480   5.278   6.529   6.460  1.0274 -0.7681 -0.2608
   82MOL   H15929481   5.343   6.495   6.625 -1.4028 -1.5130  1.6164
   82MOL   H16029482   5.150   6.599   6.714 -1.1049 -0.9762 -0.0556
   82MOL   H16129483   5.088   6.640   6.559 -0.1940  0.1940 -0.1270
   82MOL   H16229484   5.358   6.729   6.653 -1.1066 -1.4497  0.9762
   82MOL   H16329485   5.280   6.786   6.499 -0.0783  2.7833  0.8051
   82MOL   C16429486   5.112   6.937   6.611 -0.3511  0.0343  0.0682
   82MOL   O16529487   5.091   6.938   6.489 -0.1340 -0.3755 -0.5845
   82MOL   C16629488   5.049   7.034   6.710  0.0081  0.2538  0.0385
   82MOL   C16729489   4.924   7.096   6.656 -0.1359 -0.0005 -0.1242
   82MOL   C16829490   4.818   6.999   6.586 -0.3362 -0.2260  0.7598
   82MOL   C16929491   4.674   7.055   6.599  0.1989  0.2693 -0.0227
   82MOL   C17029492   4.576   6.956   6.539 -0.5406  0.1726 -0.2711
   82MOL   O17129493   4.589   6.956   6.402  0.8854 -0.5550  0.0102
   82MOL   H17229494   5.120   7.116   6.722  0.7376 -0.3057 -0.3607
   82MOL   H17329495   5.036   6.981   6.804 -0.0646  0.5615  0.2003
   82MOL   H17429496   4.949   7.175   6.585 -2.0476  0.1373 -0.6800
   82MOL   H17529497   4.879   7.155   6.736 -0.8875  2.4559 -2.2802
   82MOL   H17629498   4.827   6.899   6.628  0.4622  0.0053  1.1630
   82MOL   H17729499   4.832   6.989   6.478  0.6842  1.2696  0.7299
   82MOL   H17829500   4.669   7.148   6.543 -0.0952 -0.0283 -0.4911
   82MOL   H17929501   4.650   7.075   6.703 -2.4361 -0.9102 -0.3790
   82MOL   H18029502   4.603   6.853   6.562  2.0991  1.1855  1.3744
   82MOL   H18129503   4.474   6.968   6.577 -0.1564 -1.9980  1.5336
   82MOL   C18229504   4.484   6.956   6.323 -0.8466  0.0628 -0.2676
   82MOL   O18329505   4.368   6.944   6.350  0.2557 -0.1005 -0.6387
   82MOL   C18429506   4.536   6.963   6.180  0.4734  0.0023 -0.3538
   82MOL   C18529507   4.424   7.003   6.084 -0.3713  0.3993  0.5808
   82MOL   C18629508   4.373   7.148   6.114 -0.5662  0.2052 -0.1197
   82MOL   C18729509   4.334   7.232   5.987  0.6695  0.3692 -0.2080
   82MOL   C18829510   4.204   7.303   6.020  0.3931  0.0927 -0.1728
   82MOL   O18929511   4.092   7.212   6.041 -0.4193 -0.2526  0.4681
   82MOL   H19029512   4.571   6.866   6.146 -0.7267 -0.5516 -0.0224
   82MOL   H19129513   4.604   7.047   6.171  0.3551  0.2868  1.1752
   82MOL   H19229514   4.338   6.935   6.084  0.2716 -0.4292 -0.1050
   82MOL   H19329515   4.463   6.987   5.983 -2.0647  0.2243 -0.0644
   82MOL   H19429516   4.445   7.207   6.170 -1.1540 -0.0902  0.9528
   82MOL   H19529517   4.300   7.156   6.194  0.6670  0.7565  0.9697
   82MOL   H19629518   4.326   7.173   5.896 -0.4260  0.6297 -0.2991
   82MOL   H19729519   4.411   7.309   5.975  0.0011  1.5844  2.8458
   82MOL   H19829520   4.213   7.346   6.120 -0.1174  1.1162 -0.5593
   82MOL   H19929521   4.184   7.372   5.938  0.5870 -0.0035 -0.2978
   82MOL   C20029522   3.984   7.248   6.112  0.3353 -0.1219 -0.4084
   82MOL   O20129523   3.965   7.364   6.151 -0.2980 -0.0515 -0.0160
   82MOL   C20229524   3.879   7.133   6.117  0.6776  0.0278  0.6501
   82MOL   C20329525   3.739   7.167   6.188 -1.1568  0.0165  0.1398
   82MOL   C20429526   3.648   7.051   6.164 -0.3905  0.0022 -0.0628
   82MOL   C20529527   3.503   7.084   6.212 -0.0613 -0.4309 -0.2991
   82MOL   C20629528   3.405   6.973   6.184  0.2613  0.3584  0.1031
   82MOL   O20729529   3.273   7.035   6.209 -0.2131 -0.4501 -0.2206
   82MOL   H20829530   3.927   7.053   6.172 -0.7401 -1.0683  0.3291
   82MOL   H20929531   3.851   7.111   6.014 -3.9760  2.0818  1.3411
   82MOL   H21029532   3.700   7.258   6.143 -0.8518  0.2497  0.3470
   82MOL   H21129533   3.759   7.187   6.293 -3.9727 -1.5090  1.0296
   82MOL   H21229534   3.681   6.962   6.219  0.9003 -0.3623 -1.3932
   82MOL   H21329535   3.631   7.034   6.058  1.0446  2.3922 -0.6937
   82MOL   H21429536   3.462   7.176   6.168  1.0844 -0.2874 -1.0771
   82MOL   H21529537   3.500   7.100   6.320  0.9305 -3.9280  0.2991
   82MOL   H21629538   3.401   6.951   6.077 -1.1913 -0.9007  0.4054
   82MOL   H21729539   3.424   6.881   6.238  1.9967 -0.8628 -2.5105
   82MOL   C21829540   3.209   7.023   6.330 -0.4279 -0.0089 -0.0596
   82MOL   O21929541   3.253   6.957   6.425  0.2246 -0.6785 -0.3664
   82MOL   C22029542   3.088   7.117   6.356 -0.4482  0.0394  0.1768
   82MOL   C22129543   2.970   7.065   6.275 -0.1265 -0.0249 -0.4012
   82MOL   C22229544   2.843   7.148   6.301  0.0328 -0.4890  0.0340
   82MOL   C22329545   2.782   7.138   6.440  0.1041  0.2685 -0.6329
   82MOL   C22429546   2.765   6.999   6.501  0.0060  0.0016 -0.4910
   82MOL   O22529547   2.735   7.002   6.641  0.3866 -0.3565 -0.1661
   82MOL   H22629548   3.129   7.213   6.325 -0.2685 -0.2230 -0.4128
   82MOL   H22729549   3.056   7.118   6.460 -0.7770  1.4588  0.0636
   82MOL   H22829550   2.956   6.959   6.299 -0.9448  0.3331  0.7052
   82MOL   H22929551   2.992   7.078   6.169 -0.1628 -1.5773 -0.6126
   82MOL   H23029552   2.768   7.130   6.224 -1.2905 -2.1166  1.6773
   82MOL   H23129553   2.875   7.252   6.285  0.2227 -0.7470 -1.3084
   82MOL   H23229554   2.693   7.199   6.448  0.7422  0.8348  3.7259
   82MOL   H23329555   2.857   7.189   6.501 -2.7360  1.5300  1.9062
   82MOL   H23429556   2.697   6.935   6.445  0.1072 -0.2490 -0.3282
   82MOL   H23529557   2.861   6.949   6.487  0.3092  0.4083  0.1265
   82MOL   C23629558   2.745   6.890   6.720 -0.0848  0.1387 -0.0721
   82MOL   O23729559   2.771   6.778   6.679  0.2001 -0.7998 -0.2573
   82MOL   C23829560   2.726   6.927   6.865  0.2467 -0.3143  0.4365
   82MOL   C23929561   2.782   6.822   6.958  1.2406 -0.0593 -0.0005
   82MOL   C24029562   2.933   6.804   6.952 -0.7368  0.3211 -0.4368
   82MOL   C24129563   3.008   6.737   7.068 -0.4446  0.0215 -0.5954
   82MOL   C24229564   3.157   6.727   7.043 -0.2438  0.0012  0.2222
   82MOL   O24329565   3.212   6.697   7.173  0.8116  0.2642 -0.0865
   82MOL   H24429566   2.617   6.930   6.876 -0.1773 -3.5725 -2.0202
   82MOL   H24529567   2.765   7.026   6.887 -1.3594 -0.0126  1.9734
   82MOL   H24629568   2.747   6.720   6.938  0.6871  0.0578  0.3452
   82MOL   H24729569   2.746   6.835   7.060 -1.9871 -0.6018 -1.0168
   82MOL   H24829570   2.977   6.903   6.948 -2.2298  0.9844 -0.6496
   82MOL   H24929571   2.967   6.783   6.851 -1.5594 -1.2739 -0.4048
   82MOL   H25029572   2.977   6.633   7.082  1.3975 -0.0731  3.5539
   82MOL   H25129573   2.989   6.802   7.153 -3.3231 -4.3128  2.3084
   82MOL   H25229574   3.180   6.649   6.971  0.5701  0.9937 -0.6101
   82MOL   H25329575   3.205   6.815   6.999 -1.2892  0.5076  0.0942
   82MOL   C25429576   3.346   6.678   7.183 -0.1959  0.5817 -0.0339
   82MOL   O25529577   3.423   6.683   7.086 -0.7066  0.1591  0.0610
   82MOL   C25629578   3.393   6.646   7.327 -0.6190  0.1243 -0.2412
   82MOL   C25729579   3.544   6.610   7.348 -0.6929 -0.0707  0.6269
   82MOL   C25829580   3.572   6.461   7.360 -0.0297  0.1008  0.3098
   82MOL   C25929581   3.502   6.391   7.483 -0.7188  0.6487 -0.1214
   82MOL   C26029582   3.513   6.241   7.483 -0.6918  0.5254  0.1149
   82MOL   O26129583   3.649   6.205   7.483  0.5942 -0.0289 -0.1066
   82MOL   H26229584   3.338   6.564   7.373 -0.0962  0.2433  0.6087
   82MOL   H26329585   3.379   6.741   7.379 -2.2125  0.2257 -0.8492
   82MOL   H26429586   3.576   6.651   7.444  1.3782 -0.1925  0.0144
   82MOL   H26529587   3.605   6.665   7.276  0.2957 -1.2492  0.5530
   82MOL   H26629588   3.679   6.440   7.363  0.4847  2.4355 -0.4391
   82MOL   H26729589   3.533   6.401   7.277  2.3681 -2.2180  0.7888
   82MOL   H26829590   3.399   6.416   7.510 -1.3822 -0.9590 -1.0414
   82MOL   H26929591   3.551   6.444   7.564 -3.5439  3.0730  0.0786
   82MOL   H27029592   3.469   6.193   7.570  1.9647  0.1261  1.2805
   82MOL   H27129593   3.465   6.202   7.392  0.6482 -0.6709 -0.0926
   82MOL   C27229594   3.726   6.170   7.591  0.1349  0.6199  0.2412
   82MOL   O27329595   3.682   6.146   7.708  0.2676  0.2688 -0.0745
   82MOL   C27429596   3.873   6.168   7.558  0.0646 -0.0300 -0.1267
   82MOL   C27529597   3.935   6.293   7.496  0.9367  0.0495  0.8184
   82MOL   C27629598   3.978   6.406   7.587 -1.4948 -0.7296  0.7701
   82MOL   C27729599   3.854   6.471   7.638 -0.1108 -1.1346 -0.1429
   82MOL   C27829600   3.875   6.599   7.708  0.2587 -0.1522  0.2674
   82MOL   O27929601   3.760   6.670   7.739  0.4271  0.0419  0.1086
   82MOL   H28029602   3.879   6.094   7.478 -0.7713 -0.6082  0.3441
   82MOL   H28129603   3.940   6.138   7.639  0.7733  1.6117 -0.0787
   82MOL   H28229604   3.872   6.323   7.412 -0.4851 -1.9786  1.1123
   82MOL   H28329605   4.026   6.255   7.447  0.5268 -1.9469  1.5673
   82MOL   H28429606   4.053   6.473   7.545 -2.4567 -0.3803 -0.4363
   82MOL   H28529607   4.031   6.375   7.677  0.4451  0.4942  0.0888
   82MOL   H28629608   3.796   6.402   7.700 -0.5603  0.2369  0.9796
   82MOL   H28729609   3.795   6.474   7.547 -1.6006  0.4855  0.8675
   82MOL   H28829610   3.922   6.570   7.802 -0.2281 -1.0336  0.2400
   82MOL   H28929611   3.941   6.668   7.656 -0.5337 -0.7598 -1.5776
   82MOL   C29029612   3.689   6.637   0.001 -0.0685 -0.4887  0.0102
   82MOL   O29129613   3.723   6.558   0.085 -0.6620  0.0545 -0.1688
   82MOL   C29229614   3.554   6.710   0.019 -0.1426  0.2546  1.2750
   82MOL   C29329615   3.554   6.820   0.132  0.3784 -0.6342  0.4209
   82MOL   C29429616   3.590   6.771   0.275 -0.3620  0.0812 -0.6423
   82MOL   C29529617   3.549   6.878   0.377 -0.2779  0.6508 -0.0721
   82MOL   C29629618   3.607   6.865   0.523  0.2015  0.7626  0.8236
   82MOL   O29729619   3.738   6.917   0.518 -0.1782 -0.2318 -0.2327
   82MOL   H29829620   3.469   6.646   0.042 -1.3762  2.5794  3.4535
   82MOL   H29929621   3.531   6.766   7.773  1.7155 -1.9401 -0.6193
   82MOL   H30029622   3.454   6.863   0.126 -0.0016 -1.3337  1.5734
   82MOL   H30129623   3.613   6.905   0.100 -3.1018  1.2320 -1.3968
   82MOL   H30229624   3.693   6.738   0.288 -1.3856 -3.7762 -1.6151
   82MOL   H30329625   3.538   6.676   0.288 -1.4108  0.6756 -0.3451
   82MOL   H30429626   3.444   6.876   0.403  0.0567 -2.2700  1.2763
   82MOL   H30529627   3.569   6.981   0.345  0.4441  0.5398  0.0059
   82MOL   H30629628   3.546   6.935   0.580  0.2289  4.2003 -3.0679
   82MOL   H30729629   3.590   6.765   0.562  1.8892  0.5105  0.9634
   82MOL   C30829630   3.793   6.977   0.627  0.3639 -0.0911  0.0628
   82MOL   O30929631   3.746   6.974   0.738 -0.6769 -0.3013 -0.4506
   82MOL   C31029632   3.927   7.031   0.597  0.3454 -0.5551  0.6353
   82MOL   C31129633   3.940   7.142   0.492  0.6470 -0.1568  0.0234
   82MOL   C31229634   4.087   7.183   0.450 -0.0297  0.6397  0.8184
   82MOL   C31329635   4.081   7.304   0.353 -0.2539 -0.0917 -0.0128
   82MOL   C31429636   4.213   7.364   0.323  0.0433 -0.7558  0.5119
   82MOL   O31529637   4.193   7.469   0.223 -0.0407 -0.5866  0.3696
   82MOL   H31629638   4.006   6.957   0.586  1.4060  0.5156  0.9901
   82MOL   H31729639   3.958   7.081   0.688 -1.5483  1.3879  0.2460
   82MOL   H31829640   3.881   7.232   0.510  1.0217  0.5393 -2.0460
   82MOL   H31929641   3.878   7.105   0.411 -1.1895 -0.7478  1.6684
   82MOL   H32029642   4.131   7.089   0.416 -1.0886  0.3023  0.3461
   82MOL   H32129643   4.140   7.222   0.537 -0.8443 -0.8230  2.0001
   82MOL   H32229644   4.016   7.383   0.391 -0.8852 -0.7114  0.1921
   82MOL   H32329645   4.037   7.270   0.260  1.2049  0.6123 -0.9804
   82MOL   H32429646   4.253   7.406   0.416 -2.5256  1.4994  0.6466
   82MOL   H32529647   4.278   7.286   0.283  0.0396  0.0372 -1.0982
   82MOL   C32629648   4.310   7.538   0.183 -0.3084  0.2448 -0.8340
   82MOL   O32729649   4.421   7.509   0.224  0.8162 -0.0928 -0.2639
   82MOL   C32829650   4.289   7.646   0.076 -0.1227 -0.0174 -0.4482
   82MOL   C32929651   4.289   7.797   0.122 -0.1743  0.3089 -0.0395
   82MOL   C33029652   4.163   0.009   0.191  0.0798  0.3897  0.3998
   82MOL   C33129653   4.171   0.145   0.269 -0.2867  0.0893 -0.1463
   82MOL   C33229654   4.271   0.138   0.381  0.5309 -0.2112 -0.6679
   82MOL   O33329655   4.282   0.265   0.443 -0.2353 -0.4089  0.4133
   82MOL   H33429656   4.199   7.627   0.018  0.4092 -1.0433 -0.9563
   82MOL   H33529657   4.371   7.635   0.005  1.0119  0.8923  0.6966
   82MOL   H33629658   4.319   0.016   0.038 -1.8219  1.1724  0.0015
   82MOL   H33729659   4.374   7.806   0.190  0.1877  0.4029 -0.5036
   82MOL   H33829660   4.145   7.771   0.259  0.5056  0.9048  1.1435
   82MOL   H33929661   4.078   0.002   0.123  1.3187 -1.9722 -0.9893
   82MOL   H34029662   4.070   0.164   0.304 -0.0705 -0.5075  0.8279
   82MOL   H34129663   4.202   0.230   0.209 -1.0393 -1.4983 -2.8423
   82MOL   H34229664   4.231   0.059   0.445  0.5891  0.2179 -0.0947
   82MOL   H34329665   4.374   0.111   0.357  0.1910 -1.5137 -0.6999
   82MOL   C34429666   4.256   0.283   0.571 -0.3841  0.0466 -0.3035
   82MOL   O34529667   4.223   0.190   0.641 -0.2279  0.3868  0.5684
   82MOL   C34629668   4.276   0.421   0.631 -0.2275 -0.0906  0.1324
   82MOL   C34729669   4.416   0.449   0.700 -0.2215 -0.1140 -0.7032
   82MOL   C34829670   4.544   0.445   0.619  0.6013  0.6797 -0.0055
   82MOL   C34929671   4.679   0.446   0.695 -0.2995 -0.6817  0.2569
   82MOL   C35029672   4.801   0.452   0.602 -0.3055 -0.6249 -0.1125
   82MOL   O35129673   4.823   0.585   0.574  0.5076 -0.2456 -0.2187
   82MOL   H35229674   4.193   0.450   0.696  0.1290 -2.1230  1.5355
   82MOL   H35329675   4.281   0.497   0.553  1.4225  0.5357  0.8035
   82MOL   H35429676   4.433   0.368   0.772 -1.1418 -1.7155 -2.2547
   82MOL   H35529677   4.417   0.538   0.763  0.3214 -0.2287 -0.5463
   82MOL   H35629678   4.543   0.529   0.549 -0.0611 -0.7001 -1.7007
   82MOL   H35729679   4.550   0.351   0.565  2.4486 -0.0214  1.3644
   82MOL   H35829680   4.683   0.357   0.758  0.4852 -1.2900 -0.6469
   82MOL   H35929681   4.682   0.535   0.759 -2.8262 -0.2620 -0.1280
   82MOL   H36029682   4.889   0.415   0.654  0.1631  1.0446  0.3215
   82MOL   H36129683   4.799   0.388   0.514  0.5502  0.2417 -0.7736
   82MOL   H36229684   4.759   0.617   0.512  1.3424  3.1566  0.5471
   83MOL     C129685   7.071   0.723   6.623 -0.0141 -0.2151 -0.0147
   83MOL     O229686   7.121   0.814   6.692 -0.4573  0.0519 -0.1073
   83MOL     C329687   7.046   0.589   6.686  0.5469 -0.1301 -0.5395
   83MOL     C429688   6.903   0.564   6.728  0.3364 -0.3201  0.5062
   83MOL     C529689   6.819   0.497   6.616  0.0467 -0.5874  0.4544
   83MOL     C629690   6.835   0.347   6.605 -1.0097  0.1172  0.2636
   83MOL     C729691   6.729   0.281   6.515  0.8094  0.1364 -0.3724
   83MOL     O829692   6.722   0.351   6.391 -0.2820  0.3475 -0.0017
   83MOL     H929693   7.097   0.603   6.782 -0.7498 -0.3705  0.1888
   83MOL    H1029694   7.087   0.497   6.644 -0.7485  0.3447 -2.8882
   83MOL    H1129695   6.853   0.654   6.765  0.0394  1.2892 -3.5362
   83MOL    H1229696   6.904   0.486   6.804  1.5505 -0.9191 -0.1267
   83MOL    H1329697   6.840   0.560   6.529  0.2308 -0.7206  0.4035
   83MOL    H1429698   6.712   0.509   6.633 -0.4927 -1.5673 -2.0269
   83MOL    H1529699   6.828   0.292   6.699  0.3633 -0.5003  0.0123
   83MOL    H1629700   6.935   0.325   6.568 -1.6903 -0.5943 -1.2141
   83MOL    H1729701   6.772   0.183   6.492  0.3497  0.3395 -2.1862
   83MOL    H1829702   6.629   0.264   6.555  1.3541 -2.6187 -0.0966
   83MOL    H1929703   7.036   0.747   6.522 -1.2740  1.3427  0.7619
   83MOL    C2029704   6.640   0.305   6.295 -0.4624  0.2295 -0.3740
   83MOL    O2129705   6.551   0.221   6.315 -0.5473 -0.1938  0.1611
   83MOL    C2229706   6.645   0.389   6.170 -0.2703 -0.0221  0.1351
   83MOL    C2329707   6.559   0.330   6.044 -0.0416 -0.2450  0.2087
   83MOL    C2429708   6.548   0.437   5.933  0.2692 -0.1348 -0.1478
   83MOL    C2529709   6.494   0.371   5.799  0.3628 -0.0094 -0.6743
   83MOL    C2629710   6.529   0.450   5.668  0.3883  0.6236 -0.3060
   83MOL    O2729711   6.484   0.373   5.560 -0.1991 -0.0203  0.3953
   83MOL    H2829712   6.749   0.397   6.138 -0.9469  0.0434 -2.0735
   83MOL    H2929713   6.612   0.492   6.183 -1.5832 -0.3213 -0.7285
   83MOL    H3029714   6.466   0.282   6.072 -0.5178  1.4432  1.5894
   83MOL    H3129715   6.615   0.247   6.001 -0.6411 -0.8660  0.6297
   83MOL    H3229716   6.644   0.486   5.916 -0.4752  1.2879 -0.3081
   83MOL    H3329717   6.482   0.517   5.968 -1.1086 -1.1421 -0.4091
   83MOL    H3429718   6.387   0.355   5.796  0.0235  2.2849 -1.8355
   83MOL    H3529719   6.541   0.273   5.795 -0.3187 -0.4310  1.0750
   83MOL    H3629720   6.480   0.547   5.680 -0.8865  0.0161 -0.6078
   83MOL    H3729721   6.635   0.475   5.672  1.0098 -1.8286 -0.6440
   83MOL    C3829722   6.470   0.434   5.433  0.4562  0.2024  0.0832
   83MOL    O3929723   6.491   0.554   5.406  0.3120  0.1032  0.5758
   83MOL    C4029724   6.392   0.349   5.334 -0.2151  0.0825  0.1059
   83MOL    C4129725   6.241   0.351   5.363 -0.3560  0.0994 -0.2193
   83MOL    C4229726   6.185   0.258   5.467  0.1421  0.0709  0.1901
   83MOL    C4329727   6.032   0.268   5.495  0.3041 -0.0357 -0.4062
   83MOL    C4429728   5.974   0.199   5.613 -0.6399  0.0906 -0.7853
   83MOL    O4529729   6.059   0.241   5.723  0.2437 -0.7750  0.4069
   83MOL    H4629730   6.435   0.249   5.342  1.7060  0.9831  1.4356
   83MOL    H4729731   6.413   0.396   5.238 -1.8387  1.1559  0.2627
   83MOL    H4829732   6.188   0.309   5.278  0.4037 -1.0185 -0.1502
   83MOL    H4929733   6.217   0.455   5.386 -0.8792  0.4186 -2.1450
   83MOL    H5029734   6.236   0.283   5.560 -0.3031 -1.1355  0.7743
   83MOL    H5129735   6.223   0.161   5.437 -1.9608 -0.7312 -0.0177
   83MOL    H5229736   5.983   0.230   5.405 -1.3675  0.4774  0.2665
   83MOL    H5329737   6.007   0.373   5.514 -3.5945 -1.4224  2.6350
   83MOL    H5429738   5.867   0.222   5.617 -0.8611 -1.0248 -0.2867
   83MOL    H5529739   5.988   0.093   5.592 -2.7367 -0.3276 -0.2159
   83MOL    C5629740   6.030   0.190   5.849 -0.1180 -0.2725  0.2448
   83MOL    O5729741   5.935   0.117   5.883  0.1251 -0.1465 -0.1875
   83MOL    C5829742   6.126   0.253   5.948  0.0787  0.1721  0.4047
   83MOL    C5929743   6.076   0.268   6.095  0.6240 -0.5235 -0.2126
   83MOL    C6029744   5.955   0.351   6.116  0.8955 -0.0272  0.5694
   83MOL    C6129745   5.897   0.379   6.252 -0.4955  0.2909 -0.0209
   83MOL    C6229746   5.806   0.500   6.262  0.2644  0.0951 -0.5053
   83MOL    O6329747   5.687   0.460   6.188 -0.5118 -0.1914 -0.1038
   83MOL    H6429748   6.147   0.358   5.931  1.2114 -0.5382 -3.0208
   83MOL    H6529749   6.213   0.187   5.937 -0.3952 -0.4538  0.3892
   83MOL    H6629750   6.154   0.299   6.165 -0.8813  0.0013  1.2409
   83MOL    H6729751   6.059   0.168   6.136 -0.4769 -1.1670 -2.1736
   83MOL    H6829752   5.874   0.307   6.059 -0.5829 -0.0824  2.6615
   83MOL    H6929753   5.982   0.447   6.071 -1.4019 -0.9541 -2.9950
   83MOL    H7029754   5.980   0.385   6.322 -1.7739  1.5904  1.4336
   83MOL    H7129755   5.844   0.290   6.285  0.0857 -1.0895 -2.6595
   83MOL    H7229756   5.793   0.519   6.369  1.0302 -1.5314 -0.1093
   83MOL    H7329757   5.849   0.596   6.234 -0.6686  1.5898  2.9184
   83MOL    C7429758   5.569   0.456   6.251 -0.4943  0.6907  0.0372
   83MOL    O7529759   5.534   0.514   6.353 -0.1253 -0.3771 -0.3933
   83MOL    C7629760   5.462   0.370   6.176 -0.2274  0.1106 -0.7861
   83MOL    C7729761   5.326   0.444   6.149 -0.9838  0.2719  1.1734
   83MOL    C7829762   5.346   0.549   6.036 -0.2217  0.3255 -0.3183
   83MOL    C7929763   5.217   0.628   6.018  0.0659 -0.1451  0.1371
   83MOL    C8029764   5.210   0.699   5.877 -0.4795  0.8678 -0.4665
   83MOL    O8129765   5.311   0.804   5.872  0.4081 -0.2892 -0.1371
   83MOL    H8229766   5.440   0.286   6.242  1.6322 -0.1339 -0.4389
   83MOL    H8329767   5.501   0.323   6.086 -3.2536 -2.0560 -1.0284
   83MOL    H8429768   5.299   0.493   6.243  0.7563 -0.5083  2.0970
   83MOL    H8529769   5.255   0.368   6.116 -1.6775  1.1489  0.5894
   83MOL    H8629770   5.364   0.498   5.942  0.3668 -0.9069  0.4568
   83MOL    H8729771   5.433   0.613   6.049  0.3328 -0.8415  2.1467
   83MOL    H8829772   5.194   0.710   6.087 -1.9580 -0.2686 -0.3480
   83MOL    H8929773   5.138   0.558   6.045 -0.4409  0.1093 -0.6545
   83MOL    H9029774   5.218   0.619   5.804 -1.2650  1.6614 -1.4362
   83MOL    H9129775   5.114   0.751   5.882 -0.8596  0.0400  1.5763
   83MOL    C9229776   5.292   0.911   5.798 -1.2029  0.1085 -0.1468
   83MOL    O9329777   5.188   0.942   5.739 -0.2926 -0.0696 -0.5224
   83MOL    C9429778   5.418   1.002   5.804  0.4056 -0.6237 -0.0811
   83MOL    C9529779   5.556   0.949   5.759  0.4265  0.0137 -0.1090
   83MOL    C9629780   5.581   0.955   5.609 -0.2657  0.4636  0.3109
   83MOL    C9729781   5.496   0.844   5.541  0.1473 -0.7180 -0.0663
   83MOL    C9829782   5.543   0.828   5.400 -0.4250 -0.0463  0.3976
   83MOL    O9929783   5.541   0.952   5.326  0.2342 -0.3186  0.2659
   83MOL   H10029784   5.419   1.040   5.906  0.8509  0.5110 -0.5025
   83MOL   H10129785   5.414   1.098   5.752  0.5692 -1.4003 -1.5334
   83MOL   H10229786   5.567   0.847   5.797  1.2560  0.2386  0.2817
   83MOL   H10329787   5.627   1.021   5.799 -0.0764 -0.8802  2.5089
   83MOL   H10429788   5.688   0.963   5.589 -0.1270  1.0872  1.2585
   83MOL   H10529789   5.535   1.051   5.584 -0.9663  0.1184  0.2721
   83MOL   H10629790   5.394   0.883   5.540  0.2268 -0.4693  1.0179
   83MOL   H10729791   5.512   0.750   5.594  0.4956 -0.8781 -0.4512
   83MOL   H10829792   5.647   0.799   5.389 -0.6381 -0.1173 -1.6115
   83MOL   H10929793   5.474   0.761   5.348 -1.0341  1.1156 -0.3337
   83MOL   C11029794   5.599   0.960   5.208 -0.1425  0.6088 -0.3972
   83MOL   O11129795   5.642   0.867   5.144  0.0525  0.1188  0.2243
   83MOL   C11229796   5.616   1.109   5.175 -0.3617 -0.5715 -0.8434
   83MOL   C11329797   5.504   1.164   5.092  0.2394  0.2197 -0.3369
   83MOL   C11429798   5.504   1.139   4.940 -0.1650 -0.3382 -0.0569
   83MOL   C11529799   5.387   1.214   4.863  0.0585 -1.1175  0.8153
   83MOL   C11629800   5.375   1.365   4.874 -0.0650 -0.2021 -0.1324
   83MOL   O11729801   5.259   1.407   4.809  0.6001  0.3441  0.3157
   83MOL   H11829802   5.711   1.118   5.122  1.0633 -0.3307  1.6508
   83MOL   H11929803   5.636   1.173   5.261  0.5293 -2.8623  0.6916
   83MOL   H12029804   5.526   1.270   5.106  2.9314 -0.5606  1.4805
   83MOL   H12129805   5.412   1.135   5.143 -0.9575  3.3165 -0.6094
   83MOL   H12229806   5.514   1.037   4.903 -4.1988 -0.6335 -0.4693
   83MOL   H12329807   5.597   1.192   4.918 -0.8836  0.1329 -2.0292
   83MOL   H12429808   5.298   1.158   4.892 -0.2171 -1.7252 -1.1485
   83MOL   H12529809   5.404   1.199   4.756 -0.2791 -0.5553  0.6767
   83MOL   H12629810   5.360   1.393   4.979  1.4032 -2.1499  0.6418
   83MOL   H12729811   5.464   1.418   4.841  0.5074 -0.7943  0.4376
   83MOL   C12829812   5.230   1.540   4.811 -0.0103  0.1855  0.5363
   83MOL   O12929813   5.295   1.630   4.856  0.0095 -0.5710  0.0576
   83MOL   C13029814   5.093   1.570   4.752 -0.0362 -0.2543  0.6309
   83MOL   C13129815   5.001   1.648   4.841 -0.6674  0.3438 -0.3911
   83MOL   C13229816   4.932   1.571   4.948 -0.1691  0.1302 -0.3199
   83MOL   C13329817   4.855   1.666   5.038  0.0196 -0.8416 -0.1274
   83MOL   C13429818   4.796   1.596   5.160 -0.1226 -0.0131 -0.2106
   83MOL   O13529819   4.695   1.674   5.226  0.0931 -0.1111 -0.4267
   83MOL   H13629820   5.036   1.480   4.731 -2.3848  1.6782 -1.4812
   83MOL   H13729821   5.116   1.624   4.661 -0.3355  0.4294  0.9544
   83MOL   H13829822   4.937   1.710   4.779  1.0861  2.4915 -0.0778
   83MOL   H13929823   5.068   1.715   4.894 -3.2618  1.0041  2.1763
   83MOL   H14029824   5.007   1.525   5.013 -0.2572  0.4143 -0.0150
   83MOL   H14129825   4.871   1.485   4.920  0.7029 -0.7042  0.2948
   83MOL   H14229826   4.772   1.710   4.983 -1.5618 -1.1981  1.9315
   83MOL   H14329827   4.919   1.752   5.060  3.6680 -2.8493 -2.4446
   83MOL   H14429828   4.762   1.495   5.142  2.6574 -0.6176 -2.3647
   83MOL   H14529829   4.882   1.582   5.226  0.2664 -1.8493 -1.0824
   83MOL   C14629830   4.663   1.645   5.350  0.4879 -0.4271  0.3715
   83MOL   O14729831   4.719   1.570   5.426  0.0352  0.1782 -0.1560
   83MOL   C14829832   4.528   1.706   5.395 -0.4170  0.9312 -0.6433
   83MOL   C14929833   4.465   1.644   5.522 -0.4776  0.2717  0.1634
   83MOL   C15029834   4.335   1.713   5.577  0.2922  0.8135  0.3485
   83MOL   C15129835   4.232   1.770   5.468  0.6281  0.1692  0.2225
   83MOL   C15229836   4.089   1.794   5.526 -0.5854 -0.2172  0.3268
   83MOL   O15329837   3.998   1.867   5.438  0.3153 -0.5023  0.2349
   83MOL   H15429838   4.465   1.695   5.307  1.8509  0.4870 -2.2635
   83MOL   H15529839   4.546   1.812   5.415  3.5279 -0.1724  2.3336
   83MOL   H15629840   4.535   1.643   5.606  0.9202 -0.8832 -1.0041
   83MOL   H15729841   4.441   1.541   5.495 -1.1883  0.3957  0.3041
   83MOL   H15829842   4.364   1.790   5.648 -0.4912  0.9813  0.4891
   83MOL   H15929843   4.273   1.643   5.635  0.5862  0.8951  0.7597
   83MOL   H16029844   4.221   1.701   5.384 -0.9835 -0.2640  0.7635
   83MOL   H16129845   4.266   1.865   5.426 -0.0487 -0.6726 -2.2805
   83MOL   H16229846   4.033   1.705   5.552 -1.0622  0.5493  1.9509
   83MOL   H16329847   4.105   1.841   5.623 -0.0866 -1.2513  0.7551
   83MOL   C16429848   3.914   1.954   5.495  0.2747 -0.1551  0.2165
   83MOL   O16529849   3.900   1.982   5.612 -0.3456 -0.0689 -0.0624
   83MOL   C16629850   3.811   2.017   5.394 -0.4954 -0.1443  0.5097
   83MOL   C16729851   3.729   1.916   5.318  0.3715  0.0843  0.2831
   83MOL   C16829852   3.582   1.926   5.353 -0.3411  0.2914  0.6438
   83MOL   C16929853   3.483   1.837   5.282  0.4859  0.4989  0.4821
   83MOL   C17029854   3.514   1.685   5.274 -0.7920  0.3820  0.6435
   83MOL   O17129855   3.462   1.612   5.379  0.0745  0.6453  0.4087
   83MOL   H17229856   3.870   2.085   5.333 -0.0325 -2.2287 -1.4343
   83MOL   H17329857   3.750   2.087   5.451  1.1254  0.5559  1.3793
   83MOL   H17429858   3.775   1.817   5.311  0.6161  0.2770 -1.1206
   83MOL   H17529859   3.739   1.968   5.223  2.1663 -1.4736 -0.4133
   83MOL   H17629860   3.541   2.026   5.340  1.0672  1.0067  1.6382
   83MOL   H17729861   3.578   1.903   5.460  2.9531 -1.0447  0.5524
   83MOL   H17829862   3.496   1.884   5.185  0.2313 -1.4957 -0.5429
   83MOL   H17929863   3.381   1.849   5.318  1.3243  2.0044  2.4786
   83MOL   H18029864   3.486   1.656   5.173  2.5000 -1.7090  0.2467
   83MOL   H18129865   3.621   1.665   5.273 -0.7700  0.4062 -1.6802
   83MOL   C18229866   3.353   1.533   5.354 -0.0161  0.4803  0.3502
   83MOL   O18329867   3.293   1.535   5.244  0.0011  0.2932 -0.1520
   83MOL   C18429868   3.298   1.450   5.469 -0.7053 -0.7431 -0.4155
   83MOL   C18529869   3.225   1.539   5.571  0.9934 -0.1993 -0.2106
   83MOL   C18629870   3.154   1.451   5.676  0.1030  0.0769  0.2356
   83MOL   C18729871   3.046   1.522   5.768 -0.0707 -0.0097  0.1342
   83MOL   C18829872   2.962   1.422   5.856 -0.4382  0.2255  0.3178
   83MOL   O18929873   2.902   1.311   5.781  0.5893 -0.6872  0.2692
   83MOL   H19029874   3.381   1.404   5.522  0.4278 -1.1370 -2.4751
   83MOL   H19129875   3.231   1.373   5.430 -0.5767 -1.4644  0.7490
   83MOL   H19229876   3.147   1.589   5.513  0.9828  0.8876  0.7194
   83MOL   H19329877   3.293   1.615   5.610 -1.1172  0.9060  1.4361
   83MOL   H19429878   3.230   1.431   5.752 -0.6084  1.7724  1.4196
   83MOL   H19529879   3.115   1.361   5.630 -0.2091  1.4374 -2.2780
   83MOL   H19629880   2.982   1.583   5.705 -1.0362 -1.6729 -0.5097
   83MOL   H19729881   3.100   1.592   5.833  0.1840 -1.4752  1.5162
   83MOL   H19829882   3.028   1.381   5.932 -1.4138  2.3830  2.3912
   83MOL   H19929883   2.894   1.473   5.924  1.3455 -0.9656  3.0704
   83MOL   C20029884   2.894   1.187   5.827  0.1250 -0.2806  0.7126
   83MOL   O20129885   2.941   1.153   5.934  0.7411 -0.3051  0.3310
   83MOL   C20229886   2.837   1.092   5.727 -0.8705  0.2360 -0.8229
   83MOL   C20329887   2.724   1.006   5.783 -0.1961  0.9340 -0.1053
   83MOL   C20429888   2.588   1.067   5.822  0.7214  0.0038  0.4429
   83MOL   C20529889   2.478   0.978   5.880 -0.4443 -0.9922  0.6158
   83MOL   C20629890   2.407   0.890   5.784  0.4820 -0.3047 -0.4702
   83MOL   O20729891   2.487   0.794   5.726 -0.3029 -0.1141  0.6174
   83MOL   H20829892   2.913   1.023   5.689 -0.1161  0.3226  0.4992
   83MOL   H20929893   2.804   1.148   5.639  0.3007  0.8231 -0.9001
   83MOL   H21029894   2.754   0.950   5.871 -0.4178  1.2733  0.1882
   83MOL   H21129895   2.719   0.927   5.708 -0.7133 -0.4754  1.3840
   83MOL   H21229896   2.538   1.131   5.750  0.1903  1.5475  2.1428
   83MOL   H21329897   2.620   1.139   5.898  1.4199 -0.9434  1.0637
   83MOL   H21429898   2.401   1.034   5.933  0.9595  3.0012 -1.3911
   83MOL   H21529899   2.525   0.919   5.959 -0.3195  1.9321  2.8130
   83MOL   H21629900   2.322   0.845   5.835 -0.0677  1.0385 -0.1566
   83MOL   H21729901   2.370   0.954   5.703 -1.1310 -1.1930 -0.4635
   83MOL   C21829902   2.492   0.671   5.778 -0.5420  0.3619  0.8501
   83MOL   O21929903   2.423   0.620   5.867 -0.0618  0.3242 -0.6591
   83MOL   C22029904   2.601   0.592   5.716  0.2654  0.5795 -0.1185
   83MOL   C22129905   2.695   0.535   5.818  0.1581  1.0072  0.5754
   83MOL   C22229906   2.789   0.639   5.881 -0.2245 -0.3880  0.2473
   83MOL   C22329907   2.900   0.576   5.961 -0.0074 -0.3023 -0.2947
   83MOL   C22429908   3.005   0.668   6.024 -0.2476 -0.5487 -0.0494
   83MOL   O22529909   3.111   0.595   6.078  0.3042  0.1660  0.3081
   83MOL   H22629910   2.655   0.650   5.641 -0.3299  1.2155 -0.0597
   83MOL   H22729911   2.566   0.508   5.657 -3.8500  1.0641  1.4568
   83MOL   H22829912   2.756   0.456   5.774 -1.2582 -0.4120  1.1077
   83MOL   H22929913   2.637   0.480   5.892 -0.8560  2.0136  0.5360
   83MOL   H23029914   2.728   0.697   5.950  1.4841  0.1464  1.3382
   83MOL   H23129915   2.823   0.702   5.798 -1.6695 -2.6927 -2.2022
   83MOL   H23229916   2.950   0.498   5.902  2.4138  1.2157 -0.3500
   83MOL   H23329917   2.847   0.529   6.043 -1.0161  2.0198  0.3859
   83MOL   H23429918   3.043   0.734   5.946  2.0377 -0.5058  1.0611
   83MOL   H23529919   2.960   0.734   6.098 -2.9794 -3.5208  1.1033
   83MOL   C23629920   3.218   0.669   6.111 -0.3063  0.2962 -0.7856
   83MOL   O23729921   3.233   0.791   6.082 -0.4011  0.3731 -0.3327
   83MOL   C23829922   3.326   0.599   6.194  0.0187  0.0020 -0.5283
   83MOL   C23929923   3.420   0.513   6.116 -0.0594 -0.0738 -0.5449
   83MOL   C24029924   3.498   0.585   6.006  0.9141 -0.4960 -0.2414
   83MOL   C24129925   3.594   0.688   6.058  0.7677  0.2120 -0.4185
   83MOL   C24229926   3.667   0.760   5.944  0.0585 -0.5384  0.1727
   83MOL   O24329927   3.737   0.674   5.857 -0.1002  0.1851  0.5310
   83MOL   H24429928   3.283   0.530   6.267 -0.2359  1.3963  0.6588
   83MOL   H24529929   3.374   0.675   6.255  1.6997 -1.8414  0.4872
   83MOL   H24629930   3.373   0.426   6.069 -2.5730  2.1791 -2.4000
   83MOL   H24729931   3.502   0.480   6.179  1.0015  0.0307 -1.8609
   83MOL   H24829932   3.425   0.623   5.934  0.3613  0.3847  0.7708
   83MOL   H24929933   3.560   0.510   5.957  3.6726  0.6193  1.4353
   83MOL   H25029934   3.652   0.650   6.143  0.2207 -0.1779 -0.2163
   83MOL   H25129935   3.524   0.759   6.102 -0.8249 -1.2990 -0.4386
   83MOL   H25229936   3.589   0.812   5.889  1.9877 -0.6235 -2.7869
   83MOL   H25329937   3.743   0.826   5.985  0.9101 -1.4798  0.1560
   83MOL   C25429938   3.770   0.706   5.734 -0.2210 -0.5481  0.2597
   83MOL   O25529939   3.749   0.816   5.683 -0.2319 -0.2629  0.4052
   83MOL   C25629940   3.819   0.592   5.646  0.1948  0.4064 -0.4207
   83MOL   C25729941   3.711   0.473   5.648  0.4031  0.1899 -0.7265
   83MOL   C25829942   3.757   0.349   5.571 -0.3592  0.6816  0.5086
   83MOL   C25929943   3.763   0.365   5.415 -0.7037  0.2518 -0.4454
   83MOL   C26029944   3.722   0.244   5.336 -0.5682  1.1594  0.5075
   83MOL   O26129945   3.815   0.140   5.356 -0.2447 -0.1780 -0.2137
   83MOL   H26229946   3.909   0.555   5.695 -1.0847 -1.4415  0.6311
   83MOL   H26329947   3.825   0.622   5.542 -0.7825  0.0213 -0.5957
   83MOL   H26429948   3.616   0.501   5.603  0.8738  1.4395 -0.9550
   83MOL   H26529949   3.678   0.449   5.749 -0.3614 -0.3166 -1.0978
   83MOL   H26629950   3.693   0.264   5.595 -0.2192  0.4460  0.0458
   83MOL   H26729951   3.858   0.314   5.592 -0.7984 -0.7399  0.2969
   83MOL   H26829952   3.864   0.401   5.397 -0.9093  0.0352 -2.2200
   83MOL   H26929953   3.690   0.437   5.377 -1.5390 -0.2876  0.1140
   83MOL   H27029954   3.621   0.218   5.366 -0.3067 -0.9899 -0.3230
   83MOL   H27129955   3.722   0.246   5.227 -0.8161  0.3085  0.4903
   83MOL   C27229956   3.784   0.035   5.431  0.4253  0.5436 -0.0035
   83MOL   O27329957   3.677   0.022   5.487 -0.5553  0.3955  0.0591
   83MOL   C27429958   3.892   7.772   5.439 -0.1127  0.3317 -0.3417
   83MOL   C27529959   4.032   7.835   5.455  0.3965  0.5411 -0.0648
   83MOL   C27629960   4.142   7.742   5.513  0.1399  0.3986  0.3442
   83MOL   C27729961   4.167   7.623   5.424  0.2515  0.9000  0.4166
   83MOL   C27829962   4.280   7.536   5.475  0.2362 -1.0254 -0.5100
   83MOL   O27929963   4.401   7.616   5.490  0.1650 -0.2512 -0.4718
   83MOL   H28029964   3.894   7.695   5.362  0.7659  1.6745 -1.7019
   83MOL   H28129965   3.865   7.716   5.528 -1.0007 -2.6282 -2.4008
   83MOL   H28229966   4.021   0.075   5.524 -2.3455 -0.1736  0.4532
   83MOL   H28329967   4.059   0.019   5.353 -2.9858  3.1406 -0.3405
   83MOL   H28429968   4.100   7.701   5.605  0.3257 -1.9275 -0.5773
   83MOL   H28529969   4.229   7.800   5.544  0.1948  1.5748 -1.9541
   83MOL   H28629970   4.188   7.650   5.320  1.0910 -0.6562  0.1733
   83MOL   H28729971   4.076   7.563   5.414 -0.1577  1.2424  2.0103
   83MOL   H28829972   4.239   7.487   5.563 -0.4345 -0.4581 -0.5016
   83MOL   H28929973   4.300   7.452   5.409 -0.0727 -1.7844  0.3491
   83MOL   C29029974   4.454   7.617   5.614 -0.3246 -0.1459  0.8364
   83MOL   O29129975   4.410   7.558   5.709 -0.0690  0.2756  0.1684
   83MOL   C29229976   4.578   7.698   5.628  0.3339  0.3746 -0.6668
   83MOL   C29329977   4.542   7.837   5.681  0.2042 -0.5372  0.4762
   83MOL   C29429978   4.527   0.102   5.575  0.3762 -0.3687  0.1636
   83MOL   C29529979   4.652   0.137   5.492 -0.3208 -0.0905 -0.3810
   83MOL   C29629980   4.658   0.281   5.451  0.0573  0.0544 -0.2597
   83MOL   O29729981   4.681   0.373   5.557  0.2948  0.2406  0.2820
   83MOL   H29829982   4.613   7.711   5.526  2.5493 -0.9912 -0.1274
   83MOL   H29929983   4.663   7.638   5.664 -0.6603 -1.2270 -0.9238
   83MOL   H30029984   4.619   0.033   5.746 -0.4255 -0.0242  0.9091
   83MOL   H30129985   4.449   7.836   5.739 -0.2397  1.1778 -0.1700
   83MOL   H30229986   4.480   0.190   5.619  0.1625 -0.3461 -0.1066
   83MOL   H30329987   4.455   0.063   5.502 -2.5132  2.4087  1.4176
   83MOL   H30429988   4.662   0.074   5.404  0.6862 -0.7583  0.1953
   83MOL   H30529989   4.746   0.131   5.548 -0.8881 -0.2038  0.5728
   83MOL   H30629990   4.745   0.297   5.386 -1.5831  1.1036 -2.2761
   83MOL   H30729991   4.575   0.316   5.389 -0.8278 -0.5942  0.5503
   83MOL   C30829992   4.636   0.498   5.544 -0.1127 -0.1575  0.2074
   83MOL   O30929993   4.573   0.547   5.450 -0.1080 -0.0703  0.0797
   83MOL   C31029994   4.675   0.582   5.662 -0.0286  0.4939 -0.4555
   83MOL   C31129995   4.715   0.731   5.630  0.3743  0.1328 -0.4506
   83MOL   C31229996   4.841   0.731   5.546  0.2659 -0.0113 -0.1752
   83MOL   C31329997   4.926   0.859   5.559  0.3681  0.6395  0.0388
   83MOL   C31429998   5.056   0.848   5.482  0.0401  0.7028  0.2092
   83MOL   O31529999   5.128   0.737   5.526 -0.0337 -0.0068  0.0715
   83MOL   H31630000   4.755   0.532   5.718 -1.1249  0.0451  0.7319
   83MOL   H31730001   4.595   0.591   5.735  2.3590 -1.2880  2.5335
   83MOL   H31830002   4.732   0.785   5.723  1.3126 -2.2631  0.8220
   83MOL   H31930003   4.628   0.785   5.593 -1.4076 -1.0635  1.8248
   83MOL   H32030004   4.815   0.704   5.444 -1.5952 -2.1307  0.8043
   83MOL   H32130005   4.884   0.641   5.591 -0.8606 -0.9997 -1.0435
   83MOL   H32230006   4.937   0.870   5.666 -0.6035 -1.7105  0.4154
   83MOL   H32330007   4.875   0.953   5.535 -0.5679 -0.6392 -3.3567
   83MOL   H32430008   5.021   0.827   5.381  2.0258 -1.0083 -0.1591
   83MOL   H32530009   5.116   0.938   5.492 -0.3882  0.5559  5.3997
   83MOL   C32630010   5.185   0.641   5.433  0.9786  0.2740  0.5806
   83MOL   O32730011   5.193   0.661   5.311 -0.1569 -0.4419 -0.0407
   83MOL   C32830012   5.235   0.519   5.511 -0.0422  0.1711  0.2053
   83MOL   C32930013   5.348   0.445   5.432  0.7981 -0.3844  0.1303
   83MOL   C33030014   5.307   0.367   5.309 -0.2005  0.1825  0.4839
   83MOL   C33130015   5.224   0.245   5.341  0.0712 -0.2637  0.4651
   83MOL   C33230016   5.193   0.149   5.216 -0.2661 -0.5960  0.3893
   83MOL   O33330017   5.096   0.208   5.126 -0.1438  0.1144 -0.1975
   83MOL   H33430018   5.151   0.457   5.541  0.2256 -0.2092  0.1579
   83MOL   H33530019   5.275   0.563   5.603  1.8182  1.4175 -1.1610
   83MOL   H33630020   5.410   0.378   5.492  2.2083  1.1105  0.3865
   83MOL   H33730021   5.418   0.511   5.381  0.6546 -0.5560 -0.2945
   83MOL   H33830022   5.397   0.326   5.264 -0.8730 -2.3285  1.3123
   83MOL   H33930023   5.266   0.432   5.231 -1.9013 -0.5783  0.7234
   83MOL   H34030024   5.129   0.276   5.384  0.1572  1.4215 -0.5185
   83MOL   H34130025   5.279   0.179   5.408 -0.0305  1.6473  2.4943
   83MOL   H34230026   5.283   0.126   5.159  0.7337 -1.4275  2.2680
   83MOL   H34330027   5.149   0.056   5.252  2.4915 -2.2427 -0.3667
   83MOL   C34430028   4.968   0.141   5.115 -0.2465  0.4694 -0.2329
   83MOL   O34530029   4.925   0.047   5.190  0.5912 -0.3763 -0.3518
   83MOL   C34630030   4.891   0.205   4.997 -0.5933  0.0474 -0.1441
   83MOL   C34730031   4.938   0.163   4.856  0.1377 -0.1052 -0.5018
   83MOL   C34830032   4.896   0.254   4.743  0.2593  0.4565  0.0753
   83MOL   C34930033   4.969   0.237   4.605  0.4573  0.2712 -0.9441
   83MOL   C35030034   4.923   0.325   4.495 -1.2206  0.1256 -0.0447
   83MOL   O35130035   4.812   0.261   4.445  0.3656 -0.1290 -0.6113
   83MOL   H35230036   4.894   0.314   5.005 -2.8111  0.2466 -1.4937
   83MOL   H35330037   4.789   0.178   5.024 -0.9215  0.6708 -0.7187
   83MOL   H35430038   4.899   0.063   4.836 -1.4555  0.9256 -2.8018
   83MOL   H35530039   5.046   0.153   4.847  0.6589  4.6424 -0.7732
   83MOL   H35630040   4.907   0.355   4.784  0.0551 -0.1497  1.6762
   83MOL   H35730041   4.789   0.235   4.735 -0.1444  2.5835  0.0716
   83MOL   H35830042   4.976   0.139   4.557 -0.0847  0.2962 -1.0778
   83MOL   H35930043   5.077   0.244   4.616  0.2584 -1.0865  2.5085
   83MOL   H36030044   4.906   0.424   4.535 -1.4504  0.9785 -2.2004
   83MOL   H36130045   4.985   0.330   4.405 -1.8586  0.0954 -0.4857
   83MOL   H36230046   4.758   0.238   4.519  0.7151  0.7136 -0.0824
   84MOL     C130047   3.531   6.741   5.890 -0.6706 -0.0370  0.1375
   84MOL     O230048   3.510   6.707   5.772 -0.6297  0.0078  0.0715
   84MOL     C330049   3.581   6.656   6.002 -0.7117  0.2340  0.6349
   84MOL     C430050   3.554   6.504   5.977  0.1663  0.4190 -0.1740
   84MOL     C530051   3.641   6.417   6.064 -0.1137 -0.8747  0.4559
   84MOL     C630052   3.635   6.261   6.030 -0.0379  0.1827  0.3165
   84MOL     C730053   3.728   6.173   6.115 -0.0991  0.3196 -0.0728
   84MOL     O830054   3.729   6.037   6.083 -0.4139 -0.3833  0.6377
   84MOL     H930055   3.536   6.686   6.097  1.5406  3.6103  0.6859
   84MOL    H1030056   3.686   6.683   6.008  0.1615 -2.7329 -0.3280
   84MOL    H1130057   3.572   6.486   5.871  0.4948  1.5872 -0.3155
   84MOL    H1230058   3.451   6.477   6.000  0.6849 -0.0924  1.6794
   84MOL    H1330059   3.613   6.418   6.169  0.1907  0.9102  0.5475
   84MOL    H1430060   3.741   6.461   6.053 -0.2149 -0.7913 -0.1082
   84MOL    H1530061   3.655   6.249   5.923  0.0298  0.1214  0.3358
   84MOL    H1630062   3.533   6.233   6.056  0.8774 -1.8974  1.7118
   84MOL    H1730063   3.825   6.224   6.112  0.1558 -0.1798 -0.5504
   84MOL    H1830064   3.698   6.178   6.219  0.5256  0.7864  0.0888
   84MOL    H1930065   3.510   6.844   5.917  1.7660  0.5970 -0.2568
   84MOL    C2030066   3.828   5.957   6.135  0.1457  0.9681  0.2236
   84MOL    O2130067   3.923   5.999   6.202  0.1410  0.0473 -0.3325
   84MOL    C2230068   3.812   5.808   6.107 -0.0261 -0.4695  0.2513
   84MOL    C2330069   3.739   5.726   6.220 -0.0841  0.2791 -0.4236
   84MOL    C2430070   3.829   5.709   6.342  0.6060  0.6521 -0.4294
   84MOL    C2530071   3.751   5.655   6.464 -0.0290 -0.1915  0.5431
   84MOL    C2630072   3.723   5.506   6.451  0.2859  0.0942  0.3933
   84MOL    O2730073   3.629   5.463   6.546  0.1322  0.4415 -0.2446
   84MOL    H2830074   3.914   5.768   6.108  0.8947  1.7835 -0.2595
   84MOL    H2930075   3.762   5.800   6.011  1.1497  0.5114 -0.4539
   84MOL    H3030076   3.706   5.624   6.202 -1.6559  0.5300  0.8529
   84MOL    H3130077   3.646   5.777   6.248 -1.8680 -3.6227  1.1180
   84MOL    H3230078   3.889   5.796   6.367 -0.0468  0.3708  2.3335
   84MOL    H3330079   3.901   5.636   6.305  0.5733  0.7272 -0.6393
   84MOL    H3430080   3.664   5.717   6.481  0.8689  0.9495  1.0457
   84MOL    H3530081   3.811   5.670   6.554 -0.7809  1.1415  0.8367
   84MOL    H3630082   3.673   5.499   6.354  2.9153 -0.3323 -0.9706
   84MOL    H3730083   3.816   5.449   6.447  0.6043  0.7122 -2.4407
   84MOL    C3830084   3.678   5.398   6.651 -0.3049  0.2815  0.2939
   84MOL    O3930085   3.793   5.374   6.682 -0.0394 -0.0275  0.0967
   84MOL    C4030086   3.565   5.366   6.751 -0.4022  0.6999  0.0983
   84MOL    C4130087   3.439   5.293   6.695 -0.4764 -0.1322 -0.6160
   84MOL    C4230088   3.366   5.240   6.819  0.5121  0.7211  0.1773
   84MOL    C4330089   3.213   5.194   6.784 -0.0970 -0.0286 -0.5456
   84MOL    C4430090   3.139   5.146   6.910  0.7368 -0.2634 -0.2416
   84MOL    O4530091   3.002   5.168   6.877  0.0062 -0.0613 -0.2779
   84MOL    H4630092   3.543   5.461   6.799  0.4227  1.1870 -0.4700
   84MOL    H4730093   3.610   5.306   6.830 -2.1847  2.3617  2.4159
   84MOL    H4830094   3.466   5.214   6.625  0.7859 -0.9115  0.7367
   84MOL    H4930095   3.383   5.365   6.635  0.7790  0.0965 -1.5541
   84MOL    H5030096   3.354   5.313   6.900 -0.8939  1.6836 -0.8788
   84MOL    H5130097   3.419   5.162   6.873 -1.0476  0.3145  1.1575
   84MOL    H5230098   3.232   5.111   6.717 -1.7293 -0.1898 -0.8269
   84MOL    H5330099   3.164   5.279   6.736  0.3976  0.0822 -0.8473
   84MOL    H5430100   3.164   5.042   6.933  2.8465  0.2306 -0.2280
   84MOL    H5530101   3.170   5.214   6.989  1.7020  0.2937 -1.0899
   84MOL    C5630102   2.923   5.071   6.848  0.8384 -0.1951 -0.4243
   84MOL    O5730103   2.951   4.951   6.841  0.4143 -0.2760 -0.2132
   84MOL    C5830104   2.780   5.129   6.839  0.0420  0.8413 -0.3427
   84MOL    C5930105   2.690   5.096   6.955 -0.3790  0.1518  0.2451
   84MOL    C6030106   2.679   4.945   6.983  0.2932 -0.3062  0.1164
   84MOL    C6130107   2.543   4.905   7.037  0.6051 -0.2314 -0.0545
   84MOL    C6230108   2.444   4.880   6.925 -0.2974  0.3912 -0.5570
   84MOL    O6330109   2.468   4.772   6.843 -0.3823 -0.3246 -0.0812
   84MOL    H6430110   2.729   5.091   6.750  0.4873  0.1923 -0.3211
   84MOL    H6530111   2.777   5.237   6.827 -0.1080  0.7548 -1.1137
   84MOL    H6630112   2.590   5.134   6.933 -0.5989 -1.5136 -1.7761
   84MOL    H6730113   2.717   5.151   7.045  1.0097  0.9275 -0.6384
   84MOL    H6830114   2.758   4.898   7.042  0.4049 -0.1335  0.1033
   84MOL    H6930115   2.690   4.889   6.889 -1.7557  0.7668 -0.7876
   84MOL    H7030116   2.507   4.990   7.095 -2.5361 -0.2747 -1.8288
   84MOL    H7130117   2.541   4.817   7.101  3.2133 -0.7244 -0.5551
   84MOL    H7230118   2.350   4.855   6.973 -0.1429  1.8133  0.5009
   84MOL    H7330119   2.416   4.964   6.861  0.6899 -0.3157 -1.9624
   84MOL    C7430120   2.518   4.786   6.719 -0.3313  0.2207 -0.3398
   84MOL    O7530121   2.572   4.889   6.671  0.1653  0.7030  0.4973
   84MOL    C7630122   2.521   4.658   6.643 -0.2255 -0.3718  0.2819
   84MOL    C7730123   2.379   4.591   6.629 -0.7559 -0.4550 -0.0721
   84MOL    C7830124   2.265   4.678   6.560  0.4096 -0.2738 -0.2961
   84MOL    C7930125   2.205   4.603   6.443 -0.6209 -0.2917 -0.2793
   84MOL    C8030126   2.106   4.700   6.382  0.2776  0.3037  0.3398
   84MOL    O8130127   2.163   4.780   6.286  0.1897  0.4258 -0.0943
   84MOL    H8230128   2.583   4.586   6.696 -0.1326 -0.8534 -0.4814
   84MOL    H8330129   2.562   4.678   6.544 -0.6174  1.9973  0.5709
   84MOL    H8430130   2.350   4.565   6.730  0.8342 -1.1655  0.2187
   84MOL    H8530131   2.392   4.489   6.592 -2.7239 -0.3397 -1.1795
   84MOL    H8630132   2.304   4.769   6.515 -2.3179 -0.0553 -2.3243
   84MOL    H8730133   2.186   4.703   6.630  1.1111  1.7445 -0.2015
   84MOL    H8830134   2.149   4.513   6.468 -0.8016 -0.5670 -1.6371
   84MOL    H8930135   2.273   4.568   6.365  0.5916  1.1329  0.1333
   84MOL    H9030136   2.026   4.642   6.338  1.0526  0.7168 -1.6715
   84MOL    H9130137   2.049   4.763   6.450 -0.8004 -0.1826 -0.1137
   84MOL    C9230138   2.150   4.752   6.159 -0.5721 -0.7298  0.9266
   84MOL    O9330139   2.101   4.643   6.118 -0.5837 -0.1853 -0.1795
   84MOL    C9430140   2.213   4.862   6.067 -0.1856  0.1777 -0.2376
   84MOL    C9530141   2.196   4.829   5.917  0.4440  0.3370 -0.2404
   84MOL    C9630142   2.145   4.945   5.831 -0.0403  0.1672  0.2059
   84MOL    C9730143   2.073   4.900   5.705 -0.1632  0.3720  0.2798
   84MOL    C9830144   2.161   4.904   5.582  0.4822 -0.7968 -0.7933
   84MOL    O9930145   2.091   4.861   5.466  0.2761 -0.0933  0.7176
   84MOL   H10030146   2.317   4.877   6.097 -0.5960  2.5245  0.0735
   84MOL   H10130147   2.169   4.959   6.089 -0.3256 -0.5117  2.6733
   84MOL   H10230148   2.127   4.745   5.905 -2.0892  2.1738  1.2097
   84MOL   H10330149   2.290   4.797   5.871 -0.0954  0.0904 -1.1864
   84MOL   H10430150   2.225   5.013   5.801  0.6095 -0.8718 -0.4244
   84MOL   H10530151   2.082   5.022   5.876  0.4333  0.5922  0.1491
   84MOL   H10630152   1.992   4.967   5.675  0.5674  0.8344 -0.6979
   84MOL   H10730153   2.012   4.810   5.708 -1.1613  1.0335  0.0405
   84MOL   H10830154   2.209   4.999   5.558 -2.4255  0.6663 -1.0181
   84MOL   H10930155   2.246   4.837   5.597  0.9193 -0.1428 -0.3073
   84MOL   C11030156   2.041   4.949   5.381 -0.0125 -0.1045  0.4489
   84MOL   O11130157   2.039   5.068   5.400 -0.8087 -0.5050 -0.0509
   84MOL   C11230158   1.980   4.883   5.257 -0.0877  0.0840  0.0071
   84MOL   C11330159   1.846   4.810   5.273 -0.6694 -0.0172 -0.1220
   84MOL   C11430160   1.854   4.670   5.328 -0.0548  0.1224  0.0027
   84MOL   C11530161   1.933   4.569   5.239 -0.2456 -0.3368  0.2644
   84MOL   C11630162   1.928   4.435   5.309 -0.2152 -0.3671  0.0901
   84MOL   O11730163   2.017   4.347   5.236  0.3158  0.8649 -0.2091
   84MOL   H11830164   2.063   4.826   5.213 -1.2929 -1.8796  0.2110
   84MOL   H11930165   1.968   4.967   5.188  1.0460 -1.6831 -2.4583
   84MOL   H12030166   1.793   4.803   5.178 -2.7148  1.1199  0.9050
   84MOL   H12130167   1.790   4.864   5.349 -2.5409  1.0031 -2.1782
   84MOL   H12230168   1.757   4.623   5.338  0.3243 -0.3781  1.4068
   84MOL   H12330169   1.909   4.672   5.422 -0.6113 -1.0769  0.3664
   84MOL   H12430170   2.039   4.590   5.228 -0.4874  0.2263 -1.0051
   84MOL   H12530171   1.889   4.567   5.140  4.4891 -0.0809 -1.9580
   84MOL   H12630172   1.962   4.451   5.412 -0.0695 -1.1017  0.1568
   84MOL   H12730173   1.833   4.383   5.304 -0.5611  0.3884 -1.4171
   84MOL   C12830174   2.043   4.226   5.279  0.8521  0.3369  0.0756
   84MOL   O12930175   1.995   4.182   5.380 -0.7187 -0.1072 -0.5482
   84MOL   C13030176   2.151   4.155   5.196 -0.3207  0.9308  0.4081
   84MOL   C13130177   2.104   4.029   5.119  0.4092  0.4790  0.6687
   84MOL   C13230178   2.105   3.896   5.203  0.7303  0.0664 -0.2206
   84MOL   C13330179   2.240   3.855   5.264  0.2238 -0.1120 -0.5004
   84MOL   C13430180   2.219   3.742   5.369 -0.6680  0.5788 -0.4461
   84MOL   O13530181   2.135   3.769   5.483  0.7142  0.1894  0.6421
   84MOL   H13630182   2.244   4.139   5.250 -0.2564 -1.1345 -0.2746
   84MOL   H13730183   2.178   4.234   5.126  1.5294 -1.8218 -2.1706
   84MOL   H13830184   2.168   4.017   5.032  3.0243 -0.0449  2.5999
   84MOL   H13930185   2.011   4.053   5.067  0.3764 -1.6599 -0.3032
   84MOL   H14030186   2.060   3.826   5.133  1.1105 -2.6492  2.2059
   84MOL   H14130187   2.032   3.925   5.279 -0.1521  0.1363 -1.0829
   84MOL   H14230188   2.280   3.937   5.322  0.6429  0.1628 -1.1708
   84MOL   H14330189   2.318   3.824   5.194  1.0280  0.5820  0.0883
   84MOL   H14430190   2.194   3.648   5.318 -0.9686  1.0175 -1.1153
   84MOL   H14530191   2.318   3.714   5.404 -1.3045 -0.6368  0.4352
   84MOL   C14630192   2.184   3.835   5.588 -0.0311 -0.5771 -0.2616
   84MOL   O14730193   2.298   3.886   5.590  0.5055  0.9706 -0.0749
   84MOL   C14830194   2.093   3.838   5.708  0.1947 -0.1986 -0.5118
   84MOL   C14930195   2.001   3.960   5.698 -0.0625 -0.0434  0.4136
   84MOL   C15030196   1.938   3.999   5.838 -1.0385  0.1208  0.1958
   84MOL   C15130197   1.830   4.103   5.813  0.3271  0.1835  0.7412
   84MOL   C15230198   1.739   4.136   5.927 -0.6842 -0.2243  0.3624
   84MOL   O15330199   1.813   4.195   6.030 -0.2206 -0.8561 -0.1832
   84MOL   H15430200   2.170   3.841   5.785 -0.1144  0.3466 -0.2202
   84MOL   H15530201   2.028   3.751   5.720  0.5301 -0.2843  0.8021
   84MOL   H15630202   1.927   3.947   5.619  0.7920  0.3415 -0.4616
   84MOL   H15730203   2.070   4.037   5.662  1.6488 -1.5945  0.3111
   84MOL   H15830204   2.027   4.033   5.891  0.0563 -1.9055 -0.2591
   84MOL   H15930205   1.899   3.906   5.879 -2.5175  2.0050  3.1709
   84MOL   H16030206   1.768   4.083   5.726 -0.4639  0.2976  1.2699
   84MOL   H16130207   1.869   4.203   5.794 -0.4945  0.4141  0.2675
   84MOL   H16230208   1.664   4.208   5.894 -0.5009 -0.8441 -1.4848
   84MOL   H16330209   1.687   4.045   5.959 -0.0982  0.2622  2.8028
   84MOL   C16430210   1.779   4.176   6.155  0.5541 -0.6089  0.2977
   84MOL   O16530211   1.680   4.114   6.198  0.1948 -0.6447 -0.0923
   84MOL   C16630212   1.881   4.218   6.255  0.4642 -0.1992 -0.2887
   84MOL   C16730213   1.857   4.361   6.300  0.5618 -0.6525  0.2748
   84MOL   C16830214   1.807   4.372   6.444 -1.0784 -0.5359 -0.6602
   84MOL   C16930215   1.768   4.513   6.492 -0.9324 -0.2366  0.0441
   84MOL   C17030216   1.692   4.512   6.622 -0.3579 -0.2711 -0.3588
   84MOL   O17130217   1.773   4.461   6.734 -0.0887 -0.0076 -0.1594
   84MOL   H17230218   1.981   4.209   6.213  1.0814 -1.8810  1.4749
   84MOL   H17330219   1.876   4.140   6.332 -0.9421 -0.1023 -0.2694
   84MOL   H17430220   1.780   4.401   6.234  0.2419 -1.8586 -0.0886
   84MOL   H17530221   1.947   4.421   6.286 -0.3515  0.9028  0.8905
   84MOL   H17630222   1.877   4.324   6.512 -0.0041  0.6778 -0.8810
   84MOL   H17730223   1.717   4.312   6.448 -1.1414 -0.4002 -0.1130
   84MOL   H17830224   1.701   4.554   6.416 -0.6397  1.3927  0.6336
   84MOL   H17930225   1.856   4.577   6.507 -1.1473 -0.0301  0.4039
   84MOL   H18030226   1.660   4.612   6.653 -0.6424 -0.5965  0.4060
   84MOL   H18130227   1.602   4.451   6.622  0.9065 -2.1718 -0.6486
   84MOL   C18230228   1.869   4.535   6.788  0.5223 -0.6859  0.3904
   84MOL   O18330229   1.888   4.655   6.768 -0.1029 -0.2410 -0.5295
   84MOL   C18430230   1.946   4.462   6.895 -0.8961  0.0627 -0.2994
   84MOL   C18530231   2.087   4.530   6.923  0.3841  0.3733  0.3002
   84MOL   C18630232   2.174   4.450   7.020  0.3374 -0.2824  0.2309
   84MOL   C18730233   2.315   4.500   7.034  0.0886 -0.0429 -0.6551
   84MOL   C18830234   2.391   4.432   7.148 -0.5307  1.0043 -0.4857
   84MOL   O18930235   2.529   4.481   7.136  0.3601  0.3385  0.3813
   84MOL   H19030236   1.964   4.367   6.844  0.8708  0.1898  0.0361
   84MOL   H19130237   1.890   4.432   6.984  0.0592  0.9690  0.6181
   84MOL   H19230238   2.073   4.630   6.962  0.8947  0.3098  0.6474
   84MOL   H19330239   2.135   4.553   6.828 -0.6130  0.9536 -0.0627
   84MOL   H19430240   2.178   4.350   6.979  1.8517  0.1121 -0.6056
   84MOL   H19530241   2.131   4.455   7.120 -0.0806  2.0449 -0.0352
   84MOL   H19630242   2.319   4.608   7.047 -1.9107  0.4935 -3.8460
   84MOL   H19730243   2.370   4.480   6.942  0.1767  1.7334 -1.0074
   84MOL   H19830244   2.357   4.455   7.249 -0.1307 -4.1256  0.9712
   84MOL   H19930245   2.387   4.324   7.138 -0.2169  0.6152  2.8466
   84MOL   C20030246   2.635   4.398   7.127  0.1793 -0.1438 -0.3309
   84MOL   O20130247   2.629   4.278   7.126  0.6505 -0.2071  0.2983
   84MOL   C20230248   2.760   4.478   7.142  0.1363 -0.9529  0.2360
   84MOL   C20330249   2.789   4.525   7.000  0.3267 -0.2541  0.2366
   84MOL   C20430250   2.939   4.572   7.001 -1.1966 -0.3307  0.4182
   84MOL   C20530251   2.989   4.600   6.859 -0.4533  0.0509  0.2466
   84MOL   C20630252   3.131   4.656   6.863  0.0242 -0.4372 -0.1212
   84MOL   O20730253   3.195   4.639   6.734 -0.4615  0.1606  0.1332
   84MOL   H20830254   2.831   4.408   7.185  1.3688  1.5316  2.4363
   84MOL   H20930255   2.739   4.550   7.222  2.5249  1.0244 -0.8433
   84MOL   H21030256   2.727   4.607   6.962 -0.6510 -1.6785 -1.3018
   84MOL   H21130257   2.773   4.445   6.927  1.2374 -1.5075  1.4024
   84MOL   H21230258   3.010   4.495   7.031  0.4447  1.1343  0.3681
   84MOL   H21330259   2.961   4.647   7.076  0.2069 -0.6035  0.2996
   84MOL   H21430260   2.920   4.675   6.821 -1.0015 -0.0373  1.0432
   84MOL   H21530261   2.979   4.505   6.807  0.0392 -1.7029  3.1793
   84MOL   H21630262   3.129   4.758   6.900 -2.0127  0.0221 -1.3796
   84MOL   H21730263   3.185   4.588   6.929 -2.3000 -0.1467  2.1389
   84MOL   C21830264   3.269   4.742   6.690 -0.1070  0.0248  0.3076
   84MOL   O21930265   3.308   4.834   6.760  0.8706  0.4592 -0.2939
   84MOL   C22030266   3.307   4.744   6.542 -0.2211  0.4570 -0.3452
   84MOL   C22130267   3.443   4.806   6.492  0.9124 -0.0262 -0.4913
   84MOL   C22230268   3.422   4.936   6.406  0.0849 -0.2974  0.1727
   84MOL   C22330269   3.556   4.984   6.364 -0.4864 -0.6579 -0.1092
   84MOL   C22430270   3.543   5.107   6.262 -0.0966 -0.5543 -0.7681
   84MOL   O22530271   3.472   5.079   6.143  0.1880  0.0776 -0.1499
   84MOL   H22630272   3.219   4.772   6.484 -1.4564 -0.6921  0.9377
   84MOL   H22730273   3.324   4.637   6.529 -0.8314  0.1508  1.2106
   84MOL   H22830274   3.481   4.728   6.425  0.2474 -0.3077 -0.5420
   84MOL   H22930275   3.519   4.808   6.570 -0.0495 -0.5952  0.4717
   84MOL   H23030276   3.376   5.013   6.468  0.1874  0.6172 -0.8768
   84MOL   H23130277   3.349   4.925   6.326  0.2574  2.7060 -0.4401
   84MOL   H23230278   3.615   4.911   6.310  0.3707 -1.0348  1.3021
   84MOL   H23330279   3.613   5.014   6.452 -1.3539 -3.7016  1.5457
   84MOL   H23430280   3.493   5.193   6.309  3.0501  1.4738 -0.9933
   84MOL   H23530281   3.641   5.145   6.233 -0.3570  0.3397 -0.5107
   84MOL   C23630282   3.454   5.165   6.041  0.2626 -0.0025 -0.5672
   84MOL   O23730283   3.496   5.281   6.035  0.4989 -0.3882 -0.1971
   84MOL   C23830284   3.367   5.106   5.934  0.6123 -0.6928 -0.4478
   84MOL   C23930285   3.220   5.072   5.979 -0.4778 -0.4132 -0.3612
   84MOL   C24030286   3.135   5.194   6.028  0.2522  0.2251 -0.2808
   84MOL   C24130287   2.991   5.141   6.042 -0.0835  0.1641 -1.3240
   84MOL   C24230288   2.895   5.248   6.087  0.4462  0.1128 -0.0618
   84MOL   O24330289   2.768   5.194   6.088  0.5765 -0.2403 -0.3515
   84MOL   H24430290   3.412   5.014   5.897  1.3711 -0.5321  0.0845
   84MOL   H24530291   3.362   5.173   5.848  0.8715 -1.2308 -0.8843
   84MOL   H24630292   3.227   5.001   6.062 -1.6205 -0.2578 -0.1303
   84MOL   H24730293   3.174   5.018   5.896 -1.7927  1.5340 -0.9132
   84MOL   H24830294   3.146   5.275   5.956  1.0077 -0.3549 -0.8366
   84MOL   H24930295   3.182   5.234   6.118  0.9963  1.5190 -1.2377
   84MOL   H25030296   2.981   5.061   6.115  2.8751  0.3423 -0.6714
   84MOL   H25130297   2.948   5.100   5.950 -2.6093  3.0522 -1.4946
   84MOL   H25230298   2.912   5.290   6.186 -2.2221  0.9131  0.0965
   84MOL   H25330299   2.898   5.333   6.018 -1.0709  1.1372  1.0949
   84MOL   C25430300   2.657   5.275   6.102 -0.8209 -0.2699  0.0339
   84MOL   O25530301   2.658   5.398   6.112 -0.4667 -0.2388 -0.4624
   84MOL   C25630302   2.529   5.197   6.080 -0.0628  0.2102 -0.2699
   84MOL   C25730303   2.482   5.174   5.930 -0.2009 -0.1159 -0.0030
   84MOL   C25830304   2.572   5.066   5.861 -0.4367 -0.9036  0.8081
   84MOL   C25930305   2.528   5.046   5.715  0.1595 -0.3001 -0.7474
   84MOL   C26030306   2.565   4.913   5.651 -0.2583  0.2595  0.0951
   84MOL   O26130307   2.701   4.904   5.662 -0.0770 -0.5438  0.1150
   84MOL   H26230308   2.456   5.254   6.137  0.9741  1.6324 -0.3461
   84MOL   H26330309   2.533   5.103   6.135  2.7827  0.6757  0.4077
   84MOL   H26430310   2.483   5.274   5.885  2.8023 -0.0819  0.0278
   84MOL   H26530311   2.380   5.140   5.916  0.0946 -1.4082  0.9442
   84MOL   H26630312   2.566   4.976   5.922  1.4478 -1.0133  0.8696
   84MOL   H26730313   2.677   5.097   5.858 -0.8760  0.4858 -1.8510
   84MOL   H26830314   2.577   5.130   5.664  2.4731  0.0469  1.9083
   84MOL   H26930315   2.424   5.077   5.703  0.3113  0.7480  0.4647
   84MOL   H27030316   2.514   4.825   5.691  0.1609 -1.0175 -2.0721
   84MOL   H27130317   2.524   4.919   5.551 -0.8750  0.0281  0.3324
   84MOL   C27230318   2.767   4.809   5.596 -0.1688 -0.0203 -1.1342
   84MOL   O27330319   2.719   4.707   5.545 -0.2521 -0.5612  0.3997
   84MOL   C27430320   2.917   4.855   5.592  0.0978  0.2549  0.1936
   84MOL   C27530321   3.016   4.751   5.536  0.8184  0.2450  0.7447
   84MOL   C27630322   3.007   4.712   5.390  0.6626 -0.0965  0.6851
   84MOL   C27730323   3.128   4.632   5.344  0.3788  0.1148  0.4966
   84MOL   C27830324   3.110   4.577   5.201 -0.1504 -0.6618 -0.6149
   84MOL   O27930325   3.226   4.512   5.144  0.5489  0.0035 -0.5485
   84MOL   H28030326   2.952   4.892   5.688 -0.5536 -0.2167  0.6219
   84MOL   H28130327   2.926   4.934   5.518 -1.2376 -0.7584 -1.0909
   84MOL   H28230328   2.997   4.663   5.597  1.9294 -0.8820 -0.5111
   84MOL   H28330329   3.118   4.782   5.556  1.0372  1.0602 -1.5294
   84MOL   H28430330   3.008   4.804   5.331  1.4595 -0.8303 -0.4626
   84MOL   H28530331   2.915   4.662   5.362  0.2154  1.9187 -1.6259
   84MOL   H28630332   3.131   4.539   5.401  0.4920  0.6502  1.3717
   84MOL   H28730333   3.227   4.675   5.362  0.4991  0.5002 -1.0160
   84MOL   H28830334   3.026   4.513   5.175 -0.6396  0.2625 -1.3351
   84MOL   H28930335   3.118   4.664   5.135  0.4351  1.2349  1.9056
   84MOL   C29030336   3.215   4.468   5.018  0.3239 -0.0583  0.7611
   84MOL   O29130337   3.120   4.471   4.945  0.5011  0.5389 -0.1782
   84MOL   C29230338   3.344   4.412   4.965 -0.4934  0.1786  0.6036
   84MOL   C29330339   3.358   4.259   4.965 -0.7813 -0.1928  0.6193
   84MOL   C29430340   3.245   4.182   4.890 -0.7730 -0.4031  0.5395
   84MOL   C29530341   3.271   4.037   4.880  0.4340  0.0685 -0.5320
   84MOL   C29630342   3.194   3.946   4.968  0.4185 -0.3242 -0.2038
   84MOL   O29730343   3.054   3.959   4.948 -0.3984 -0.8629 -0.2060
   84MOL   H29830344   3.427   4.461   5.016  0.2490  1.4644 -1.7542
   84MOL   H29930345   3.343   4.450   4.863 -2.7145  0.4232  0.6920
   84MOL   H30030346   3.359   4.224   5.068  0.3696 -1.3497  0.2399
   84MOL   H30130347   3.459   4.240   4.927 -2.0199 -0.5259 -2.6994
   84MOL   H30230348   3.230   4.219   4.788  1.0630 -2.2451 -0.4355
   84MOL   H30330349   3.149   4.196   4.939 -1.8942 -0.7653 -1.4776
   84MOL   H30430350   3.374   4.019   4.910  0.8858  0.4741 -1.8321
   84MOL   H30530351   3.270   4.010   4.775  1.4063  0.3895 -0.6267
   84MOL   H30630352   3.230   3.843   4.971  0.8901 -0.1151  1.6500
   84MOL   H30730353   3.213   3.975   5.071 -1.8078  1.0042 -0.1387
   84MOL   C30830354   2.993   3.887   4.855 -0.0549 -0.7232 -0.0518
   84MOL   O30930355   3.052   3.834   4.759  0.3898 -0.3577 -0.1800
   84MOL   C31030356   2.842   3.878   4.867 -0.0559 -0.2521  0.3537
   84MOL   C31130357   2.794   3.771   4.975  0.7237 -0.7735 -0.1027
   84MOL   C31230358   2.846   3.784   5.114  0.0014 -0.1328 -0.3627
   84MOL   C31330359   2.770   3.693   5.213 -0.4386 -0.3843  0.2432
   84MOL   C31430360   2.619   3.704   5.232 -0.5232  0.2598  1.1072
   84MOL   O31530361   2.584   3.836   5.266 -0.1951  0.0814  0.0797
   84MOL   H31630362   2.799   3.844   4.773 -1.2529  4.8216 -1.0972
   84MOL   H31730363   2.802   3.978   4.887  0.2062 -0.1837  0.5404
   84MOL   H31830364   2.833   3.673   4.949 -0.0366 -1.0440 -0.2209
   84MOL   H31930365   2.685   3.765   4.971  0.7220 -1.6890  1.1393
   84MOL   H32030366   2.831   3.889   5.143  1.2381  0.1102 -0.5784
   84MOL   H32130367   2.954   3.775   5.119  0.0603  0.9269  0.5627
   84MOL   H32230368   2.812   3.717   5.311 -1.6568  0.1819  0.6367
   84MOL   H32330369   2.793   3.587   5.204  2.0281  0.0441  1.0290
   84MOL   H32430370   2.571   3.675   5.139 -0.7474  3.5941  0.1315
   84MOL   H32530371   2.574   3.639   5.307  0.1297 -1.4664  0.0363
   84MOL   C32630372   2.588   3.889   5.385 -0.1987  0.2228 -0.3808
   84MOL   O32730373   2.612   3.833   5.489 -0.4384  0.2190  0.3737
   84MOL   C32830374   2.544   4.039   5.380  0.1658  0.2269 -0.1647
   84MOL   C32930375   2.597   4.125   5.491  0.6271 -0.7197  0.1106
   84MOL   C33030376   2.496   4.245   5.512  0.6616 -0.4792  0.0310
   84MOL   C33130377   2.539   4.350   5.620  0.2335 -0.2407 -0.4320
   84MOL   C33230378   2.444   4.472   5.630 -0.4267 -0.0989 -0.1238
   84MOL   O33330379   2.320   4.453   5.694 -0.0193  0.4147  0.1320
   84MOL   H33430380   2.435   4.043   5.386  0.2451  1.0131  0.9158
   84MOL   H33530381   2.559   4.098   5.290 -3.4158  0.0058 -0.9964
   84MOL   H33630382   2.694   4.162   5.457  0.2689 -0.6390 -0.8217
   84MOL   H33730383   2.608   4.063   5.580  2.6244  1.0595  1.1614
   84MOL   H33830384   2.395   4.204   5.525 -1.1494  3.0448 -1.9985
   84MOL   H33930385   2.467   4.308   5.428  0.6860  0.3528  0.6426
   84MOL   H34030386   2.642   4.382   5.606  0.7106 -2.2471 -1.6630
   84MOL   H34130387   2.546   4.295   5.714  1.5512  0.0164 -0.3704
   84MOL   H34230388   2.490   4.544   5.698  1.8103 -1.0105 -0.6221
   84MOL   H34330389   2.436   4.530   5.539  0.5459  0.5690  0.2094
   84MOL   C34430390   2.219   4.408   5.619 -0.5870  0.2872 -0.3132
   84MOL   O34530391   2.216   4.406   5.498 -0.1332 -0.0960  0.5846
   84MOL   C34630392   2.107   4.353   5.705 -0.0853 -0.7583  0.0370
   84MOL   C34730393   2.041   4.442   5.809 -0.0144 -0.2402  0.5191
   84MOL   C34830394   1.924   4.527   5.757 -0.6997  0.3860 -0.0005
   84MOL   C34930395   1.861   4.607   5.875 -0.3712 -0.8238 -0.1537
   84MOL   C35030396   1.769   4.530   5.967  0.4772  0.1872  0.2348
   84MOL   O35130397   1.718   4.608   6.069  0.9044 -0.3738 -0.1007
   84MOL   H35230398   2.158   4.265   5.743  0.9012  0.5504  1.8286
   84MOL   H35330399   2.025   4.319   5.641  0.6913 -3.8267  0.5839
   84MOL   H35430400   2.118   4.496   5.865  0.1771 -2.1909  2.2101
   84MOL   H35530401   1.995   4.375   5.882 -2.1256 -0.2735 -0.8010
   84MOL   H35630402   1.840   4.475   5.713 -0.3630  2.2298 -2.9643
   84MOL   H35730403   1.963   4.603   5.688 -0.4452  0.6545  0.4285
   84MOL   H35830404   1.803   4.684   5.823 -0.1478 -1.1802 -0.9487
   84MOL   H35930405   1.937   4.656   5.936 -0.8015 -0.6940  0.2782
   84MOL   H36030406   1.689   4.475   5.918 -2.2999  1.8885  2.7350
   84MOL   H36130407   1.817   4.446   6.018 -3.3696 -2.3678 -0.1472
   84MOL   H36230408   1.785   4.652   6.119  0.0317 -0.2827  1.0267
   85MOL     C130409   4.597   3.902   4.666 -0.2793 -0.1276  0.0148
   85MOL     O230410   4.503   3.986   4.683  0.5808  0.3056  0.2484
   85MOL     C330411   4.607   3.815   4.538  0.4754 -0.6234 -0.2241
   85MOL     C430412   4.640   3.882   4.401 -0.2669  0.5682 -0.0609
   85MOL     C530413   4.532   3.988   4.364  0.2139  0.8600 -0.2455
   85MOL     C630414   4.522   4.012   4.211 -0.2781  0.6134  0.3491
   85MOL     C730415   4.414   4.107   4.162 -0.1231 -0.0002 -0.5920
   85MOL     O830416   4.420   4.108   4.023  0.2498  0.2953 -0.3953
   85MOL     H930417   4.507   3.774   4.528 -0.1410 -0.1868  3.4526
   85MOL    H1030418   4.687   3.742   4.555  1.5282  0.9969  1.9170
   85MOL    H1130419   4.650   3.806   4.324  0.5160  1.6886 -1.0794
   85MOL    H1230420   4.734   3.937   4.408  0.2372 -0.2911 -0.0167
   85MOL    H1330421   4.552   4.074   4.427  2.0745  1.2404 -1.3110
   85MOL    H1430422   4.435   3.950   4.396 -0.1229 -0.5186 -2.7027
   85MOL    H1530423   4.510   3.916   4.160 -0.5826  0.5789  0.4897
   85MOL    H1630424   4.620   4.038   4.170  1.0132 -1.3467  2.1133
   85MOL    H1730425   4.317   4.068   4.193 -0.1451 -0.6041 -1.4008
   85MOL    H1830426   4.449   4.200   4.206  1.7924 -1.2075  0.5320
   85MOL    H1930427   4.671   3.886   4.744 -0.9358  0.2280  0.7209
   85MOL    C2030428   4.328   4.045   3.949  1.0355  0.6365  0.6614
   85MOL    O2130429   4.246   3.955   3.984  0.0003 -0.5837 -0.3976
   85MOL    C2230430   4.352   4.077   3.799 -0.8486 -0.7342 -0.3690
   85MOL    C2330431   4.264   3.999   3.700 -0.1914  0.9009  0.2250
   85MOL    C2430432   4.138   4.077   3.655 -0.2002 -0.5288 -0.3398
   85MOL    C2530433   4.039   4.074   3.765  0.1540 -0.8049 -0.3305
   85MOL    C2630434   3.925   4.181   3.750  0.1545 -0.2807  0.1619
   85MOL    O2730435   3.982   4.306   3.724  0.7801  0.4502 -0.3584
   85MOL    H2830436   4.457   4.064   3.774  0.1641  2.7090  1.8303
   85MOL    H2930437   4.345   4.185   3.794 -2.4533 -0.7903  0.2054
   85MOL    H3030438   4.237   3.901   3.741  0.6424  0.2514 -0.7660
   85MOL    H3130439   4.318   3.988   3.607 -1.4761  0.1047 -0.4390
   85MOL    H3230440   4.091   4.032   3.567 -1.8943  0.8617 -0.1744
   85MOL    H3330441   4.164   4.178   3.624  1.9027 -0.9385  0.0236
   85MOL    H3430442   4.088   4.105   3.857 -1.6447 -1.5752  0.9135
   85MOL    H3530443   4.006   3.971   3.774  0.5036 -0.8582  0.3590
   85MOL    H3630444   3.871   4.155   3.659  0.5606  0.8083 -0.4020
   85MOL    H3730445   3.850   4.189   3.829  1.6745 -0.5989  1.6644
   85MOL    C3830446   3.920   4.404   3.654  0.5138  0.2718 -0.9623
   85MOL    O3930447   3.798   4.403   3.619 -0.3598 -0.4988  0.2902
   85MOL    C4030448   4.011   4.521   3.614  0.2568 -0.2428  0.1237
   85MOL    C4130449   4.144   4.475   3.550 -0.1246  0.2447 -0.4170
   85MOL    C4230450   4.256   4.456   3.645  0.4494  0.1822  0.1439
   85MOL    C4330451   4.383   4.411   3.572  0.3954  0.1967 -0.5283
   85MOL    C4430452   4.500   4.452   3.659 -0.0113  0.2565  0.1446
   85MOL    O4530453   4.619   4.384   3.630 -0.3380 -0.6706  0.4935
   85MOL    H4630454   4.021   4.572   3.709 -0.0493  0.0986 -0.0261
   85MOL    H4730455   3.953   4.600   3.566  0.1411 -0.1017  0.4919
   85MOL    H4830456   4.175   4.556   3.483  1.5080  0.0681  0.0913
   85MOL    H4930457   4.137   4.385   3.488  0.1551  0.8135 -1.2887
   85MOL    H5030458   4.226   4.386   3.723 -0.7762  1.2085  0.6134
   85MOL    H5130459   4.270   4.554   3.690 -0.8933  2.1551 -3.5334
   85MOL    H5230460   4.403   4.470   3.482  0.1145 -0.3600 -0.9581
   85MOL    H5330461   4.384   4.307   3.541  0.8601  0.3253 -0.9527
   85MOL    H5430462   4.507   4.560   3.661  1.6804  0.1528  1.5429
   85MOL    H5530463   4.485   4.432   3.765 -0.1992  2.4923  0.5572
   85MOL    C5630464   4.748   4.429   3.660  0.5807  0.1422  0.4294
   85MOL    O5730465   4.770   4.542   3.697 -0.2927  0.0098  0.2752
   85MOL    C5830466   4.855   4.327   3.630  0.7452 -0.1325  0.1392
   85MOL    C5930467   5.004   4.378   3.649  0.3550 -0.3224 -0.8833
   85MOL    C6030468   5.047   4.391   3.792  0.2159  0.1303  0.4902
   85MOL    C6130469   5.197   4.438   3.817  0.0015 -0.7571  0.3382
   85MOL    C6230470   5.242   4.406   3.961 -0.9155 -0.3345 -0.0934
   85MOL    O6330471   5.246   4.276   3.989  0.2454  1.0224  0.4981
   85MOL    H6430472   4.845   4.266   3.540 -0.4089 -1.8202  1.3636
   85MOL    H6530473   4.840   4.243   3.698 -0.1650 -1.7817 -2.0470
   85MOL    H6630474   5.016   4.470   3.590 -2.6318  0.8011  0.1699
   85MOL    H6730475   5.077   4.315   3.599 -0.4246 -1.1532 -0.9865
   85MOL    H6830476   5.031   4.289   3.827 -0.9047  0.7006  1.6868
   85MOL    H6930477   4.973   4.447   3.849 -0.0169 -2.1933  2.5514
   85MOL    H7030478   5.204   4.546   3.803 -0.0908 -0.6862  0.8006
   85MOL    H7130479   5.258   4.382   3.747 -0.8986 -0.9141 -0.3386
   85MOL    H7230480   5.337   4.454   3.985 -1.9795  0.9823  1.5527
   85MOL    H7330481   5.161   4.446   4.021 -0.2125 -0.7707  1.1482
   85MOL    C7430482   5.351   4.193   3.970  0.2952  0.0757 -0.4403
   85MOL    O7530483   5.461   4.234   3.940 -0.5256  0.0713  0.1092
   85MOL    C7630484   5.326   4.041   3.971 -0.5325 -0.0647 -0.5316
   85MOL    C7730485   5.224   3.991   3.869 -0.8638 -0.6242 -0.1250
   85MOL    C7830486   5.266   3.987   3.725 -0.7689  0.0635  0.3410
   85MOL    C7930487   5.149   3.941   3.630 -0.3139 -0.2568 -0.2562
   85MOL    C8030488   5.207   3.887   3.506 -0.0665 -0.0713 -0.5234
   85MOL    O8130489   5.097   3.877   3.415  0.6669 -0.2281  0.1509
   85MOL    H8230490   5.302   4.015   4.074  0.6137 -0.8372 -0.4507
   85MOL    H8330491   5.423   3.993   3.956  0.7009  1.8731  0.8911
   85MOL    H8430492   5.138   4.057   3.883  0.9238  1.6226  0.4594
   85MOL    H8530493   5.180   3.896   3.901 -1.9729  0.2678  1.0761
   85MOL    H8630494   5.329   3.901   3.707 -1.9854 -0.1043 -3.6140
   85MOL    H8730495   5.317   4.075   3.685  2.6084 -0.9265  2.2804
   85MOL    H8830496   5.086   4.026   3.605 -1.7241 -1.4166 -0.6665
   85MOL    H8930497   5.083   3.866   3.673 -0.0832 -1.2741 -1.6582
   85MOL    H9030498   5.284   3.954   3.466  0.3975 -0.7629 -0.7956
   85MOL    H9130499   5.262   3.794   3.519  0.9898  0.5967 -0.1207
   85MOL    C9230500   5.107   3.888   3.285 -0.9120  1.0460  0.5473
   85MOL    O9330501   5.216   3.905   3.227  0.1067  0.1334  0.6540
   85MOL    C9430502   4.974   3.889   3.208  0.0653  0.0183  0.0818
   85MOL    C9530503   4.994   3.865   3.057  0.1109 -0.2637  0.3897
   85MOL    C9630504   4.870   3.811   2.990  0.3192 -0.3620  0.3370
   85MOL    C9730505   4.888   3.782   2.840  0.7786 -0.2213  0.1839
   85MOL    C9830506   4.765   3.817   2.755  0.5168  0.3261  0.0836
   85MOL    O9930507   4.652   3.747   2.810 -0.0497 -0.1633 -0.1572
   85MOL   H10030508   4.914   3.978   3.228 -1.8273 -0.8230 -1.6935
   85MOL   H10130509   4.918   3.806   3.251  1.8868  0.3971  3.3929
   85MOL   H10230510   5.078   3.799   3.036 -0.2910 -0.7591  0.3323
   85MOL   H10330511   5.021   3.957   3.005 -1.2858 -0.0711 -0.0192
   85MOL   H10430512   4.794   3.888   3.001 -0.5350 -0.9249 -1.3790
   85MOL   H10530513   4.831   3.724   3.042  1.6480 -0.8279  0.5638
   85MOL   H10630514   4.913   3.676   2.837 -0.1596 -0.4723  0.9772
   85MOL   H10730515   4.974   3.838   2.805 -0.2279  3.4993  3.3453
   85MOL   H10830516   4.743   3.923   2.767 -1.1773  0.1118 -0.9082
   85MOL   H10930517   4.783   3.790   2.651  0.7151  0.6008  0.0462
   85MOL   C11030518   4.554   3.708   2.729 -0.1897 -0.0684  0.3632
   85MOL   O11130519   4.557   3.697   2.611 -0.2613  0.4482  0.8370
   85MOL   C11230520   4.420   3.671   2.796 -0.8125 -0.0607  0.2849
   85MOL   C11330521   4.331   3.796   2.831 -0.8362  0.1233 -0.0903
   85MOL   C11430522   4.250   3.863   2.712  0.0266  0.1057 -0.0347
   85MOL   C11530523   4.145   3.768   2.652 -0.2739  0.1556  0.1330
   85MOL   C11630524   4.101   3.826   2.520  0.9358 -0.1338  0.7517
   85MOL   O11730525   4.007   3.736   2.455 -0.2029  0.1780  0.5195
   85MOL   H11830526   4.439   3.619   2.889 -2.7862 -0.9028  0.2463
   85MOL   H11930527   4.354   3.619   2.726 -0.6111  0.4135 -0.2685
   85MOL   H12030528   4.398   3.866   2.882 -1.2682 -1.3918  2.6483
   85MOL   H12130529   4.260   3.769   2.909  0.0651  0.0060  0.7060
   85MOL   H12230530   4.317   3.908   2.638  1.6770 -1.3125  0.5745
   85MOL   H12330531   4.207   3.959   2.742  1.2392  0.0934  1.8218
   85MOL   H12430532   4.058   3.758   2.716  0.4324 -2.8397  0.6937
   85MOL   H12530533   4.185   3.667   2.641  0.1586  0.1907  1.3485
   85MOL   H12630534   4.056   3.926   2.523  0.9949 -0.0990  0.5432
   85MOL   H12730535   4.194   3.827   2.463  0.1741  0.6780 -0.5210
   85MOL   C12830536   3.967   3.770   2.324  0.5147  0.6959  0.4497
   85MOL   O12930537   3.983   3.881   2.269  0.3316 -0.2924  0.1099
   85MOL   C13030538   3.908   3.652   2.238 -0.4231  0.0876  0.0749
   85MOL   C13130539   3.768   3.612   2.282 -0.0183  0.5678 -0.1199
   85MOL   C13230540   3.649   3.700   2.229 -0.0908 -0.6195  0.4660
   85MOL   C13330541   3.510   3.661   2.285 -0.3485 -0.3242 -0.2556
   85MOL   C13430542   3.396   3.725   2.195 -0.3265 -0.4627  0.4549
   85MOL   O13530543   3.421   3.864   2.168 -0.0854  0.0901  0.3995
   85MOL   H13630544   3.964   3.562   2.262 -1.6056 -0.7129 -0.1651
   85MOL   H13730545   3.915   3.653   2.129 -0.0161 -0.7212  0.0925
   85MOL   H13830546   3.762   3.617   2.391 -1.4829  0.8603 -0.1978
   85MOL   H13930547   3.749   3.506   2.266  0.9486  0.2557  0.7757
   85MOL   H14030548   3.655   3.689   2.121 -0.4098  1.6414  0.1918
   85MOL   H14130549   3.660   3.808   2.241  2.5539 -0.3449 -3.3227
   85MOL   H14230550   3.510   3.696   2.388 -3.0222 -4.1677  1.1857
   85MOL   H14330551   3.499   3.552   2.287  1.1141 -0.4979 -0.7781
   85MOL   H14430552   3.397   3.678   2.096  1.0294 -1.1506  0.7820
   85MOL   H14530553   3.301   3.695   2.237 -0.1617 -0.8490  0.5536
   85MOL   C14630554   3.397   3.952   2.267  0.1414 -0.8826  0.1460
   85MOL   O14730555   3.338   3.916   2.369 -0.0808  0.6404  0.3303
   85MOL   C14830556   3.440   4.095   2.254 -0.1199 -0.3577 -0.0575
   85MOL   C14930557   3.589   4.109   2.272 -0.4230 -1.0959 -0.8113
   85MOL   C15030558   3.625   4.260   2.298  0.4441  0.3906  0.4827
   85MOL   C15130559   3.620   4.346   2.169  0.1055  0.1013 -0.6880
   85MOL   C15230560   3.680   4.483   2.206 -0.4275  0.4669  0.2069
   85MOL   O15330561   3.615   4.551   2.313  1.0246  0.5201  0.0602
   85MOL   H15430562   3.397   4.153   2.335  1.1647 -1.9125  1.7644
   85MOL   H15530563   3.415   4.146   2.161 -0.9156 -0.5750  0.0400
   85MOL   H15630564   3.643   4.080   2.181  0.7908  2.9250 -1.4773
   85MOL   H15730565   3.633   4.061   2.359 -2.4348 -0.6746  0.4411
   85MOL   H15830566   3.729   4.269   2.332  0.9271 -0.4886 -0.7331
   85MOL   H15930567   3.558   4.294   2.377 -1.0397 -1.8631  0.2155
   85MOL   H16030568   3.517   4.364   2.138 -0.1431 -2.1270 -1.2665
   85MOL   H16130569   3.663   4.297   2.082 -0.1288  2.1018 -1.9693
   85MOL   H16230570   3.782   4.458   2.234 -0.0156  1.7086 -0.1157
   85MOL   H16330571   3.688   4.543   2.115  1.4188  0.5499  0.4068
   85MOL   C16430572   3.537   4.656   2.284 -0.3932 -0.4490 -0.1556
   85MOL   O16530573   3.520   4.702   2.173 -0.5808 -0.5947  0.3279
   85MOL   C16630574   3.483   4.725   2.411 -0.0800 -0.1277  0.2166
   85MOL   C16730575   3.330   4.756   2.410  0.6300  0.1060 -0.8042
   85MOL   C16830576   3.261   4.634   2.473  0.2517  0.0532 -0.5260
   85MOL   C16930577   3.114   4.652   2.489  0.1159  0.2919 -0.3219
   85MOL   C17030578   3.045   4.568   2.596  0.2067  0.1636  0.3786
   85MOL   O17130579   2.906   4.553   2.568  0.2387  0.2668 -0.3713
   85MOL   H17230580   3.542   4.816   2.415  0.3816 -0.3340 -1.4592
   85MOL   H17330581   3.503   4.664   2.500 -1.9142 -1.6883 -0.4174
   85MOL   H17430582   3.277   4.768   2.316 -3.3005 -1.0716  1.1404
   85MOL   H17530583   3.319   4.848   2.467 -0.8954 -0.8971  0.5786
   85MOL   H17630584   3.293   4.632   2.578 -2.3902 -1.0852  0.2892
   85MOL   H17730585   3.291   4.537   2.433  2.1262 -0.0895  1.0941
   85MOL   H17830586   3.061   4.629   2.397  0.1309 -0.3381 -0.1753
   85MOL   H17930587   3.082   4.754   2.508  0.4290  0.0470  1.5829
   85MOL   H18030588   3.094   4.472   2.610  0.5138  0.2422 -0.1761
   85MOL   H18130589   3.045   4.613   2.695 -2.0158 -0.9425  0.9311
   85MOL   C18230590   2.821   4.653   2.580 -0.6385 -0.2528  0.8857
   85MOL   O18330591   2.850   4.766   2.631 -0.1354 -0.6773  0.0517
   85MOL   C18430592   2.675   4.613   2.538 -0.0359  0.0496 -0.2737
   85MOL   C18530593   2.595   4.711   2.452 -0.0794 -0.0444 -0.1363
   85MOL   C18630594   2.658   4.781   2.330  0.1276 -0.4215  0.5697
   85MOL   C18730595   2.724   4.688   2.229  0.5381  0.4543 -0.1362
   85MOL   C18830596   2.630   4.621   2.138 -0.3473 -0.1580  0.3070
   85MOL   O18930597   2.708   4.534   2.056  0.3149  0.5415 -0.3147
   85MOL   H19030598   2.617   4.594   2.628 -0.1474  2.6111  0.2113
   85MOL   H19130599   2.681   4.515   2.490 -2.4589  0.1876 -0.9012
   85MOL   H19230600   2.547   4.791   2.508  1.9695 -0.0494  1.7133
   85MOL   H19330601   2.518   4.643   2.416  1.2401 -1.5725 -0.1457
   85MOL   H19430602   2.725   4.864   2.351  1.3270 -1.8893  2.7099
   85MOL   H19530603   2.584   4.829   2.265 -0.9096 -2.2104  0.3910
   85MOL   H19630604   2.777   4.619   2.295 -0.6104  0.4272  0.7655
   85MOL   H19730605   2.793   4.750   2.172 -0.6548  1.6711 -0.2726
   85MOL   H19830606   2.565   4.566   2.206 -0.1649  0.1175  0.6997
   85MOL   H19930607   2.572   4.687   2.074  0.5561 -0.1612 -0.5256
   85MOL   C20030608   2.643   4.428   2.003  0.3938  0.3734 -0.3293
   85MOL   O20130609   2.520   4.417   1.994  0.5213  0.6265  0.0734
   85MOL   C20230610   2.742   4.317   1.963 -0.0144  0.4077  0.0985
   85MOL   C20330611   2.775   4.213   2.073  0.2666 -0.3238 -0.1486
   85MOL   C20430612   2.846   4.269   2.197 -0.3590  0.1129  0.5914
   85MOL   C20530613   2.865   4.169   2.315 -0.2588 -0.3817  0.1351
   85MOL   C20630614   2.950   4.223   2.434  0.2424  0.4865  0.2131
   85MOL   O20730615   2.958   4.128   2.542  0.6871  0.7685  0.9365
   85MOL   H20830616   2.833   4.361   1.923 -0.9935  0.1567 -2.4916
   85MOL   H20930617   2.681   4.260   1.893 -0.8948  1.2346  0.1771
   85MOL   H21030618   2.836   4.133   2.032  0.8130 -0.1134  0.2495
   85MOL   H21130619   2.687   4.161   2.111 -0.3673 -0.0660 -1.2234
   85MOL   H21230620   2.776   4.339   2.243 -1.2426 -0.0701 -0.4529
   85MOL   H21330621   2.937   4.323   2.170 -1.6545  1.9728 -0.1769
   85MOL   H21430622   2.923   4.080   2.290  0.2668 -0.2690  0.9193
   85MOL   H21530623   2.765   4.135   2.340  0.6579 -3.4582 -0.1774
   85MOL   H21630624   3.054   4.248   2.414  0.8664 -0.1238  2.4904
   85MOL   H21730625   2.904   4.317   2.468 -0.4475 -0.3472  1.6492
   85MOL   C21830626   3.015   4.149   2.660 -0.1942  0.2876 -0.2114
   85MOL   O21930627   3.063   4.257   2.697 -0.2317  0.3891  0.3786
   85MOL   C22030628   3.018   4.034   2.764 -0.4813  0.1196 -0.5009
   85MOL   C22130629   3.079   3.909   2.706  0.3791  0.5822 -0.1584
   85MOL   C22230630   3.230   3.924   2.692  0.0507 -0.6466 -0.4145
   85MOL   C22330631   3.280   3.778   2.664 -0.1129  0.0289  0.5077
   85MOL   C22430632   3.430   3.756   2.671  0.2570 -0.2000  0.3243
   85MOL   O22530633   3.473   3.634   2.719 -0.1472 -0.0361  0.1484
   85MOL   H22630634   2.914   4.012   2.784 -0.1316 -0.4686  0.6907
   85MOL   H22730635   3.068   4.067   2.855  0.3510  0.3786 -1.0443
   85MOL   H22830636   3.023   3.888   2.614  0.4032 -1.4679  0.2657
   85MOL   H22930637   3.047   3.824   2.767 -2.7140  2.0403  0.3489
   85MOL   H23030638   3.282   3.964   2.779  1.0072 -2.3355 -0.1939
   85MOL   H23130639   3.260   4.001   2.621  1.6744 -3.1713 -2.5495
   85MOL   H23230640   3.241   3.751   2.566  0.6446 -2.4739  0.8541
   85MOL   H23330641   3.227   3.711   2.731  1.8170 -0.5614  1.4703
   85MOL   H23430642   3.473   3.790   2.577 -1.4661 -0.3494 -0.5158
   85MOL   H23530643   3.470   3.827   2.744  1.7593  0.5180 -1.1698
   85MOL   C23630644   3.605   3.604   2.687  0.1910 -0.1445 -0.0332
   85MOL   O23730645   3.695   3.676   2.640 -0.0819 -0.9887 -0.2052
   85MOL   C23830646   3.638   3.454   2.701 -0.3955  0.6327  0.4629
   85MOL   C23930647   3.790   3.414   2.699  0.4749  0.2800 -0.3996
   85MOL   C24030648   3.861   3.466   2.825  0.4038 -0.0614  0.0057
   85MOL   C24130649   4.003   3.416   2.828 -0.1583  0.1710 -0.1138
   85MOL   C24230650   4.072   3.497   2.930  0.6741 -0.3039 -0.3710
   85MOL   O24330651   4.208   3.460   2.932 -0.2608  0.1075 -0.0601
   85MOL   H24430652   3.587   3.401   2.621 -2.3050  1.8694  0.8246
   85MOL   H24530653   3.590   3.427   2.796  0.1038 -0.0559  0.5264
   85MOL   H24630654   3.836   3.452   2.608  2.8714 -1.3580  0.0906
   85MOL   H24730655   3.792   3.306   2.685  0.2813  0.2428 -0.1547
   85MOL   H24830656   3.816   3.423   2.915 -1.0581  1.2853 -0.0655
   85MOL   H24930657   3.851   3.574   2.826 -1.7137 -0.2417  1.5845
   85MOL   H25030658   4.051   3.426   2.730 -0.7952 -1.3231 -0.5881
   85MOL   H25130659   4.003   3.311   2.856  1.0951  0.5475  1.3531
   85MOL   H25230660   4.069   3.603   2.907 -1.2524 -0.3556 -0.4526
   85MOL   H25330661   4.026   3.492   3.028 -1.0495  1.5648 -1.0642
   85MOL   C25430662   4.266   3.462   3.045  0.1791 -0.6797  0.0133
   85MOL   O25530663   4.216   3.483   3.157 -0.3030 -0.0165 -0.6290
   85MOL   C25630664   4.408   3.409   3.038 -0.6735  0.0572 -0.4609
   85MOL   C25730665   4.506   3.467   3.145 -0.4190 -0.0739  0.4881
   85MOL   C25830666   4.525   3.619   3.156 -0.0535  0.2011  1.2149
   85MOL   C25930667   4.614   3.674   3.268  0.4555  0.4059  0.7857
   85MOL   C26030668   4.599   3.827   3.280  0.0633  0.5729 -0.1768
   85MOL   O26130669   4.671   3.869   3.392  0.3180 -0.3749  0.1435
   85MOL   H26230670   4.456   3.443   2.946  1.6903  0.1019  0.7470
   85MOL   H26330671   4.400   3.301   3.028 -1.0137  0.1982 -1.9497
   85MOL   H26430672   4.605   3.425   3.129 -0.2257  0.4766  0.2202
   85MOL   H26530673   4.484   3.425   3.243  0.8983 -0.6689  0.5410
   85MOL   H26630674   4.426   3.665   3.155  0.9728  2.5014  1.3646
   85MOL   H26730675   4.568   3.655   3.062 -1.6279 -0.1971  0.3045
   85MOL   H26830676   4.719   3.647   3.262  0.6236  1.2481 -0.2236
   85MOL   H26930677   4.572   3.629   3.358  0.8273  1.7813  1.6671
   85MOL   H27030678   4.640   3.885   3.198 -1.6178 -0.1524 -1.5664
   85MOL   H27130679   4.496   3.860   3.293 -0.7732 -1.7279 -0.6767
   85MOL   C27230680   4.632   3.976   3.453  0.6821 -0.2679  0.0276
   85MOL   O27330681   4.531   4.042   3.442  0.2420 -0.7722  0.1823
   85MOL   C27430682   4.736   4.012   3.556 -0.0435 -0.1406 -0.1057
   85MOL   C27530683   4.745   3.901   3.661  0.6300 -0.3823 -0.3579
   85MOL   C27630684   4.767   3.965   3.793  0.0815 -0.0989 -0.2941
   85MOL   C27730685   4.784   3.856   3.904  0.1460  0.6441 -0.0459
   85MOL   C27830686   4.865   3.916   4.021 -0.2029  0.4347 -0.1991
   85MOL   O27930687   4.830   4.052   4.050  0.0874 -0.2072 -0.1688
   85MOL   H28030688   4.695   4.103   3.600 -1.0172 -0.2463 -0.7788
   85MOL   H28130689   4.836   4.031   3.518  0.6938 -3.9263 -0.2502
   85MOL   H28230690   4.827   3.837   3.627  0.3156  0.0249 -1.9260
   85MOL   H28330691   4.661   3.832   3.669  1.8939 -2.4846 -3.8039
   85MOL   H28430692   4.685   4.031   3.823 -1.1355 -1.5492 -0.3362
   85MOL   H28530693   4.861   4.020   3.782 -0.1690  0.4065  0.0292
   85MOL   H28630694   4.827   3.765   3.862  0.4416  0.3252  0.9480
   85MOL   H28730695   4.683   3.827   3.929  0.5440 -0.4473  0.3097
   85MOL   H28830696   4.852   3.852   4.109  0.6791  1.1714  0.4736
   85MOL   H28930697   4.970   3.919   3.992  0.0294  2.5298  0.7704
   85MOL   C29030698   4.912   4.126   4.128 -0.2749  0.0506  0.3386
   85MOL   O29130699   5.018   4.086   4.180  0.3818  0.1399 -0.3448
   85MOL   C29230700   4.867   4.272   4.145  0.2662 -0.4969  0.5748
   85MOL   C29330701   4.721   4.305   4.163  0.0841  0.3566  0.2815
   85MOL   C29430702   4.691   4.452   4.136 -0.3571 -0.1596 -0.5057
   85MOL   C29530703   4.554   4.482   4.081  0.2099 -0.1434  0.3824
   85MOL   C29630704   4.441   4.498   4.177  0.1227  0.3354 -0.6643
   85MOL   O29730705   4.324   4.551   4.115  0.2702 -0.2255  0.2135
   85MOL   H29830706   4.895   4.324   4.053 -0.9041 -0.1379  0.4152
   85MOL   H29930707   4.932   4.319   4.220  0.0727 -1.2603  1.2234
   85MOL   H30030708   4.670   4.290   4.258 -0.0920 -0.6580  0.0366
   85MOL   H30130709   4.661   4.249   4.091  0.0097  2.9962 -1.7902
   85MOL   H30230710   4.759   4.481   4.056  1.2625  0.3083  1.0266
   85MOL   H30330711   4.714   4.509   4.226 -2.1505 -0.1833 -0.0082
   85MOL   H30430712   4.523   4.406   4.009 -1.5322 -0.6953  1.6982
   85MOL   H30530713   4.559   4.575   4.024 -0.0157  0.0790  0.7280
   85MOL   H30630714   4.430   4.398   4.220 -0.0120  0.6668  0.0936
   85MOL   H30730715   4.464   4.563   4.262 -0.3745 -0.7057  0.2778
   85MOL   C30830716   4.219   4.467   4.089  0.6502 -0.2214  0.2855
   85MOL   O30930717   4.203   4.355   4.128  0.2515 -0.1158  0.0943
   85MOL   C31030718   4.116   4.536   3.999 -0.5330 -0.1098 -0.7534
   85MOL   C31130719   3.990   4.589   4.076  0.4275 -0.3136 -0.6160
   85MOL   C31230720   3.910   4.482   4.145  0.4155  0.3678 -0.0011
   85MOL   C31330721   3.769   4.533   4.183  0.9132 -0.3481 -0.3799
   85MOL   C31430722   3.701   4.437   4.289 -0.0201  0.5347  0.3631
   85MOL   O31530723   3.628   4.340   4.214 -0.1167  0.2574 -0.0735
   85MOL   H31630724   4.107   4.463   3.919  1.2970 -0.4120 -0.7168
   85MOL   H31730725   4.150   4.620   3.937 -0.2976 -1.1264 -2.0136
   85MOL   H31830726   3.923   4.649   4.015  0.7242 -0.3224 -0.9536
   85MOL   H31930727   4.025   4.649   4.160  0.4094 -1.4505  0.2209
   85MOL   H32030728   3.959   4.426   4.224 -0.4901 -0.3158  0.0812
   85MOL   H32130729   3.885   4.405   4.072  1.1513 -0.0881  0.2286
   85MOL   H32230730   3.703   4.576   4.109  0.4349  0.6939  0.6427
   85MOL   H32330731   3.793   4.626   4.235  0.4183 -0.4959  0.1169
   85MOL   H32430732   3.771   4.397   4.361  1.6308 -0.2165 -1.5960
   85MOL   H32530733   3.639   4.508   4.344 -1.2224 -1.2762  1.3548
   85MOL   C32630734   3.498   4.348   4.184 -0.1995  0.4437 -1.2049
   85MOL   O32730735   3.428   4.439   4.216  0.2861 -0.6457 -0.8332
   85MOL   C32830736   3.440   4.237   4.104  0.0697  0.5764 -0.2651
   85MOL   C32930737   3.491   4.232   3.960  0.0101 -0.0550  0.0143
   85MOL   C33030738   3.432   4.352   3.876  0.1786  0.6228  0.0998
   85MOL   C33130739   3.479   4.344   3.728  0.4259 -0.1616  0.2891
   85MOL   C33230740   3.380   4.419   3.631 -0.7809 -0.2644  0.0474
   85MOL   O33330741   3.247   4.388   3.665  0.2901 -0.1460 -0.3725
   85MOL   H33430742   3.333   4.229   4.121 -0.3315 -1.6456 -3.3523
   85MOL   H33530743   3.471   4.154   4.168  0.2249 -1.1674 -2.5440
   85MOL   H33630744   3.448   4.142   3.917  0.2759 -0.8215  1.3066
   85MOL   H33730745   3.599   4.224   3.956  0.2574  2.9607 -0.6621
   85MOL   H33830746   3.457   4.454   3.906 -0.2832  0.9591 -0.6452
   85MOL   H33930747   3.325   4.335   3.886  0.3679 -0.1972  0.7826
   85MOL   H34030748   3.483   4.245   3.684  2.8062 -0.2244  0.6135
   85MOL   H34130749   3.578   4.387   3.712  0.4700 -0.8107 -1.2156
   85MOL   H34230750   3.387   4.528   3.628  1.1534 -0.3733 -0.3299
   85MOL   H34330751   3.405   4.398   3.527  0.5282  2.0444 -0.1382
   85MOL   C34430752   3.146   4.451   3.592  0.1573  0.7715  0.0398
   85MOL   O34530753   3.167   4.544   3.515  0.5282 -0.3512  0.3296
   85MOL   C34630754   3.006   4.391   3.622  0.6350 -0.2899 -0.0934
   85MOL   C34730755   2.940   4.451   3.751  0.1748 -0.4203  0.3265
   85MOL   C34830756   2.870   4.589   3.730 -0.3488 -0.1082  0.6822
   85MOL   C34930757   2.822   4.643   3.864 -0.2916  0.3616 -0.9025
   85MOL   C35030758   2.772   4.786   3.854 -0.3903 -0.7518 -0.5996
   85MOL   O35130759   2.701   4.832   3.974  0.1404 -0.2307 -0.7379
   85MOL   H35230760   3.021   4.283   3.630 -0.6626 -0.5928 -1.5995
   85MOL   H35330761   2.950   4.411   3.531 -3.2561  3.8992  2.9787
   85MOL   H35430762   3.018   4.453   3.827  0.9375  0.3937 -0.4483
   85MOL   H35530763   2.868   4.373   3.773  0.6997 -1.2272 -0.7174
   85MOL   H35630764   2.782   4.567   3.670  1.4398  1.0825 -2.5640
   85MOL   H35730765   2.930   4.662   3.675 -0.4395  0.8811  1.8922
   85MOL   H35830766   2.900   4.634   3.939  0.5132 -0.2155 -1.8046
   85MOL   H35930767   2.739   4.585   3.905  0.1753  0.3179 -0.0065
   85MOL   H36030768   2.848   4.862   3.837  1.0104 -2.1835 -0.7771
   85MOL   H36130769   2.700   4.783   3.772 -0.6559 -1.9548 -0.3359
   85MOL   H36230770   2.750   4.802   4.049 -0.0473 -2.4547 -1.4556
   86MOL     C130771   3.997   5.373   0.483 -0.3573 -0.1506  0.1208
   86MOL     O230772   3.961   5.266   0.434  0.2097  0.7716  0.8717
   86MOL     C330773   4.129   5.385   0.552  0.0541  0.7379  0.3841
   86MOL     C430774   4.242   5.301   0.479 -0.6458 -0.0196 -0.1393
   86MOL     C530775   4.289   5.370   0.354  0.1333  0.3039 -0.3253
   86MOL     C630776   4.392   5.292   0.274 -0.4192 -0.2372  0.5046
   86MOL     C730777   4.531   5.277   0.344  0.0241  0.8216 -0.1873
   86MOL     O830778   4.635   5.219   0.260  0.4658  0.0549  0.0030
   86MOL     H930779   4.104   5.323   0.638  4.1478 -0.6850  0.6541
   86MOL    H1030780   4.161   5.486   0.577  1.6725  0.4847 -0.5386
   86MOL    H1130781   4.202   5.202   0.455 -1.4757  0.7732 -2.1128
   86MOL    H1230782   4.331   5.279   0.537  0.0635  0.1286 -1.1602
   86MOL    H1330783   4.320   5.474   0.360  2.0699 -0.1765 -1.4825
   86MOL    H1430784   4.201   5.375   0.290  1.2730 -0.4096 -1.9899
   86MOL    H1530785   4.402   5.332   0.174 -0.5150  1.0862  1.0230
   86MOL    H1630786   4.356   5.189   0.264  1.3672 -1.0784  2.3423
   86MOL    H1730787   4.563   5.378   0.370 -0.6090  0.9155  0.2245
   86MOL    H1830788   4.530   5.223   0.438 -0.3525 -0.8794 -1.1582
   86MOL    H1930789   3.952   5.472   0.472 -0.4982  0.1471  2.9266
   86MOL    C2030790   4.696   5.299   0.177 -0.5360  0.5476 -0.0062
   86MOL    O2130791   4.663   5.411   0.151  0.6442  0.1212 -0.0755
   86MOL    C2230792   4.827   5.238   0.121 -0.6280  0.1607 -0.0956
   86MOL    C2330793   4.926   5.211   0.235 -0.3792  0.1275 -0.0668
   86MOL    C2430794   4.983   5.322   0.326 -0.5889  0.3273 -0.3269
   86MOL    C2530795   5.097   5.283   0.415 -0.4465  0.1762  0.5090
   86MOL    C2630796   5.059   5.181   0.514 -0.4657 -0.1434 -0.7136
   86MOL    O2730797   4.982   5.245   0.609  0.5548 -0.1141 -0.2722
   86MOL    H2830798   4.866   5.302   0.041  0.2186 -0.4702 -0.1935
   86MOL    H2930799   4.804   5.139   0.084  0.0378 -0.7363  1.8327
   86MOL    H3030800   5.012   5.154   0.201 -0.4644 -0.1201  0.1328
   86MOL    H3130801   4.873   5.144   0.303 -1.7990  0.9127 -0.3732
   86MOL    H3230802   4.901   5.371   0.378 -2.3775 -1.1653 -1.6689
   86MOL    H3330803   5.022   5.402   0.263  2.1035  0.6643  1.7058
   86MOL    H3430804   5.135   5.369   0.470  0.1357  0.3246 -0.1182
   86MOL    H3530805   5.179   5.258   0.348  0.5292  2.1721  0.9182
   86MOL    H3630806   4.993   5.107   0.470 -0.2996 -0.7345  0.0290
   86MOL    H3730807   5.145   5.134   0.561 -0.3764  0.0715 -0.6609
   86MOL    C3830808   4.855   5.208   0.639 -0.0834  0.2248  0.5213
   86MOL    O3930809   4.787   5.124   0.578 -0.0986  0.0549  0.2684
   86MOL    C4030810   4.798   5.290   0.747 -0.0270  0.3215  0.2656
   86MOL    C4130811   4.798   5.445   0.710 -0.0588  0.0009  0.1545
   86MOL    C4230812   4.699   5.479   0.605 -0.1149 -0.0821 -1.1536
   86MOL    C4330813   4.699   5.629   0.566 -0.8695 -0.0547  0.3651
   86MOL    C4430814   4.793   5.667   0.442  0.2168  0.1515 -0.7097
   86MOL    O4530815   4.922   5.667   0.493 -0.5701 -0.0620  0.1434
   86MOL    H4630816   4.853   5.270   0.839 -1.4172  0.1341  1.0767
   86MOL    H4730817   4.696   5.255   0.767  1.1856 -3.5083  0.0252
   86MOL    H4830818   4.900   5.474   0.686 -0.5439  1.7070  0.1189
   86MOL    H4930819   4.788   5.506   0.800 -1.0357 -1.0006  0.7392
   86MOL    H5030820   4.601   5.466   0.651 -0.3387  0.9378 -1.3267
   86MOL    H5130821   4.700   5.413   0.518  1.9484 -2.8877  0.9030
   86MOL    H5230822   4.730   5.694   0.647 -1.9777 -1.9321  2.3446
   86MOL    H5330823   4.600   5.665   0.537 -0.2566  1.9511  0.7006
   86MOL    H5430824   4.774   5.591   0.366 -1.4636  0.4873 -0.6529
   86MOL    H5530825   4.761   5.767   0.412 -2.9356 -0.9653 -1.3132
   86MOL    C5630826   5.014   5.694   0.402 -0.5572 -0.9740  0.2353
   86MOL    O5730827   4.987   5.722   0.286  0.9081  0.0751  0.2654
   86MOL    C5830828   5.153   5.692   0.459 -0.1302  0.1482  0.2725
   86MOL    C5930829   5.261   5.668   0.348 -0.4097  0.7227 -0.3769
   86MOL    C6030830   5.401   5.649   0.397 -0.2901  0.1637 -0.3246
   86MOL    C6130831   5.496   5.674   0.283  0.0405 -0.0839  0.0808
   86MOL    C6230832   5.518   5.558   0.189 -0.1566 -0.2961  0.4063
   86MOL    O6330833   5.588   5.600   0.074  0.1267  0.0878  0.3412
   86MOL    H6430834   5.152   5.629   0.548  1.5335  1.6578  1.3979
   86MOL    H6530835   5.163   5.797   0.484  1.0270  0.1237 -0.0399
   86MOL    H6630836   5.247   5.757   0.286 -3.4033 -0.2289 -1.1723
   86MOL    H6730837   5.233   5.588   0.280  2.1842 -0.4353 -0.1342
   86MOL    H6830838   5.422   5.547   0.431 -0.8334 -0.7507 -2.6161
   86MOL    H6930839   5.412   5.715   0.483 -2.4702  0.3787 -0.1929
   86MOL    H7030840   5.591   5.694   0.332  0.7071 -0.2912 -1.1220
   86MOL    H7130841   5.475   5.765   0.227  3.2302 -0.6564 -2.1506
   86MOL    H7230842   5.560   5.469   0.236  0.6250  0.9506  2.1361
   86MOL    H7330843   5.424   5.516   0.152 -0.1571 -1.4213  1.6441
   86MOL    C7430844   5.713   5.639   0.065  0.0775 -0.0214 -0.3863
   86MOL    O7530845   5.795   5.639   0.157  0.0927  0.6637 -0.2812
   86MOL    C7630846   5.749   5.679   7.761  0.5574  0.3605  0.1754
   86MOL    C7730847   5.871   5.776   7.757  0.3399  0.9384  0.7360
   86MOL    C7830848   6.017   5.713   7.767 -0.2507 -0.0773  0.0374
   86MOL    C7930849   6.040   5.630   7.636 -0.0227  1.1441  1.2972
   86MOL    C8030850   6.173   5.552   7.633 -0.8782  0.1798  0.1744
   86MOL    O8130851   6.285   5.639   7.617  0.5864 -0.4663 -0.5836
   86MOL    H8230852   5.672   5.750   7.730  1.2248 -0.1079 -2.7334
   86MOL    H8330853   5.750   5.593   7.694 -2.5579  0.1377  0.3244
   86MOL    H8430854   5.860   5.853   7.833 -2.3463  1.2945  0.0190
   86MOL    H8530855   5.856   5.830   7.663 -3.8612 -0.9640  0.2413
   86MOL    H8630856   6.026   5.656   0.015  0.1044 -1.3672 -0.7883
   86MOL    H8730857   6.099   5.784   7.782  0.4564 -1.0179  0.6260
   86MOL    H8830858   6.048   5.701   7.554  0.8485 -0.0023  0.3785
   86MOL    H8930859   5.959   5.560   7.619  2.0508 -0.9889 -0.0350
   86MOL    H9030860   6.189   5.493   7.723  0.6444 -1.8687 -1.3882
   86MOL    H9130861   6.167   5.480   7.550 -1.1862  0.9832 -0.5114
   86MOL    C9230862   6.315   5.678   7.490  0.9021 -0.1587 -0.1549
   86MOL    O9330863   6.253   5.634   7.391  0.1849  0.3931  0.7755
   86MOL    C9430864   6.445   5.766   7.481  0.8384 -0.4306  0.1504
   86MOL    C9530865   6.573   5.699   7.515 -0.3768  0.1506 -0.5065
   86MOL    C9630866   6.586   5.575   7.419 -1.0279 -0.1490 -0.8941
   86MOL    C9730867   6.714   5.491   7.457 -0.2025  0.2485 -0.7086
   86MOL    C9830868   6.734   5.384   7.354  0.0793 -0.2522 -0.0331
   86MOL    O9930869   6.845   5.302   7.380 -0.1049  0.4281  0.2682
   86MOL   H10030870   6.429   5.852   7.547  0.3131 -0.0305 -0.4847
   86MOL   H10130871   6.444   5.800   7.378 -2.9293  0.2247  0.3338
   86MOL   H10230872   6.561   5.677   7.621 -1.8551  2.0948 -0.2300
   86MOL   H10330873   6.656   5.768   7.502 -0.5449  0.5300  0.3860
   86MOL   H10430874   6.588   5.604   7.314  1.2078  0.9373 -0.5844
   86MOL   H10530875   6.508   5.500   7.434  0.0545 -1.1505 -0.2624
   86MOL   H10630876   6.717   5.450   7.558  1.7285 -1.5219 -1.4546
   86MOL   H10730877   6.803   5.555   7.454 -1.0133  1.3794 -1.0405
   86MOL   H10830878   6.642   5.325   7.346  1.7581 -2.5447 -3.4003
   86MOL   H10930879   6.736   5.430   7.255  3.3273  0.5126  0.3368
   86MOL   C11030880   6.967   5.334   7.316  0.5270 -0.1144 -0.5670
   86MOL   O11130881   6.981   5.409   7.221 -0.2631 -0.6198  0.6886
   86MOL   C11230882   7.088   5.264   7.380  0.1893 -0.7502  0.2277
   86MOL   C11330883   7.207   5.361   7.399 -0.1776 -0.0729 -0.8392
   86MOL   C11430884   7.342   5.296   7.356 -0.0753  0.2892  0.1288
   86MOL   C11530885   7.468   5.390   7.364 -0.1382  0.5846 -0.1904
   86MOL   C11630886   7.600   5.308   7.341  0.9311  0.4707  0.2989
   86MOL   O11730887   7.704   5.377   7.397 -0.8930  0.1584  0.0080
   86MOL   H11830888   7.116   5.189   7.305  0.2931  0.4761 -0.9777
   86MOL   H11930889   7.061   5.216   7.474  1.2169  1.3276  1.6166
   86MOL   H12030890   7.226   5.388   7.503 -1.0380 -1.3632 -0.3323
   86MOL   H12130891   7.195   5.460   7.357  0.5632  0.6139  0.5403
   86MOL   H12230892   7.328   5.258   7.255  0.0769  1.4207 -0.3232
   86MOL   H12330893   7.361   5.211   7.422 -1.1837  0.0278  0.1262
   86MOL   H12430894   7.467   5.444   7.459  0.9234  0.9789 -0.4063
   86MOL   H12530895   7.465   5.466   7.286 -0.7274 -1.3233 -2.0861
   86MOL   H12630896   7.599   5.210   7.389 -1.3408 -0.8075 -2.2043
   86MOL   H12730897   7.609   5.286   7.235 -2.6485 -0.7749  0.1713
   86MOL   C12830898   7.794   5.449   7.325  0.2459 -0.3767  0.0281
   86MOL   O12930899   7.806   5.436   7.204 -0.5270 -0.8028  0.2685
   86MOL   C13030900   0.017   5.558   7.402 -0.6087  0.3034  0.4752
   86MOL   C13130901   0.000   5.550   7.558 -0.3830  0.6302  0.0217
   86MOL   C13230902   0.088   5.642   7.638  0.1036 -0.2791 -0.2805
   86MOL   C13330903   0.058   5.636   7.787 -0.5136 -0.4656 -0.4927
   86MOL   C13430904   0.103   5.755   0.027 -0.1087 -0.2390  0.3783
   86MOL   O13530905   0.050   5.733   0.154  1.0400  0.0156 -0.2421
   86MOL   H13630906   7.820   5.649   7.356  0.4946  0.7487  0.3628
   86MOL   H13730907   0.125   5.558   7.390 -0.6732 -1.3292 -0.1132
   86MOL   H13830908   0.035   5.452   7.588 -2.1614 -0.4937 -1.4629
   86MOL   H13930909   7.739   5.560   7.583 -0.7019 -2.3271  0.0241
   86MOL   H14030910   0.077   5.746   7.606 -3.7584 -0.1754  1.1497
   86MOL   H14130911   0.193   5.617   7.618 -0.6603 -4.1694  0.1418
   86MOL   H14230912   0.087   5.543   7.834 -4.0533 -0.4318  1.9937
   86MOL   H14330913   7.794   5.635   7.799 -0.2493  1.5307  2.9901
   86MOL   H14430914   0.211   5.763   0.017 -0.0487 -0.2616  1.0315
   86MOL   H14530915   0.059   5.849   7.837 -0.9920 -0.5313  0.6885
   86MOL   C14630916   0.109   5.786   0.258 -0.1045  0.2884 -0.5582
   86MOL   O14730917   0.209   5.859   0.248  0.0373 -0.2498  0.0962
   86MOL   C14830918   0.041   5.747   0.390  0.2660 -0.9851  0.6106
   86MOL   C14930919   0.138   5.732   0.505 -0.1482 -0.3920  0.1446
   86MOL   C15030920   0.191   5.861   0.571 -0.2054 -0.0127  0.1376
   86MOL   C15130921   0.090   5.934   0.665  0.1225 -0.7916 -0.2386
   86MOL   C15230922   0.161   6.060   0.730 -0.1574 -0.1497 -0.1204
   86MOL   O15330923   0.200   6.153   0.631 -0.6378 -0.1702 -0.4811
   86MOL   H15430924   7.830   5.654   0.377  0.6574 -1.1248 -0.1135
   86MOL   H15530925   7.808   5.820   0.409  0.7684 -0.0047 -0.9878
   86MOL   H15630926   0.212   5.659   0.474 -0.6018 -0.3738 -1.0011
   86MOL   H15730927   0.071   5.693   0.582 -0.3784 -3.0925 -1.3544
   86MOL   H15830928   0.239   5.922   0.494  1.1505 -0.4681  0.6045
   86MOL   H15930929   0.282   5.846   0.629 -0.7234  3.7182  2.0604
   86MOL   H16030930   0.060   5.866   0.745 -0.8762  0.3325  0.3623
   86MOL   H16130931   7.837   5.967   0.630  0.7429  1.9981  0.5283
   86MOL   H16230932   0.099   6.102   0.810  1.2907 -0.3941  1.1395
   86MOL   H16330933   0.248   6.019   0.780 -0.5021 -1.0714 -0.2623
   86MOL   C16430934   0.273   6.269   0.662  0.0398  0.4376  0.0059
   86MOL   O16530935   0.322   6.303   0.769 -0.9327 -0.6363  0.4841
   86MOL   C16630936   0.300   6.356   0.541 -0.5364 -0.3568  0.4157
   86MOL   C16730937   0.190   6.463   0.518 -0.4959  0.3270 -0.4108
   86MOL   C16830938   0.047   6.427   0.475 -0.2531  0.5754  0.5139
   86MOL   C16930939   7.792   6.548   0.457  0.2967  0.2836 -0.6011
   86MOL   C17030940   7.641   6.514   0.430 -1.2780  0.5677  0.5239
   86MOL   O17130941   7.557   6.628   0.451  0.3156  0.2693  0.3678
   86MOL   H17230942   0.304   6.296   0.450  1.9053 -1.7209  1.3853
   86MOL   H17330943   0.406   6.382   0.547 -0.8069  1.0853 -0.6960
   86MOL   H17430944   0.227   6.533   0.443  0.6228  1.1588  0.9009
   86MOL   H17530945   0.188   6.535   0.600  2.4776  1.3167 -1.1141
   86MOL   H17630946   7.844   6.344   0.528  1.1760 -0.4632  0.2123
   86MOL   H17730947   0.062   6.374   0.380 -4.8753 -2.7243  1.4595
   86MOL   H17830948   7.830   6.621   0.385  0.3259  1.3237  0.4511
   86MOL   H17930949   7.786   6.598   0.554  1.0804  0.4058 -0.6068
   86MOL   H18030950   7.639   6.479   0.327 -1.1434 -0.9126  1.0197
   86MOL   H18130951   7.616   6.437   0.503  1.5942 -1.4473 -0.5064
   86MOL   C18230952   7.551   6.730   0.363 -0.6198  0.1413 -0.0610
   86MOL   O18330953   7.626   6.750   0.266 -0.3994  0.5919  0.0122
   86MOL   C18430954   7.434   6.818   0.402  0.1862  0.1136 -0.3214
   86MOL   C18530955   7.477   6.938   0.493 -0.1457 -0.2134 -0.9004
   86MOL   C18630956   7.537   6.901   0.635 -0.4446  0.2593  0.7231
   86MOL   C18730957   7.561   7.039   0.694 -0.8302 -0.4123 -0.1152
   86MOL   C18830958   7.599   7.028   0.842  0.1010  0.1520  0.7719
   86MOL   O18930959   7.731   6.965   0.867  0.6163  0.0856  0.0205
   86MOL   H19030960   7.350   6.768   0.450  0.9556 -0.3614  0.5509
   86MOL   H19130961   7.397   6.851   0.305  0.9606 -0.2780 -0.7560
   86MOL   H19230962   7.403   7.018   0.502  1.0139  0.6059  2.1051
   86MOL   H19330963   7.555   6.989   0.437  0.0159 -1.2760 -1.6618
   86MOL   H19430964   7.628   6.842   0.624 -1.3987 -1.4737  1.8808
   86MOL   H19530965   7.472   6.845   0.703 -0.0243  0.4061  1.2463
   86MOL   H19630966   7.466   7.092   0.693  0.1137  1.3482  1.1931
   86MOL   H19730967   7.636   7.093   0.636  1.2152 -0.2101  2.5849
   86MOL   H19830968   7.600   7.121   0.898  2.6840  0.7487 -0.1933
   86MOL   H19930969   7.517   6.966   0.880 -0.7104  0.2487 -0.7616
   86MOL   C20030970   7.742   6.892   0.981  0.1651  0.1611 -0.0641
   86MOL   O20130971   7.663   6.880   1.071  0.6403 -0.7339  0.1590
   86MOL   C20230972   0.038   6.835   0.996  0.2261 -1.0952  0.1279
   86MOL   C20330973   0.083   6.763   0.866  0.9532  0.1197 -0.2613
   86MOL   C20430974   0.019   6.620   0.849 -0.0640  1.1917 -0.1486
   86MOL   C20530975   0.079   6.504   0.932 -1.2260  0.2848  0.0517
   86MOL   C20630976   7.830   6.378   0.926 -0.6027  0.2447  0.8572
   86MOL   O20730977   7.708   6.413   0.986  0.4655  0.2815 -0.1958
   86MOL   H20830978   0.045   6.765   1.079 -1.2287 -1.2314  0.1466
   86MOL   H20930979   0.107   6.917   1.012  0.4225 -1.1776 -0.2821
   86MOL   H21030980   0.190   6.755   0.885  0.4514 -2.9476  1.6526
   86MOL   H21130981   0.082   6.825   0.777  1.7102  0.6191  0.0693
   86MOL   H21230982   0.023   6.586   0.746  0.8099 -0.9640  0.5525
   86MOL   H21330983   7.758   6.628   0.872  0.3069  0.4406  1.9350
   86MOL   H21430984   0.099   6.538   1.034 -3.1701 -1.3011  0.9999
   86MOL   H21530985   0.178   6.481   0.894 -0.9152  2.8966 -0.7581
   86MOL   H21630986   7.809   6.352   0.822 -2.7544  0.0239  1.3335
   86MOL   H21730987   0.022   6.293   0.984  0.2442 -1.3105 -1.8601
   86MOL   C21830988   7.630   6.325   1.042 -0.8363  0.2654 -0.0646
   86MOL   O21930989   7.651   6.204   1.042  0.0527  0.2531 -0.4635
   86MOL   C22030990   7.506   6.390   1.115  0.3996 -0.3804 -0.2436
   86MOL   C22130991   7.547   6.466   1.237  0.3608  0.4297  0.5873
   86MOL   C22230992   7.629   6.594   1.217 -0.0119  0.3419  0.5201
   86MOL   C22330993   7.655   6.659   1.356  0.5881 -0.4576 -0.4094
   86MOL   C22430994   7.764   6.773   1.359  0.8036  0.1518 -0.7871
   86MOL   O22530995   7.783   6.825   1.489  0.1421 -1.0993 -0.2475
   86MOL   H22630996   7.460   6.302   1.159 -2.6730  0.7714 -1.0056
   86MOL   H22730997   7.436   6.442   1.051 -0.1261  1.4905  1.7780
   86MOL   H22830998   7.593   6.397   1.308 -1.4423 -0.6273  0.7569
   86MOL   H22930999   7.456   6.499   1.287  0.3362 -3.4254  3.3340
   86MOL   H23031000   7.575   6.667   1.157  2.5194  0.2327 -1.9398
   86MOL   H23131001   7.724   6.571   1.169  0.6944  0.7497  1.6950
   86MOL   H23231002   7.691   6.586   1.428  1.2326  0.9626  0.7401
   86MOL   H23331003   7.559   6.694   1.396  2.1569  1.3812  1.8660
   86MOL   H23431004   0.013   6.724   1.329  1.4771 -0.2399  1.7852
   86MOL   H23531005   7.746   6.847   1.282 -0.5059 -0.0072 -0.6408
   86MOL   C23631006   0.007   6.939   1.508  0.5398  0.6176 -0.5693
   86MOL   O23731007   0.056   7.008   1.419  0.0090  0.0305 -0.1696
   86MOL   C23831008   0.024   6.975   1.663 -0.8064  0.1460 -0.5458
   86MOL   C23931009   0.149   7.061   1.700  0.0981  0.0646 -0.2446
   86MOL   C24031010   0.126   7.125   1.835 -0.0750 -0.0373  0.0352
   86MOL   C24131011   0.225   7.229   1.877 -0.4074  0.0594 -0.2646
   86MOL   C24231012   0.196   7.312   2.007  0.2489 -0.5303  0.5370
   86MOL   O24331013   0.071   7.383   2.001  0.0362 -0.4271 -0.1562
   86MOL   H24431014   0.014   6.890   1.730  2.1683  0.5595  0.4977
   86MOL   H24531015   7.784   7.037   1.692 -1.2678 -0.9126  0.4032
   86MOL   H24631016   0.168   7.140   1.627 -0.5009 -0.2911 -0.7817
   86MOL   H24731017   0.237   6.996   1.704 -0.5209 -0.8718 -1.8320
   86MOL   H24831018   0.124   7.048   1.913  0.0365  0.6709  0.7353
   86MOL   H24931019   0.030   7.176   1.827 -0.4458 -0.9251 -1.5622
   86MOL   H25031020   0.236   7.300   1.795  0.0775  0.3456  0.0430
   86MOL   H25131021   0.324   7.183   1.876  0.6443  2.2763 -1.5890
   86MOL   H25231022   0.201   7.258   2.102 -1.3659  1.6535  1.9204
   86MOL   H25331023   0.282   7.377   1.996 -0.4349  0.5456  1.4312
   86MOL   C25431024   7.817   7.350   2.084 -0.0736  0.2042 -0.1592
   86MOL   O25531025   7.826   7.257   2.168  0.1332  0.4097 -0.1896
   86MOL   C25631026   7.689   7.439   2.065  0.4904 -0.2488  0.0024
   86MOL   C25731027   7.592   7.405   1.954 -0.0928  0.8428 -0.6671
   86MOL   C25831028   7.516   7.271   1.983 -0.0832 -0.0351 -0.1307
   86MOL   C25931029   7.590   7.150   1.919  0.3615 -0.9365 -0.2418
   86MOL   C26031030   7.497   7.034   1.923  0.1841 -0.0359  0.1313
   86MOL   O26131031   7.567   6.922   1.869  0.6822  1.3465 -0.1057
   86MOL   H26231032   7.730   7.539   2.050 -1.7231  1.0219  2.1230
   86MOL   H26331033   7.633   7.457   2.156 -3.2693  0.2783 -2.3155
   86MOL   H26431034   7.661   7.404   1.869  0.8720  0.7854  0.1167
   86MOL   H26531035   7.523   7.485   1.930 -2.3434 -1.2650 -1.4727
   86MOL   H26631036   7.410   7.284   1.961 -0.2280 -0.0506  0.5525
   86MOL   H26731037   7.515   7.260   2.091  2.6601 -0.2739 -0.0917
   86MOL   H26831038   7.683   7.137   1.973  0.2083 -2.9884 -0.4424
   86MOL   H26931039   7.618   7.166   1.814 -0.4173 -1.5575 -0.5505
   86MOL   H27031040   7.465   7.008   2.024  1.2924 -0.2319  0.4338
   86MOL   H27131041   7.402   7.060   1.876 -0.7559 -1.2824  1.2989
   86MOL   C27231042   7.536   6.803   1.918  0.8044  0.2557  0.3111
   86MOL   O27331043   7.471   6.778   2.021 -0.2854  0.2055  0.4534
   86MOL   C27431044   7.592   6.689   1.833  0.1396 -0.8517 -0.3659
   86MOL   C27531045   7.516   6.659   1.709 -0.2116 -0.6179 -0.0574
   86MOL   C27631046   7.383   6.573   1.730 -0.1818  0.4396 -0.5726
   86MOL   C27731047   7.305   6.561   1.601  0.1726 -0.3584 -0.3745
   86MOL   C27831048   7.190   6.465   1.592  0.2929  0.0746  0.2556
   86MOL   O27931049   7.120   6.475   1.469 -0.3576  0.0752 -0.4461
   86MOL   H28031050   7.618   6.603   1.894  0.2838  0.7280  1.8508
   86MOL   H28131051   7.691   6.716   1.797 -0.0754  1.5753  0.7593
   86MOL   H28231052   7.582   6.605   1.641 -0.8377  1.4733 -2.4234
   86MOL   H28331053   7.479   6.750   1.662  1.5482 -0.3313 -0.9090
   86MOL   H28431054   7.331   6.611   1.818  0.4906 -2.4224  1.1294
   86MOL   H28531055   7.409   6.470   1.755 -1.3647  0.4617  0.8018
   86MOL   H28631056   7.373   6.559   1.516 -1.0721 -0.6528 -1.3832
   86MOL   H28731057   7.254   6.656   1.585  1.3820  0.6008  1.2749
   86MOL   H28831058   7.235   6.366   1.604 -2.1659 -0.9585  1.3879
   86MOL   H28931059   7.112   6.480   1.667 -1.3566 -1.4159 -1.1178
   86MOL   C29031060   7.157   6.400   1.367  0.3143 -0.9007  0.4397
   86MOL   O29131061   7.255   6.329   1.366  0.5951  0.3872  0.2979
   86MOL   C29231062   7.073   6.428   1.236 -0.2586  0.0854  0.9541
   86MOL   C29331063   7.118   6.343   1.117 -0.1254 -0.4301 -1.0760
   86MOL   C29431064   7.058   6.206   1.124  0.4819  0.4425 -0.2756
   86MOL   C29531065   7.113   6.104   1.011 -0.1949 -0.0156 -0.6047
   86MOL   C29631066   7.051   5.971   1.009  0.1139 -0.4498 -0.4453
   86MOL   O29731067   7.130   5.884   0.935  0.4318  0.4338  0.1441
   86MOL   H29831068   7.095   6.533   1.218 -0.1305 -0.2671 -1.0467
   86MOL   H29931069   6.966   6.424   1.258  0.0029  1.2689  2.5238
   86MOL   H30031070   7.227   6.349   1.118 -0.1788  0.7248 -0.9646
   86MOL   H30131071   7.084   6.399   1.030  0.9176  1.9115 -0.0189
   86MOL   H30231072   6.950   6.217   1.117  0.4985 -0.3238 -2.0119
   86MOL   H30331073   7.088   6.171   1.222  1.0227 -3.0292 -1.5919
   86MOL   H30431074   7.218   6.093   1.039  0.3052 -1.7954 -3.0139
   86MOL   H30531075   7.110   6.145   0.910  0.9309  1.4784 -0.0630
   86MOL   H30631076   7.034   5.930   1.109 -1.3113 -1.0485 -0.9220
   86MOL   H30731077   6.954   5.971   0.960  0.9014 -3.6348 -2.1693
   86MOL   C30831078   7.073   5.767   0.908  0.4229  0.8515 -0.0558
   86MOL   O30931079   6.968   5.718   0.950  0.2421 -0.5429 -0.1969
   86MOL   C31031080   7.169   5.687   0.823 -0.6788  0.2764  0.3040
   86MOL   C31131081   7.202   5.751   0.687 -0.2074  0.2101  0.0351
   86MOL   C31231082   7.083   5.730   0.586  0.0660 -0.0025  0.0933
   86MOL   C31331083   7.126   5.786   0.451  0.0876 -1.0502 -0.1157
   86MOL   C31431084   7.016   5.774   0.343  0.0015  0.3967  0.1571
   86MOL   O31531085   6.908   5.858   0.345  0.3749 -0.0173  0.1880
   86MOL   H31631086   7.129   5.587   0.805 -1.6570  0.4933  1.1897
   86MOL   H31731087   7.263   5.675   0.877 -0.4337  0.3829 -0.1016
   86MOL   H31831088   7.300   5.714   0.657  0.8396  1.4369  1.8958
   86MOL   H31931089   7.222   5.858   0.694  5.1510 -0.6034 -0.8317
   86MOL   H32031090   6.995   5.768   0.636  0.2410 -2.3046  2.2336
   86MOL   H32131091   7.068   5.623   0.569 -1.9504  0.3087 -0.1768
   86MOL   H32231092   7.223   5.742   0.427  0.5779 -0.0748  0.0533
   86MOL   H32331093   7.151   5.891   0.466  2.4426 -1.7738  1.3598
   86MOL   H32431094   7.067   5.800   0.251  1.7142  0.7640  1.1985
   86MOL   H32531095   6.983   5.670   0.333  0.0760  0.1824  1.9342
   86MOL   C32631096   6.795   5.803   0.384 -0.2586 -0.1881 -0.1158
   86MOL   O32731097   6.774   5.688   0.421  0.1745  0.3941  0.0343
   86MOL   C32831098   6.676   5.895   0.370  0.5337 -0.6097 -0.2321
   86MOL   C32931099   6.690   6.021   0.444  0.3856 -0.3546 -0.2499
   86MOL   C33031100   6.719   6.007   0.598  0.0075 -0.2672  0.2294
   86MOL   C33131101   6.716   6.137   0.681  0.1065  0.1175  0.4229
   86MOL   C33231102   6.862   6.194   0.711  1.0712 -0.2466 -0.3469
   86MOL   O33331103   6.843   6.298   0.808 -0.0995  0.7587  0.1229
   86MOL   H33431104   6.591   5.834   0.403  1.0592 -1.3296 -0.2049
   86MOL   H33531105   6.667   5.910   0.262  1.1878 -0.8313 -0.3192
   86MOL   H33631106   6.598   6.080   0.442 -1.3632 -2.9011  1.8271
   86MOL   H33731107   6.767   6.082   0.396  0.3658 -0.0226  0.1369
   86MOL   H33831108   6.819   5.969   0.619 -0.6152 -1.8299  0.4137
   86MOL   H33931109   6.654   5.930   0.641 -0.6742  0.3321  0.2735
   86MOL   H34031110   6.676   6.116   0.780 -2.7643  0.9332 -0.5159
   86MOL   H34131111   6.649   6.212   0.639  3.3608  1.6932 -2.2142
   86MOL   H34231112   6.918   6.112   0.755  0.5066 -0.3167  0.2502
   86MOL   H34331113   6.899   6.224   0.613  0.1119  2.6287  0.1038
   86MOL   C34431114   6.852   6.429   0.777 -0.6331 -0.8318 -0.1941
   86MOL   O34531115   6.858   6.483   0.668 -0.0661  0.2930  0.0397
   86MOL   C34631116   6.844   6.511   0.904 -0.6479 -0.3005  0.4562
   86MOL   C34731117   6.711   6.504   0.981 -0.2203  0.1913 -0.0611
   86MOL   C34831118   6.682   6.617   1.081 -0.7361 -0.4296 -0.0072
   86MOL   C34931119   6.666   6.751   1.011  0.1461 -0.3487 -0.3286
   86MOL   C35031120   6.615   6.865   1.096 -0.7371  0.7278  0.1481
   86MOL   O35131121   6.732   6.894   1.174  0.2374  0.0966 -0.1356
   86MOL   H35231122   6.867   6.615   0.882 -1.1122  0.1039  1.8956
   86MOL   H35331123   6.927   6.480   0.967  0.0335  1.5148  0.4817
   86MOL   H35431124   6.715   6.410   1.036 -1.7920 -0.2199 -0.6159
   86MOL   H35531125   6.625   6.499   0.914 -1.9668  1.8064  1.9650
   86MOL   H35631126   6.755   6.606   1.161 -3.2707 -1.6919  2.2265
   86MOL   H35731127   6.593   6.588   1.137  0.2078 -3.1890  0.1332
   86MOL   H35831128   6.593   6.740   0.930 -1.0062 -0.6773  0.7230
   86MOL   H35931129   6.754   6.782   0.956 -0.9464 -0.5278 -2.2292
   86MOL   H36031130   6.576   6.953   1.045  0.5394  1.8715  1.1123
   86MOL   H36131131   6.540   6.827   1.166 -0.4129  0.3501  0.2923
   86MOL   H36231132   6.720   6.844   1.253  0.1574  0.1172 -0.1354
   87MOL     C131133   6.706   1.946   0.368  0.2823  0.3638 -1.0149
   87MOL     O231134   6.586   1.920   0.340  0.8251  0.0996  0.2652
   87MOL     C331135   6.818   1.908   0.272  0.4265 -0.3296  0.8599
   87MOL     C431136   6.792   1.777   0.198 -0.1745  0.3280  0.3955
   87MOL     C531137   6.897   1.738   0.089 -0.7182 -0.0024  0.2827
   87MOL     C631138   7.039   1.731   0.139 -0.1043  0.1242  0.3096
   87MOL     C731139   7.146   1.704   0.035  0.5594 -0.3064  0.1196
   87MOL     O831140   7.268   1.693   0.098 -0.5171 -0.3001 -0.4176
   87MOL     H931141   6.914   1.921   0.321  0.1819  1.3370  0.9165
   87MOL    H1031142   6.819   1.992   0.202  1.3420  1.4126  2.9200
   87MOL    H1131143   6.699   1.785   0.142  0.7379  0.9001 -1.0513
   87MOL    H1231144   6.800   1.699   0.274 -0.8674 -0.0763  0.0587
   87MOL    H1331145   6.888   1.815   0.012  1.9781 -0.1804 -0.2722
   87MOL    H1431146   6.859   1.654   0.030 -1.8544  1.3538 -0.9679
   87MOL    H1531147   7.030   1.650   0.211  0.6770  1.3015  1.7641
   87MOL    H1631148   7.075   1.821   0.189  1.6726 -0.0917 -0.5386
   87MOL    H1731149   7.129   1.609   7.830  1.1969 -0.8619  0.9498
   87MOL    H1831150   7.160   1.784   7.807 -0.6938  2.4020  2.7424
   87MOL    H1931151   6.733   1.982   0.467 -0.3382 -1.2405 -0.2554
   87MOL    C2031152   7.374   1.653   0.031 -0.4506  0.8298  0.2187
   87MOL    O2131153   7.361   1.603   7.767 -0.2821 -0.2492  0.3828
   87MOL    C2231154   7.508   1.644   0.113 -0.0195  0.9320 -0.2859
   87MOL    C2331155   7.582   1.775   0.123 -0.0548 -0.0996 -0.2147
   87MOL    C2431156   7.620   1.824   7.826 -0.3014 -0.1421 -0.0276
   87MOL    C2531157   7.709   1.951   7.843 -0.5162  0.7975  1.2608
   87MOL    C2631158   7.755   2.016   7.710  0.3149  0.4290 -0.1243
   87MOL    O2731159   7.658   2.011   7.605  0.3524 -0.4391  0.7129
   87MOL    H2831160   7.578   1.585   0.054 -1.3223 -2.6866  1.6558
   87MOL    H2931161   7.493   1.602   0.212  1.9034  0.1633 -0.2877
   87MOL    H3031162   7.674   1.752   0.177  0.3301  0.6957 -0.5330
   87MOL    H3131163   7.517   1.842   0.179  0.6869  1.8593 -1.6783
   87MOL    H3231164   7.531   1.852   7.770  0.6900  0.3466 -1.3907
   87MOL    H3331165   7.665   1.743   7.768  0.0988  0.1248 -0.0943
   87MOL    H3431166   7.801   1.943   0.056  0.7864  1.2519 -0.7538
   87MOL    H3531167   7.645   2.025   0.047  0.8248  1.1948  2.4609
   87MOL    H3631168   7.804   2.113   7.712  0.9589  0.0830  1.1198
   87MOL    H3731169   7.841   1.969   7.663  0.4656  2.1141 -1.5917
   87MOL    C3831170   7.570   2.106   7.588 -0.3577 -0.2805 -0.1359
   87MOL    O3931171   7.546   2.199   7.662 -0.4195  0.0702  0.1155
   87MOL    C4031172   7.494   2.086   7.459 -0.0256 -0.5560 -0.2901
   87MOL    C4131173   7.436   1.942   7.449  0.1354 -0.1438  0.0281
   87MOL    C4231174   7.312   1.931   7.546  0.1132  0.3677  0.8209
   87MOL    C4331175   7.192   2.007   7.493 -0.1719 -0.2030 -0.3647
   87MOL    C4431176   7.075   1.929   7.538 -0.2174  0.3069 -0.4977
   87MOL    O4531177   7.067   1.807   7.470 -0.0898  0.4768  0.3188
   87MOL    H4631178   7.561   2.093   7.373 -0.4832 -1.9457 -0.7622
   87MOL    H4731179   7.417   2.162   7.449  1.0001  0.4943 -0.3136
   87MOL    H4831180   7.507   1.864   7.475  2.2954  1.3179 -1.3527
   87MOL    H4931181   7.406   1.924   7.346  0.3734  1.1666 -0.2801
   87MOL    H5031182   7.336   1.969   7.645  1.6028  0.3083  0.4833
   87MOL    H5131183   7.281   1.827   7.555  2.5855 -0.2332  2.8423
   87MOL    H5231184   7.193   2.018   7.384 -0.3486 -0.7307 -0.4249
   87MOL    H5331185   7.194   2.104   7.543 -1.6584 -0.5624  0.4466
   87MOL    H5431186   7.087   1.920   7.645  0.8922  2.3975 -0.4105
   87MOL    H5531187   6.985   1.985   7.514  0.7505  2.1846  0.1322
   87MOL    C5631188   6.959   1.720   7.499  0.2544 -0.2471  0.0127
   87MOL    O5731189   6.878   1.746   7.587  0.5541  0.8706  0.5754
   87MOL    C5831190   6.945   1.602   7.400 -0.2690 -0.7560  0.5845
   87MOL    C5931191   6.899   1.655   7.265 -1.0725  0.4958 -0.2935
   87MOL    C6031192   6.862   1.533   7.175  0.5159  1.0952 -0.0547
   87MOL    C6131193   6.791   1.580   7.046  0.4466 -0.0058 -0.6271
   87MOL    C6231194   6.781   1.479   6.931 -0.4041 -0.5762 -0.6100
   87MOL    O6331195   6.731   1.545   6.815 -0.0671 -0.4296  0.0665
   87MOL    H6431196   6.865   1.543   7.446  0.1993 -1.8685 -0.0218
   87MOL    H6531197   7.037   1.545   7.398 -0.0538 -0.3500 -1.6070
   87MOL    H6631198   6.965   1.723   7.213  0.7640 -0.9006  0.1346
   87MOL    H6731199   6.804   1.707   7.277 -0.3379  1.6250  0.7548
   87MOL    H6831200   6.818   1.456   7.240  2.2753  0.4293  0.3593
   87MOL    H6931201   6.951   1.482   7.140  1.2176  1.6779  0.8793
   87MOL    H7031202   6.860   1.653   7.004  0.5759 -1.0584 -2.3093
   87MOL    H7131203   6.697   1.629   7.071  1.7567  3.0565 -1.4260
   87MOL    H7231204   6.874   1.424   6.914  0.1125  0.5281 -1.3667
   87MOL    H7331205   6.696   1.413   6.950 -0.2810 -0.5906 -0.1123
   87MOL    C7431206   6.807   1.557   6.696  0.3193  0.5107 -0.3081
   87MOL    O7531207   6.928   1.514   6.689 -0.0350  1.0754 -0.1082
   87MOL    C7631208   6.730   1.629   6.589  0.0159 -0.5453 -0.0572
   87MOL    C7731209   6.788   1.610   6.449  0.1609 -0.0399  0.9117
   87MOL    C7831210   6.914   1.700   6.425 -0.3615  0.0115  0.3711
   87MOL    C7931211   7.009   1.630   6.325  0.2122 -0.1639  0.3290
   87MOL    C8031212   7.148   1.708   6.323 -0.0152 -0.1683  0.4706
   87MOL    O8131213   7.247   1.628   6.262 -0.0038 -0.0114  0.6797
   87MOL    H8231214   6.739   1.733   6.618 -1.1924 -0.1752 -0.9513
   87MOL    H8331215   6.625   1.601   6.601 -0.2498  1.5160  2.9429
   87MOL    H8431216   6.708   1.635   6.380  0.1038 -2.3848  0.0758
   87MOL    H8531217   6.808   1.503   6.441  0.5378 -0.0121  1.3778
   87MOL    H8631218   6.964   1.718   6.520 -1.0949 -0.1131  0.7866
   87MOL    H8731219   6.875   1.796   6.392  0.3370  0.2208  0.1450
   87MOL    H8831220   6.978   1.633   6.221 -1.1033 -1.0767  0.6769
   87MOL    H8931221   7.027   1.524   6.346 -0.0032 -0.7534 -2.2469
   87MOL    H9031222   7.145   1.806   6.278 -1.4821  0.6735  2.3423
   87MOL    H9131223   7.179   1.719   6.427  1.5324 -1.7836  0.2231
   87MOL    C9231224   7.255   1.614   6.131 -0.5152 -0.1875  0.3626
   87MOL    O9331225   7.177   1.652   6.051 -0.0967 -0.2829 -1.0642
   87MOL    C9431226   7.371   1.525   6.091  0.7502 -0.3564 -0.0200
   87MOL    C9531227   7.345   1.441   5.967  0.1938 -0.0746 -0.8638
   87MOL    C9631228   7.351   1.503   5.835 -0.2156 -0.1404  0.4404
   87MOL    C9731229   7.484   1.566   5.781  0.4657 -0.1153  0.6221
   87MOL    C9831230   7.453   1.662   5.667 -0.4032 -0.8650  0.1415
   87MOL    O9931231   7.580   1.713   5.625 -0.0514  0.0131 -0.3965
   87MOL   H10031232   7.397   1.456   6.172 -0.7796 -1.3840 -0.3946
   87MOL   H10131233   7.448   1.602   6.082 -0.1218  0.8927  2.5426
   87MOL   H10231234   7.264   1.370   5.984 -1.3813  2.0744  0.8698
   87MOL   H10331235   7.430   1.374   5.975  1.6777  2.0053  1.5533
   87MOL   H10431236   7.274   1.581   5.840 -0.1691 -0.1560  1.4960
   87MOL   H10531237   7.317   1.437   5.756  2.8523  0.9343 -1.9082
   87MOL   H10631238   7.560   1.490   5.761 -0.4003 -0.9026  0.3242
   87MOL   H10731239   7.530   1.642   5.845 -0.2789  1.3797 -0.5837
   87MOL   H10831240   7.399   1.612   5.587  0.0426  0.6459 -1.1138
   87MOL   H10931241   7.394   1.751   5.690 -0.0230 -0.2150 -1.3856
   87MOL   C11031242   7.627   1.831   5.676  0.5230  0.5907  0.2239
   87MOL   O11131243   7.564   1.903   5.752 -0.0448  0.1702 -0.1357
   87MOL   C11231244   7.774   1.860   5.648  0.1552  0.2157  0.2245
   87MOL   C11331245   7.843   1.919   5.771 -0.0176 -0.6630 -0.7756
   87MOL   C11431246   0.031   1.833   5.890 -0.4473 -0.7621  0.1567
   87MOL   C11531247   0.169   1.763   5.877  0.1051 -1.1185 -0.3374
   87MOL   C11631248   0.192   1.648   5.978  0.5361 -0.0478  0.2612
   87MOL   O11731249   0.086   1.547   5.981 -0.3998  0.4322 -0.2762
   87MOL   H11831250   7.785   1.939   5.573  0.8251  0.7374  0.8655
   87MOL   H11931251   7.830   1.770   5.623  1.5093  0.6934  1.4733
   87MOL   H12031252   7.784   2.001   5.812  1.1629 -0.1238 -0.1172
   87MOL   H12131253   0.091   1.968   5.738 -0.0393  0.4546  0.7977
   87MOL   H12231254   7.795   1.761   5.900 -1.9104  0.4108 -2.7775
   87MOL   H12331255   0.033   1.895   5.980 -1.1498  0.7331 -0.8342
   87MOL   H12431256   0.233   1.849   5.899 -0.1242  0.1624 -4.1310
   87MOL   H12531257   0.199   1.743   5.774 -0.6397  2.0697 -1.2434
   87MOL   H12631258   0.286   1.601   5.953  1.4321 -0.7877  4.5415
   87MOL   H12731259   0.204   1.680   6.082 -2.1267  1.9161  0.0216
   87MOL   C12831260   0.062   1.462   5.884  0.3599 -0.4095  0.4119
   87MOL   O12931261   0.147   1.419   5.800  0.6884  0.0926 -0.2845
   87MOL   C13031262   7.773   1.401   5.903  0.4442 -0.3529  0.1468
   87MOL   C13131263   7.784   1.268   5.987  0.0570 -0.7996  0.4702
   87MOL   C13231264   7.830   1.147   5.895  0.8160  0.0055 -0.4038
   87MOL   C13331265   7.799   1.011   5.960  0.1246  0.0641  0.1245
   87MOL   C13431266   0.007   0.892   5.874 -0.2091 -0.0154 -0.5165
   87MOL   O13531267   0.011   0.768   5.947  0.4789  0.2717  0.2009
   87MOL   H13631268   7.711   1.392   5.813  0.8185 -2.6610  0.0827
   87MOL   H13731269   7.720   1.476   5.960 -1.3303 -0.7893 -0.8751
   87MOL   H13831270   7.687   1.250   6.032 -0.8254 -0.3744 -1.2409
   87MOL   H13931271   0.015   1.278   6.065  1.0392 -1.0907 -0.4192
   87MOL   H14031272   0.091   1.158   5.872  1.1799 -1.4627  0.5268
   87MOL   H14131273   7.785   1.175   5.800  0.2765  0.7236  0.0470
   87MOL   H14231274   7.696   0.997   5.992  0.1259 -1.2587 -0.4163
   87MOL   H14331275   0.014   1.016   6.051 -1.9109 -1.6016  1.5890
   87MOL   H14431276   7.785   0.881   5.789 -0.4039 -1.2769 -0.2152
   87MOL   H14531277   0.099   0.902   5.816  0.4154  2.4700  0.8634
   87MOL   C14631278   0.127   0.706   5.980  0.7737  0.2906 -0.0809
   87MOL   O14731279   0.241   0.743   5.951 -0.2377 -0.5481  0.3145
   87MOL   C14831280   0.104   0.584   6.066  0.3883 -0.3820 -0.4985
   87MOL   C14931281   0.051   0.453   6.002 -0.0992 -0.4823 -0.7213
   87MOL   C15031282   7.747   0.441   5.972  0.3607  0.4020  0.2890
   87MOL   C15131283   7.667   0.451   6.096  1.0073  0.1065  0.5047
   87MOL   C15231284   7.516   0.417   6.084  0.0264 -0.2947 -0.4913
   87MOL   O15331285   7.500   0.275   6.058  0.2241 -0.2700  0.6077
   87MOL   H15431286   0.038   0.627   6.141  0.9816 -0.5312  0.1083
   87MOL   H15531287   0.202   0.567   6.110  0.7471 -0.1947 -1.2088
   87MOL   H15631288   0.070   0.373   6.074 -0.7302  0.3322  0.3701
   87MOL   H15731289   0.112   0.431   5.915  2.2180 -0.6049  0.8999
   87MOL   H15831290   7.718   0.345   5.929  0.3188 -0.0301  1.2787
   87MOL   H15931291   7.711   0.517   5.903 -2.5141 -1.5143 -0.4170
   87MOL   H16031292   7.689   0.547   6.142  1.3671  0.8697 -1.2307
   87MOL   H16131293   7.703   0.374   6.165 -1.5786 -1.4475  0.2123
   87MOL   H16231294   7.460   0.452   6.170  1.0112  1.5673 -0.5830
   87MOL   H16331295   7.459   0.465   6.005  0.3700 -1.6729 -1.5964
   87MOL   C16431296   7.378   0.220   6.062  0.1597  0.3739 -0.5195
   87MOL   O16531297   7.270   0.277   6.087  0.2733 -0.3337 -0.2981
   87MOL   C16631298   7.370   0.078   6.019  0.4056  0.8850 -0.1481
   87MOL   C16731299   7.344   0.061   5.867 -0.5835 -0.3081  0.4120
   87MOL   C16831300   7.349   7.770   5.793 -0.8997  0.2800  0.1977
   87MOL   C16931301   7.306   7.766   5.647 -0.4025 -0.4582 -0.3219
   87MOL   C17031302   7.327   7.629   5.575 -0.5987 -0.2485 -0.4674
   87MOL   O17131303   7.249   7.622   5.458  0.3148  0.0466 -0.1216
   87MOL   H17231304   7.283   0.036   6.068  0.2385  0.9111 -0.4200
   87MOL   H17331305   7.465   0.029   6.040  0.3915  1.3456  0.9830
   87MOL   H17431306   7.416   0.121   5.812 -2.6772  2.4796  0.5889
   87MOL   H17531307   7.242   0.095   5.849 -0.2004 -0.1996 -1.7567
   87MOL   H17631308   7.284   7.699   5.845 -0.4606  1.7365  2.8152
   87MOL   H17731309   7.445   7.720   5.797 -1.2963 -0.4175  1.6193
   87MOL   H17831310   7.368   7.839   5.595  1.9624 -0.7401  2.0015
   87MOL   H17931311   7.202   7.794   5.656  0.1303  0.8452  2.1014
   87MOL   H18031312   7.432   7.612   5.552 -0.3518 -0.8988  1.0572
   87MOL   H18131313   7.297   7.557   5.651  0.2151 -2.3766 -2.1493
   87MOL   C18231314   7.299   7.643   5.338 -0.9257  0.3672 -0.1437
   87MOL   O18331315   7.413   7.677   5.310 -0.1423 -0.0583 -0.1174
   87MOL   C18431316   7.197   7.607   5.240  0.9959  0.3781  0.1342
   87MOL   C18531317   7.170   7.716   5.130 -0.0932  0.1935 -0.7334
   87MOL   C18631318   7.125   0.013   5.184 -0.1375  0.4093  0.6811
   87MOL   C18731319   7.124   0.124   5.079 -0.1371  0.3152  0.2509
   87MOL   C18831320   7.006   0.110   4.977  0.1104  0.1340  1.2779
   87MOL   O18931321   6.883   0.132   5.042 -0.0977 -0.3335 -0.4328
   87MOL   H19031322   7.102   7.592   5.292  1.3437 -0.4051  0.5369
   87MOL   H19131323   7.230   7.509   5.204 -0.8674 -0.0699 -0.4298
   87MOL   H19231324   7.081   7.676   5.080  0.3476 -0.9518 -0.6010
   87MOL   H19331325   7.252   7.724   5.059 -0.7498 -0.5176 -1.5934
   87MOL   H19431326   7.199   0.033   5.262 -0.1413 -1.3848  1.1825
   87MOL   H19531327   7.033   0.016   5.241 -1.0680  0.1835 -0.7640
   87MOL   H19631328   7.217   0.116   5.021 -0.3102 -1.5830  0.2017
   87MOL   H19731329   7.116   0.217   5.135 -4.4548  0.9720 -1.2976
   87MOL   H19831330   7.017   0.194   4.908 -0.9486  0.5520  1.6020
   87MOL   H19931331   7.011   0.018   4.917 -1.1010  0.6294  0.3903
   87MOL   C20031332   6.800   0.030   5.063 -0.2266 -0.6921  0.4695
   87MOL   O20131333   6.811   7.767   5.009  0.4809 -0.1440  0.6312
   87MOL   C20231334   6.677   0.072   5.136 -0.3199 -0.4363 -0.2272
   87MOL   C20331335   6.548   0.066   5.049 -0.4522 -0.6098  0.2018
   87MOL   C20431336   6.486   7.771   5.054 -0.4723  0.0070  0.7134
   87MOL   C20531337   6.379   7.748   5.157  0.0556 -0.4995 -0.3364
   87MOL   C20631338   6.312   7.605   5.172 -0.1630 -0.6623  0.6746
   87MOL   O20731339   6.386   7.529   5.267  0.4980  0.2584 -0.0873
   87MOL   H20831340   6.683   0.176   5.167 -0.1579 -0.0823 -1.4250
   87MOL   H20931341   6.662   0.010   5.225 -0.5521 -1.2136 -0.8019
   87MOL   H21031342   6.569   0.090   4.945  0.7001 -1.4816  0.2246
   87MOL   H21131343   6.474   0.139   5.081  2.8074  2.2454  1.4940
   87MOL   H21231344   6.571   7.706   5.078  0.3481  0.6550 -0.3704
   87MOL   H21331345   6.469   7.742   4.950  3.1412 -1.6410  0.4796
   87MOL   H21431346   6.301   7.821   5.135  1.2680 -0.0699 -3.5382
   87MOL   H21531347   6.413   7.787   5.253  0.4577 -1.3792 -0.1175
   87MOL   H21631348   6.209   7.607   5.206 -0.2472 -0.4671  0.4061
   87MOL   H21731349   6.313   7.552   5.077  0.7073  0.4344  0.0445
   87MOL   C21831350   6.336   7.415   5.316 -0.5520  0.2644 -0.0023
   87MOL   O21931351   6.220   7.385   5.289  0.2876 -0.6020 -0.3932
   87MOL   C22031352   6.430   7.319   5.390  0.2333 -0.4864  0.8809
   87MOL   C22131353   6.448   7.349   5.542 -0.5310 -0.1578 -0.5138
   87MOL   C22231354   6.327   7.324   5.624 -0.1764 -0.5554 -0.0287
   87MOL   C22331355   6.318   7.181   5.683  0.5486 -0.7067  0.6862
   87MOL   C22431356   6.195   7.152   5.762  0.1728 -0.4253  0.4829
   87MOL   O22531357   6.205   7.019   5.809  0.3279 -0.1046  0.1562
   87MOL   H22631358   6.514   7.344   5.326  1.6372 -1.0065  2.4821
   87MOL   H22731359   6.395   7.217   5.374 -1.0521 -0.2053  1.7870
   87MOL   H22831360   6.477   7.453   5.561 -0.0088 -0.5050  0.5980
   87MOL   H22931361   6.532   7.287   5.571 -1.4569 -0.4138  1.6878
   87MOL   H23031362   6.236   7.342   5.567 -0.4549 -2.8587 -0.3293
   87MOL   H23131363   6.321   7.398   5.705 -1.1525  0.6462 -1.1792
   87MOL   H23231364   6.398   7.140   5.744  1.4330  0.1910  0.1424
   87MOL   H23331365   6.301   7.124   5.592 -0.4795 -1.3701  1.2781
   87MOL   H23431366   6.193   7.224   5.844 -2.5730  0.1527 -0.0422
   87MOL   H23531367   6.103   7.167   5.706  0.3372  0.6206  0.4666
   87MOL   C23631368   6.108   6.975   5.891  0.3397 -0.7749  0.0237
   87MOL   O23731369   5.999   7.026   5.906 -0.4484  0.3733 -0.2624
   87MOL   C23831370   6.150   6.842   5.944  0.0383  0.7173  0.4663
   87MOL   C23931371   6.059   6.757   6.036  0.5222 -1.1457 -0.4327
   87MOL   C24031372   6.096   6.772   6.185  0.5884 -0.4148  0.0656
   87MOL   C24131373   6.019   6.882   6.264  0.2222  0.3284  0.7392
   87MOL   C24231374   6.074   6.895   6.409  0.1857 -0.3598  0.4298
   87MOL   O24331375   6.008   6.998   6.488 -0.5882  0.1584  0.4508
   87MOL   H24431376   6.253   6.847   5.979  0.1727  2.8162 -0.1762
   87MOL   H24531377   6.151   6.773   5.859 -1.9847  2.6106 -1.1673
   87MOL   H24631378   6.067   6.653   6.001  1.3528 -1.0090 -0.6839
   87MOL   H24731379   5.956   6.785   6.015  0.7818  0.2746  0.1706
   87MOL   H24831380   6.205   6.774   6.190  0.7697 -0.2055 -2.8074
   87MOL   H24931381   6.062   6.674   6.220  0.5733 -1.8743 -3.7320
   87MOL   H25031382   5.913   6.858   6.266  0.2041  0.1854 -1.3511
   87MOL   H25131383   6.031   6.980   6.218 -1.0880 -0.4959 -1.4134
   87MOL   H25231384   6.047   6.795   6.444  3.8479 -1.6400 -0.2264
   87MOL   H25331385   6.180   6.920   6.407  0.1919 -0.4511 -1.5020
   87MOL   C25431386   5.985   6.974   6.622 -0.5814 -0.2506 -0.0183
   87MOL   O25531387   6.010   6.867   6.681 -0.5208 -0.0843  0.0769
   87MOL   C25631388   5.948   7.101   6.693  0.0226  1.1030 -0.1364
   87MOL   C25731389   6.033   7.226   6.668 -0.5937 -0.0900  0.7301
   87MOL   C25831390   5.951   7.349   6.624  0.0490  0.0536  0.1450
   87MOL   C25931391   5.857   7.398   6.739  0.3294 -0.1901 -0.0363
   87MOL   C26031392   5.786   7.532   6.713 -0.3485 -0.5294 -0.1606
   87MOL   O26131393   5.884   7.637   6.714 -0.4994 -0.2735 -0.9184
   87MOL   H26231394   5.957   7.069   6.796 -0.1443 -2.3922 -1.1640
   87MOL   H26331395   5.847   7.132   6.665  0.8484  2.8175 -1.3521
   87MOL   H26431396   6.103   7.192   6.592 -0.2050 -2.0954  1.9299
   87MOL   H26531397   6.099   7.248   6.752 -0.9260 -0.5349  1.1123
   87MOL   H26631398   5.901   7.334   6.528  0.5394  0.5676 -0.1952
   87MOL   H26731399   6.020   7.433   6.616  1.0579 -0.8841 -1.3431
   87MOL   H26831400   5.904   7.398   6.837 -1.8881 -0.4780  1.0629
   87MOL   H26931401   5.780   7.321   6.747  1.7980 -1.6650  0.0672
   87MOL   H27031402   5.727   7.525   6.622 -1.5330 -1.8228  0.6989
   87MOL   H27131403   5.718   7.541   6.798  1.6276 -0.9714  1.5080
   87MOL   C27231404   5.855   7.759   6.767  0.0362 -0.2516  0.9078
   87MOL   O27331405   5.748   7.799   6.809 -0.1967 -0.3063 -0.3995
   87MOL   C27431406   5.979   0.001   6.777 -0.7092  0.1881 -0.6199
   87MOL   C27531407   6.066   7.801   6.895  0.2360  0.0738  0.0286
   87MOL   C27631408   6.120   7.665   6.892 -0.2111 -0.5364 -0.3581
   87MOL   C27731409   6.242   7.649   6.976 -0.4215 -0.0721  0.2515
   87MOL   C27831410   6.297   7.509   6.967  0.2590  0.3120  0.1241
   87MOL   O27931411   6.396   7.483   7.075  0.2531 -0.3864 -0.2418
   87MOL   H28031412   5.960   0.108   6.784 -0.3861  0.1838  0.3617
   87MOL   H28131413   6.033   7.827   6.684  0.6451 -1.0063  0.3768
   87MOL   H28231414   6.008   7.800   6.987 -1.5921  1.6372 -1.0585
   87MOL   H28331415   6.140   0.035   6.911 -1.3107  1.8192 -1.1308
   87MOL   H28431416   6.150   7.628   6.794  0.0945  0.4384 -0.6348
   87MOL   H28531417   6.045   7.590   6.916  1.9449 -2.5278  0.2643
   87MOL   H28631418   6.206   7.662   7.078  0.6158  1.4226  0.4437
   87MOL   H28731419   6.316   7.725   6.951  2.9179 -3.5443 -0.9170
   87MOL   H28831420   6.219   7.434   6.983  1.3073 -1.0254 -0.9952
   87MOL   H28931421   6.342   7.493   6.869 -1.0017 -0.6727 -0.2972
   87MOL   C29031422   6.349   7.414   7.191 -0.4099 -0.6528 -0.1488
   87MOL   O29131423   6.237   7.371   7.204  0.9896  0.1917  0.1444
   87MOL   C29231424   6.450   7.415   7.300  0.0977  0.8553 -0.1595
   87MOL   C29331425   6.488   7.549   7.360 -0.9608 -0.1183 -0.1437
   87MOL   C29431426   6.413   7.575   7.500 -0.0107 -0.1699  0.0212
   87MOL   C29531427   6.471   7.690   7.590  0.2305 -0.3258 -0.0388
   87MOL   C29631428   6.405   7.696   7.722 -0.0030  0.0390 -0.6023
   87MOL   O29731429   6.461   7.804   7.797  0.4919  0.2713  0.4081
   87MOL   H29831430   6.526   7.343   7.271 -1.2739 -0.8910  0.4788
   87MOL   H29931431   6.422   7.347   7.381 -0.1552  1.7400  0.5041
   87MOL   H30031432   6.478   7.631   7.288 -1.1701  0.6635  0.7759
   87MOL   H30131433   6.595   7.547   7.384 -1.1424 -2.9068  0.5405
   87MOL   H30231434   6.438   7.489   7.563  1.0177  0.2532  0.1989
   87MOL   H30331435   6.304   7.573   7.500  0.0072 -2.0343  0.3044
   87MOL   H30431436   6.463   7.785   7.538 -1.2248 -0.4040  0.0250
   87MOL   H30531437   6.579   7.681   7.603  0.3522  1.6394  0.4289
   87MOL   H30631438   6.299   7.720   7.711 -0.5233 -1.5069  0.7559
   87MOL   H30731439   6.417   7.604   7.780  2.4221 -0.0258 -1.1818
   87MOL   C30831440   6.488   7.787   0.077 -0.0357 -0.0440  0.5754
   87MOL   O30931441   6.489   7.675   0.132  0.4653  0.1020  0.2991
   87MOL   C31031442   6.506   0.068   0.161 -0.0410  0.3015  0.2389
   87MOL   C31131443   6.588   0.060   0.294 -0.4871  0.2581  0.2584
   87MOL   C31231444   6.506   0.001   0.413  0.0499  0.5749  0.2937
   87MOL   C31331445   6.591   7.838   0.544  0.0850 -0.4642 -0.7768
   87MOL   C31431446   6.541   7.741   0.648  0.3223  0.0902  0.3981
   87MOL   O31531447   6.584   7.782   0.779 -0.4770 -0.8128 -0.2320
   87MOL   H31631448   6.413   0.121   0.183  0.8873  1.4757  1.4175
   87MOL   H31731449   6.569   0.125   0.093  0.6327  1.6905  1.9857
   87MOL   H31831450   6.632   0.157   0.321 -0.6876  0.3963  0.0915
   87MOL   H31931451   6.677   0.000   0.276 -0.9710 -0.0740 -1.1039
   87MOL   H32031452   6.456   7.752   0.389  0.5758  0.3463  0.0823
   87MOL   H32131453   6.436   0.080   0.442  2.4590  2.0907  2.1989
   87MOL   H32231454   6.577   0.093   0.587  3.3429 -0.5342  0.6394
   87MOL   H32331455   6.699   7.832   0.537  0.1230  0.1842 -0.7870
   87MOL   H32431456   6.432   7.742   0.643  0.2810 -1.1860  0.8003
   87MOL   H32531457   6.573   7.640   0.621 -1.3351 -0.0545 -1.0948
   87MOL   C32631458   6.498   7.837   0.858 -0.2034 -0.7974  0.4252
   87MOL   O32731459   6.380   0.009   0.835  0.0750  0.1112  0.1565
   87MOL   C32831460   6.554   0.025   0.999 -0.3985  0.0064  0.3635
   87MOL   C32931461   6.667   0.131   0.993 -0.3649 -0.2872 -0.8695
   87MOL   C33031462   6.602   0.276   0.994 -0.5223  0.1529 -0.5120
   87MOL   C33131463   6.694   0.392   0.964  0.3281 -0.4376 -0.8844
   87MOL   C33231464   6.619   0.517   0.922 -0.0264  0.7183 -0.5029
   87MOL   O33331465   6.514   0.551   1.014 -0.0236  0.0291  0.1601
   87MOL   H33431466   6.591   7.776   1.041  0.1560  0.1838  0.2630
   87MOL   H33531467   6.468   0.046   1.062  1.7710  3.1764  2.3667
   87MOL   H33631468   6.724   0.112   0.903 -0.2862 -1.6591 -0.5439
   87MOL   H33731469   6.726   0.112   1.083 -1.0696 -1.5083 -0.6426
   87MOL   H33831470   6.547   0.284   1.088  0.3914 -1.1849  0.1437
   87MOL   H33931471   6.533   0.263   0.910  0.3411  1.8752 -1.4912
   87MOL   H34031472   6.763   0.376   0.881  1.0142  1.3454 -0.6744
   87MOL   H34131473   6.761   0.413   1.047  0.4631  2.6395 -1.6972
   87MOL   H34231474   6.686   0.603   0.911 -0.6661  1.1852 -0.8627
   87MOL   H34331475   6.568   0.506   0.826 -0.2502 -4.8372  0.1345
   87MOL   C34431476   6.487   0.680   1.040  0.1240  0.2844  0.2662
   87MOL   O34531477   6.561   0.778   1.018 -0.0587 -0.0272  0.8763
   87MOL   C34631478   6.356   0.699   1.121  0.3840  0.4035 -0.0379
   87MOL   C34731479   6.354   0.628   1.258  0.3072  0.3229  0.3860
   87MOL   C34831480   6.478   0.664   1.338  0.0911 -0.3718 -0.0563
   87MOL   C34931481   6.479   0.622   1.483 -0.5296 -0.0960 -0.4543
   87MOL   C35031482   6.598   0.665   1.573 -0.1783 -0.0553  0.3257
   87MOL   O35131483   6.592   0.603   1.701 -0.5820  0.4223 -0.2245
   87MOL   H35231484   6.269   0.666   1.065 -1.1867  0.3457  2.3512
   87MOL   H35331485   6.333   0.805   1.135 -0.0475 -0.0695  3.2155
   87MOL   H35431486   6.344   0.520   1.249  0.5443  0.3963 -0.7853
   87MOL   H35531487   6.269   0.667   1.314 -0.6550 -0.5985 -0.4168
   87MOL   H35631488   6.495   0.771   1.340  0.0567 -0.3050 -2.3978
   87MOL   H35731489   6.562   0.620   1.284 -0.4680  0.7106 -1.8369
   87MOL   H35831490   6.473   0.514   1.493  0.7508  0.0720  2.6684
   87MOL   H35931491   6.378   0.652   1.513 -0.5178  1.8369 -2.2772
   87MOL   H36031492   6.691   0.646   1.519 -0.2555 -0.8267  0.4609
   87MOL   H36131493   6.604   0.773   1.585  0.6162  0.1735 -1.8209
   87MOL   H36231494   6.610   0.510   1.703  0.8574  0.5014 -4.4032
   88MOL     C131495   7.496   6.662   2.407 -0.7346  0.4632 -0.9130
   88MOL     O231496   7.457   6.588   2.502  0.0340  0.3364  0.0917
   88MOL     C331497   7.589   6.607   2.300 -0.0271 -0.3708 -0.2709
   88MOL     C431498   7.571   6.454   2.262 -0.2652  0.1137  0.2638
   88MOL     C531499   7.466   6.433   2.154  0.8434 -0.0667 -0.2196
   88MOL     C631500   7.318   6.465   2.185  0.4035  0.3923  0.1659
   88MOL     C731501   7.232   6.394   2.068 -0.0294 -0.7110 -0.4364
   88MOL     O831502   7.095   6.408   2.071 -0.1047 -0.3219 -0.1851
   88MOL     H931503   7.686   6.627   2.345 -0.9965  0.1464  1.6752
   88MOL    H1031504   7.586   6.676   2.215 -1.4902  0.2152  0.2277
   88MOL    H1131505   7.564   6.401   2.357  1.3558 -0.1156  0.2751
   88MOL    H1231506   7.665   6.421   2.218 -0.2217  0.9064 -0.2647
   88MOL    H1331507   7.475   6.329   2.122  0.8026  0.0248 -0.5281
   88MOL    H1431508   7.507   6.501   2.079 -0.0741  0.0499 -0.6183
   88MOL    H1531509   7.298   6.572   2.195  1.1284  0.5001  0.4536
   88MOL    H1631510   7.288   6.422   2.281 -1.2300 -0.8461 -0.8796
   88MOL    H1731511   7.264   6.436   1.973  1.6463  0.5463  0.6621
   88MOL    H1831512   7.264   6.289   2.069  2.5736  0.0544 -1.2660
   88MOL    H1931513   7.470   6.766   2.394 -1.7445  0.3781  0.3158
   88MOL    C2031514   7.024   6.374   1.958  0.5679  0.3756 -0.9319
   88MOL    O2131515   7.067   6.323   1.859  0.1265  0.8981  0.2915
   88MOL    C2231516   6.875   6.376   1.981  0.2734  0.3161  0.0535
   88MOL    C2331517   6.822   6.504   2.050 -0.4924  0.3359 -0.6771
   88MOL    C2431518   6.664   6.505   2.066  0.7321 -0.2754  0.3162
   88MOL    C2531519   6.613   6.647   2.107  0.2385 -0.2315  0.1409
   88MOL    C2631520   6.459   6.648   2.130  0.7528  0.4137  0.8002
   88MOL    O2731521   6.425   6.768   2.200 -0.3907  0.7371 -0.3359
   88MOL    H2831522   6.847   6.290   2.042  0.4475  1.0902  1.2541
   88MOL    H2931523   6.833   6.369   1.881  0.0209 -1.4716  0.2619
   88MOL    H3031524   6.854   6.593   1.994  2.1602  0.7654  1.4084
   88MOL    H3131525   6.867   6.502   2.149  0.0939 -0.7059 -0.9673
   88MOL    H3231526   6.637   6.431   2.141 -1.0374 -0.1941 -0.2171
   88MOL    H3331527   6.625   6.481   1.967  1.3008 -0.6535  0.1829
   88MOL    H3431528   6.648   6.714   2.029 -0.8292 -1.4294 -1.4062
   88MOL    H3531529   6.654   6.686   2.200  0.7215 -0.7092  0.1295
   88MOL    H3631530   6.409   6.636   2.034  1.0572 -0.6610  0.7678
   88MOL    H3731531   6.433   6.557   2.186  1.9479 -0.9621 -0.8276
   88MOL    C3831532   6.397   6.761   2.329  0.5350 -0.4586  0.0486
   88MOL    O3931533   6.387   6.657   2.392 -0.0175 -0.3521 -0.0677
   88MOL    C4031534   6.371   6.899   2.398  0.2336 -0.3411  0.3050
   88MOL    C4131535   6.470   7.010   2.360  0.4111  0.4761  0.7217
   88MOL    C4231536   6.616   7.000   2.416 -1.1761 -0.8055 -0.3191
   88MOL    C4331537   6.705   7.101   2.350 -0.3844  0.3502  0.2016
   88MOL    C4431538   6.847   7.109   2.417 -0.0419  0.0839  0.0321
   88MOL    O4531539   6.925   7.219   2.379 -0.0906 -0.3621 -0.4488
   88MOL    H4631540   6.369   6.892   2.506 -0.8774  1.6281  0.4272
   88MOL    H4731541   6.274   6.933   2.362 -0.2892 -0.4633  1.5942
   88MOL    H4831542   6.440   7.106   2.401 -1.2639 -0.4511  1.6819
   88MOL    H4931543   6.474   7.019   2.251  1.1573 -3.9212  0.2932
   88MOL    H5031544   6.675   6.910   2.399  0.6427  0.1165  0.9548
   88MOL    H5131545   6.614   7.012   2.524 -2.7582  0.9976 -0.5177
   88MOL    H5231546   6.658   7.199   2.353  0.6289  0.8782 -1.0963
   88MOL    H5331547   6.718   7.072   2.246  0.9747 -0.1159  0.4963
   88MOL    H5431548   6.836   7.123   2.524  1.7371  0.2697  0.2008
   88MOL    H5531549   6.896   7.014   2.396  2.6434  1.7845 -1.6936
   88MOL    C5631550   7.038   7.248   2.442  0.1238  0.0824 -0.1750
   88MOL    O5731551   7.086   7.191   2.537  0.2314  0.0689 -0.1274
   88MOL    C5831552   7.111   7.376   2.387 -0.3392 -0.6437  0.7204
   88MOL    C5931553   7.158   7.358   2.240  0.1174 -1.0272 -0.1392
   88MOL    C6031554   7.217   7.497   2.185  0.4672  0.5792  0.1238
   88MOL    C6131555   7.344   7.551   2.248  0.1456 -0.0561 -0.0961
   88MOL    C6231556   7.369   7.695   2.207  0.0190 -0.4534  0.5101
   88MOL    O6331557   7.388   7.705   2.070  0.5849  0.3359 -0.4457
   88MOL    H6431558   7.199   7.398   2.448  0.5259 -0.3975 -0.5890
   88MOL    H6531559   7.049   7.465   2.393  0.5965  0.4719 -4.1876
   88MOL    H6631560   7.075   7.337   2.172  1.7422 -3.1263 -1.5262
   88MOL    H6731561   7.224   7.272   2.230 -1.2158 -1.8942 -1.6675
   88MOL    H6831562   7.135   7.569   2.190  0.1787  0.4572 -2.4582
   88MOL    H6931563   7.245   7.487   2.080  2.0473  2.4490  0.3199
   88MOL    H7031564   7.428   7.483   2.228  1.2003  0.9526  0.8187
   88MOL    H7131565   7.332   7.549   2.356 -1.2155  1.0041 -0.2220
   88MOL    H7231566   7.294   7.770   2.230  1.5449  2.1770 -2.7396
   88MOL    H7331567   7.462   7.723   2.256 -0.4514  0.4613  0.8774
   88MOL    C7431568   7.409   7.824   2.017 -0.0901 -0.2932 -0.0795
   88MOL    O7531569   7.416   0.084   2.082  0.5389 -0.3805  0.9477
   88MOL    C7631570   7.418   7.820   1.860  0.4351 -0.2362 -0.1821
   88MOL    C7731571   7.456   0.099   1.781 -1.1074 -0.2990  0.5540
   88MOL    C7831572   7.340   0.196   1.765  0.7187 -0.0456 -0.0085
   88MOL    C7931573   7.378   0.331   1.696  0.2036  0.2744 -0.6057
   88MOL    C8031574   7.259   0.435   1.717 -0.2739 -0.3115  1.2232
   88MOL    O8131575   7.311   0.564   1.690  0.0404  0.4514 -0.0662
   88MOL    H8231576   7.321   7.779   1.832  1.2925 -1.3759 -1.5349
   88MOL    H8331577   7.493   7.750   1.823  0.1982 -1.0551  0.8623
   88MOL    H8431578   7.465   0.072   1.676  0.5118  0.4515  0.4952
   88MOL    H8531579   7.551   0.145   1.808 -1.1602  0.1812 -0.0813
   88MOL    H8631580   7.298   0.215   1.864  0.3896 -1.3472  0.1075
   88MOL    H8731581   7.266   0.144   1.705  0.2762 -0.0888  0.5655
   88MOL    H8831582   7.385   0.309   1.589  0.2420 -0.4689 -0.4537
   88MOL    H8931583   7.475   0.356   1.739  0.7119 -3.3925  0.6247
   88MOL    H9031584   7.168   0.405   1.664 -0.1496 -0.4374  1.0813
   88MOL    H9131585   7.234   0.444   1.822  0.2214 -0.2835  1.3369
   88MOL    C9231586   7.300   0.617   1.568  0.2015 -0.4311  0.2556
   88MOL    O9331587   7.239   0.573   1.471 -0.2890 -0.4176 -0.4580
   88MOL    C9431588   7.378   0.751   1.563 -0.1475  0.4732  0.5710
   88MOL    C9531589   7.523   0.729   1.507 -0.0307  0.2520  0.1137
   88MOL    C9631590   7.614   0.633   1.583 -0.3492 -0.1207 -0.6370
   88MOL    C9731591   7.759   0.625   1.532  0.0449 -0.2036 -0.0718
   88MOL    C9831592   7.841   0.528   1.619  0.3244 -0.4547 -0.2987
   88MOL    O9931593   7.812   0.395   1.596  0.4188 -0.3230  0.4884
   88MOL   H10031594   7.384   0.792   1.664  1.6140  0.3402  0.5381
   88MOL   H10131595   7.316   0.814   1.499 -0.8700 -0.4515  0.3434
   88MOL   H10231596   7.552   0.834   1.506 -0.1763  0.2887 -1.5825
   88MOL   H10331597   7.526   0.702   1.401  0.7074 -0.6412  0.3512
   88MOL   H10431598   7.567   0.537   1.603 -0.0887 -0.5050 -1.8031
   88MOL   H10531599   7.633   0.668   1.684  0.4956 -2.2144 -0.0646
   88MOL   H10631600   7.793   0.728   1.539 -0.5358 -0.1290  1.7428
   88MOL   H10731601   7.747   0.587   1.430  0.1982 -1.2514  0.2954
   88MOL   H10831602   0.105   0.539   1.610  0.3276  0.5712  0.9119
   88MOL   H10931603   7.826   0.550   1.725  0.2381 -0.6400 -0.2736
   88MOL   C11031604   0.050   0.319   1.529 -0.4634  0.1370  0.9123
   88MOL   O11131605   0.166   0.344   1.500  0.2815 -0.2344  0.3749
   88MOL   C11231606   7.831   0.197   1.467  0.3054 -0.0794  0.4160
   88MOL   C11331607   7.787   0.100   1.581  0.1386 -0.3982 -0.5220
   88MOL   C11431608   0.055   0.022   1.658  0.2369 -0.0584 -0.4583
   88MOL   C11531609   7.835   7.780   1.777 -0.6275  0.3814  0.0735
   88MOL   C11631610   0.104   7.720   1.858 -0.6208 -0.0750  0.3067
   88MOL   O11731611   0.202   7.645   1.776 -0.0774 -0.2149 -0.9281
   88MOL   H11831612   0.047   0.145   1.393  0.4321  1.9220 -0.9074
   88MOL   H11931613   7.737   0.230   1.423  0.4173  1.7938  1.5149
   88MOL   H12031614   7.720   0.018   1.554 -0.0016 -0.4994  0.1179
   88MOL   H12131615   7.745   0.154   1.666  0.8584 -0.4533 -0.1282
   88MOL   H12231616   0.123   0.093   1.705 -1.6112  1.4127  0.0525
   88MOL   H12331617   0.115   7.809   1.587  3.3668  2.2955  0.1356
   88MOL   H12431618   7.774   7.701   1.733  0.5882 -0.6009  0.1375
   88MOL   H12531619   7.773   7.839   1.844  1.2378  0.9683  1.3326
   88MOL   H12631620   0.163   7.793   1.913  0.3357  0.0245 -0.8184
   88MOL   H12731621   0.078   7.654   1.941 -3.0254  0.5054  0.0344
   88MOL   C12831622   0.312   7.604   1.822  0.0696 -0.4901 -0.1633
   88MOL   O12931623   0.356   7.627   1.932 -0.4020  0.1613 -0.0483
   88MOL   C13031624   0.393   7.520   1.713 -0.4470  0.8233  0.6884
   88MOL   C13131625   0.526   7.449   1.767 -0.1547  0.3217 -0.2189
   88MOL   C13231626   0.635   7.544   1.803  0.2028 -0.5655  0.3019
   88MOL   C13331627   0.772   7.489   1.800  0.5684  0.0214 -0.8497
   88MOL   C13431628   0.886   7.591   1.816  0.5937  0.8223 -0.4689
   88MOL   O13531629   1.013   7.527   1.828 -0.4029  0.4798  0.7523
   88MOL   H13631630   0.414   7.593   1.635  0.4847 -0.7747 -0.6002
   88MOL   H13731631   0.332   7.446   1.662 -1.5716 -0.3418  3.5861
   88MOL   H13831632   0.563   7.391   1.682 -1.1400 -0.4973 -0.0985
   88MOL   H13931633   0.496   7.379   1.844  2.1747 -1.0351 -0.5039
   88MOL   H14031634   0.615   7.581   1.904  0.4658  0.0397  0.1299
   88MOL   H14131635   0.631   7.630   1.737 -1.2580 -0.3014  0.7110
   88MOL   H14231636   0.787   7.451   1.699 -0.4773  1.0009 -1.3883
   88MOL   H14331637   0.786   7.412   1.876  0.2686  0.6016 -0.2017
   88MOL   H14431638   0.881   7.661   1.732  0.1187  3.3782  1.6122
   88MOL   H14531639   0.862   7.645   1.908  0.6628  2.5700 -1.4595
   88MOL   C14631640   1.090   7.500   1.724  0.0761 -0.2651 -0.7796
   88MOL   O14731641   1.077   7.535   1.606 -0.4495 -0.0946 -0.5552
   88MOL   C14831642   1.192   7.398   1.762 -0.8583  0.7649 -0.2292
   88MOL   C14931643   1.333   7.419   1.696  0.3794 -0.0937  0.6593
   88MOL   C15031644   1.427   7.512   1.786 -0.4931  0.4516  0.2155
   88MOL   C15131645   1.563   7.550   1.731 -0.1960 -0.4030 -0.3608
   88MOL   C15231646   1.631   7.652   1.817 -0.2332 -0.1365 -0.5367
   88MOL   O15331647   1.726   7.724   1.749 -0.2382  0.2503  0.1208
   88MOL   H15431648   1.145   7.305   1.728  1.0445 -0.2485 -0.1795
   88MOL   H15531649   1.210   7.386   1.869  2.7204  0.7602 -0.7560
   88MOL   H15631650   1.321   7.454   1.594  0.8563 -3.2839 -0.5602
   88MOL   H15731651   1.387   7.324   1.688  1.2204  0.4576 -0.2294
   88MOL   H15831652   1.457   7.456   1.875 -0.9785  0.7935  0.5989
   88MOL   H15931653   1.378   7.604   1.818  0.2744  1.2768 -0.9234
   88MOL   H16031654   1.545   7.600   1.636 -0.4849 -2.2505 -1.3027
   88MOL   H16131655   1.636   7.471   1.719  0.9954  0.0950  3.0803
   88MOL   H16231656   1.565   7.731   1.853  0.1801  0.3098 -0.7491
   88MOL   H16331657   1.670   7.598   1.904  0.6393 -0.2935 -1.0223
   88MOL   C16431658   1.828   7.782   1.816  0.4992 -0.4580 -0.3708
   88MOL   O16531659   1.838   7.780   1.942  1.0554  0.7159  0.0073
   88MOL   C16631660   1.923   0.022   1.729 -0.0592 -0.1708 -0.3877
   88MOL   C16731661   2.040   0.081   1.816  0.3103 -0.3028  0.0862
   88MOL   C16831662   2.154   0.132   1.729  0.0622  0.0921  0.3118
   88MOL   C16931663   2.284   0.179   1.798  0.5141 -0.7618 -0.1946
   88MOL   C17031664   2.386   0.226   1.690  0.2738 -0.4928  0.5166
   88MOL   O17131665   2.505   0.256   1.762 -0.2974  0.1219 -0.0752
   88MOL   H17231666   1.859   0.094   1.678 -0.8555 -0.1804  0.5767
   88MOL   H17331667   1.967   7.803   1.653  1.3444  0.5473 -0.1840
   88MOL   H17431668   2.086   0.004   1.879 -0.6946 -0.5188  0.5765
   88MOL   H17531669   1.999   0.158   1.882  2.9923  0.8030  0.5351
   88MOL   H17631670   2.119   0.215   1.668  2.7625 -0.6920 -2.4394
   88MOL   H17731671   2.179   0.051   1.660 -1.0023  0.2805 -0.3005
   88MOL   H17831672   2.333   0.109   1.866 -0.6911  0.1760  1.6858
   88MOL   H17931673   2.258   0.262   1.864 -3.8069 -1.2123 -1.1692
   88MOL   H18031674   2.415   0.145   1.622  0.2799 -1.2271  1.3835
   88MOL   H18131675   2.344   0.315   1.644  0.8480  0.7532  2.3448
   88MOL   C18231676   2.617   0.312   1.716  0.4885  0.6694 -0.1849
   88MOL   O18331677   2.627   0.348   1.601 -0.2836  0.0326 -0.5291
   88MOL   C18431678   2.728   0.324   1.816  0.5723 -0.4576 -0.2992
   88MOL   C18531679   2.801   0.461   1.811  0.2200  0.2841  0.1114
   88MOL   C18631680   2.897   0.501   1.930 -0.0990  0.0179 -0.0959
   88MOL   C18731681   2.970   0.630   1.899 -0.2659 -0.7940 -0.4233
   88MOL   C18831682   3.071   0.685   1.997  0.4693 -0.1928 -0.5591
   88MOL   O18931683   3.097   0.822   1.970  0.1043 -0.1389 -0.3716
   88MOL   H19031684   2.790   0.235   1.803 -0.7341 -1.1654 -1.8957
   88MOL   H19131685   2.689   0.314   1.917  0.6818  0.3555 -0.1782
   88MOL   H19231686   2.729   0.540   1.791 -1.0616 -1.0385 -0.6072
   88MOL   H19331687   2.856   0.477   1.718 -0.6310 -0.8130 -0.5905
   88MOL   H19431688   2.964   0.418   1.953  0.1769  0.5453  1.0326
   88MOL   H19531689   2.840   0.513   2.022 -0.7305 -0.2796 -0.4431
   88MOL   H19631690   2.895   0.708   1.890  2.5728  1.9579 -1.0889
   88MOL   H19731691   3.030   0.627   1.808 -1.9910 -1.2164 -1.5642
   88MOL   H19831692   3.043   0.678   2.103  2.1422  1.6218  0.0249
   88MOL   H19931693   3.162   0.625   1.999  0.1221 -0.7343 -0.6320
   88MOL   C20031694   3.197   0.855   1.893  0.3722 -0.4700 -0.3601
   88MOL   O20131695   3.268   0.778   1.834 -0.6440 -0.2884  0.3556
   88MOL   C20231696   3.212   1.005   1.884  0.3209 -0.0990 -0.0592
   88MOL   C20331697   3.243   1.047   1.736  0.1342 -1.0662 -0.4308
   88MOL   C20431698   3.136   1.014   1.629 -0.0543  0.0044 -0.1007
   88MOL   C20531699   3.169   1.078   1.495 -0.2783 -0.3240  0.1092
   88MOL   C20631700   3.116   1.012   1.370 -0.1924 -0.4085  0.7373
   88MOL   O20731701   2.976   0.975   1.372  0.3259 -0.3186  0.0956
   88MOL   H20831702   3.297   1.038   1.943 -1.1544  1.9744  0.9539
   88MOL   H20931703   3.120   1.056   1.909 -0.8247 -0.8296 -2.6010
   88MOL   H21031704   3.337   0.999   1.708 -0.8597 -2.6290 -1.1340
   88MOL   H21131705   3.254   1.155   1.738 -0.6661 -0.9734 -0.8005
   88MOL   H21231706   3.033   1.041   1.654 -1.8035 -4.5081 -1.9118
   88MOL   H21331707   3.128   0.906   1.617 -0.7885  0.0219  0.1976
   88MOL   H21431708   3.278   1.075   1.481 -0.5067 -2.0762 -1.5327
   88MOL   H21531709   3.144   1.184   1.502 -1.0357 -0.6071  1.7070
   88MOL   H21631710   3.128   1.082   1.287  0.0743 -0.4452  0.7428
   88MOL   H21731711   3.157   0.917   1.335 -3.2072 -1.3731 -0.3686
   88MOL   C21831712   2.923   0.923   1.259 -0.5636  0.2477  0.2050
   88MOL   O21931713   2.975   0.920   1.154  0.3141 -0.2129  0.0589
   88MOL   C22031714   2.776   0.883   1.278  0.4351 -0.4013  0.8186
   88MOL   C22131715   2.678   0.993   1.303  0.9595 -0.3567  0.0843
   88MOL   C22231716   2.661   1.095   1.192 -0.4414 -0.5377  0.4331
   88MOL   C22331717   2.533   1.168   1.202  0.1219  0.3271 -0.4125
   88MOL   C22431718   2.517   1.275   1.096 -0.0265  0.7056  0.3545
   88MOL   O22531719   2.421   1.376   1.142  0.0426 -0.2278  0.5301
   88MOL   H22631720   2.776   0.819   1.366  0.1281  2.0049  2.6158
   88MOL   H22731721   2.745   0.813   1.200  2.4839 -1.5720  1.0232
   88MOL   H22831722   2.696   1.048   1.396  1.4376  0.5105 -0.5140
   88MOL   H22931723   2.582   0.945   1.319 -2.2730  5.5521 -0.0334
   88MOL   H23031724   2.661   1.036   1.100  1.8918  2.8590 -1.8400
   88MOL   H23131725   2.752   1.155   1.195 -0.1100 -1.0667  1.4505
   88MOL   H23231726   2.521   1.211   1.301 -1.7790 -1.4412  0.1562
   88MOL   H23331727   2.441   1.109   1.198  0.0950  0.1421  2.3333
   88MOL   H23431728   2.617   1.318   1.088  0.3512 -0.2497 -0.1071
   88MOL   H23531729   2.497   1.231   0.999  0.7425  1.5939 -0.2150
   88MOL   C23631730   2.403   1.486   1.079 -0.5112 -0.7465 -0.5593
   88MOL   O23731731   2.455   1.527   0.974  0.3866  0.6159 -0.5091
   88MOL   C23831732   2.296   1.573   1.141 -0.0212  0.8616  0.0434
   88MOL   C23931733   2.160   1.502   1.147  0.2304 -0.0043 -0.1012
   88MOL   C24031734   2.048   1.572   1.224  0.6246  0.1051  0.5626
   88MOL   C24131735   1.938   1.474   1.262  0.4247 -0.1071 -0.1974
   88MOL   C24231736   1.838   1.533   1.357  0.6771  0.4232  0.0772
   88MOL   O24331737   1.727   1.453   1.390 -0.1726 -0.4017  0.3667
   88MOL   H24431738   2.275   1.661   1.081 -1.1791  1.2121  0.9444
   88MOL   H24531739   2.328   1.607   1.239 -1.4001  0.3307  0.6954
   88MOL   H24631740   2.181   1.404   1.190  1.3062  1.4401  2.7636
   88MOL   H24731741   2.114   1.490   1.049  2.5300 -0.2790 -1.1972
   88MOL   H24831742   2.015   1.656   1.163 -0.3715  0.0928  1.0717
   88MOL   H24931743   2.092   1.618   1.313 -2.4736  1.5286  1.4431
   88MOL   H25031744   1.992   1.388   1.303 -0.7467 -0.6890  0.1391
   88MOL   H25131745   1.912   1.435   1.163  2.6604 -0.9498 -0.4984
   88MOL   H25231746   1.895   1.567   1.444  0.4534  0.3036  0.2696
   88MOL   H25331747   1.794   1.624   1.316 -1.9404 -0.1072  1.5655
   88MOL   C25431748   1.749   1.367   1.497  0.0468  0.0140 -0.3872
   88MOL   O25531749   1.856   1.350   1.557  0.1454 -0.4415  0.1210
   88MOL   C25631750   1.619   1.293   1.527  0.4920  0.1722 -0.1667
   88MOL   C25731751   1.624   1.149   1.482  0.3810  0.0484 -0.1684
   88MOL   C25831752   1.582   1.121   1.337 -0.0216  0.0896  0.0379
   88MOL   C25931753   1.615   0.980   1.287  0.6914 -0.4810 -0.1852
   88MOL   C26031754   1.545   0.938   1.158 -0.0368  0.2781 -0.1337
   88MOL   O26131755   1.526   0.794   1.147  0.5041 -0.0618 -0.0726
   88MOL   H26231756   1.531   1.347   1.492  0.4737 -0.2833 -0.8357
   88MOL   H26331757   1.596   1.290   1.633  0.4525 -0.3691 -0.1883
   88MOL   H26431758   1.577   1.084   1.556  1.5923  0.3813  0.8952
   88MOL   H26531759   1.724   1.109   1.495  0.7791  0.6579 -1.3461
   88MOL   H26631760   1.607   1.209   1.277 -0.5150  0.3682  0.2363
   88MOL   H26731761   1.474   1.137   1.340 -0.2911 -1.4752 -1.1106
   88MOL   H26831762   1.589   0.911   1.368 -0.7289 -1.1170 -1.1695
   88MOL   H26931763   1.723   0.968   1.276  1.0131  1.0182  1.1264
   88MOL   H27031764   1.445   0.982   1.150 -0.3875 -0.0376  2.0059
   88MOL   H27131765   1.596   0.977   1.071  0.2183  1.3020  0.4665
   88MOL   C27231766   1.440   0.749   1.055 -0.3255  0.4892 -1.2144
   88MOL   O27331767   1.370   0.822   0.986 -0.0419  0.2614 -0.0130
   88MOL   C27431768   1.432   0.604   1.054 -0.0650  0.1890  0.6004
   88MOL   C27531769   1.553   0.537   0.998  0.0104 -0.4697  0.1760
   88MOL   C27631770   1.551   0.483   0.860 -0.1850 -0.0536  0.5137
   88MOL   C27731771   1.647   0.368   0.841 -0.1527 -0.5709 -0.2230
   88MOL   C27831772   1.637   0.305   0.705 -1.0209  0.9208 -0.0395
   88MOL   O27931773   1.744   0.209   0.686  0.0217  0.2197 -0.1220
   88MOL   H28031774   1.347   0.582   0.989  0.0395  0.8560  0.2329
   88MOL   H28131775   1.409   0.567   1.154 -2.5963 -0.0369 -0.0244
   88MOL   H28231776   1.594   0.459   1.063 -0.2842  0.2548  1.2369
   88MOL   H28331777   1.637   0.606   1.000  0.4235 -0.8501 -2.1331
   88MOL   H28431778   1.581   0.566   0.797  0.3626  0.2295  1.1452
   88MOL   H28531779   1.453   0.453   0.822  1.0617 -1.3690 -1.8043
   88MOL   H28631780   1.638   0.296   0.923  0.6187  1.6667  1.8890
   88MOL   H28731781   1.751   0.397   0.859 -0.6385  0.9383  0.2273
   88MOL   H28831782   1.542   0.260   0.678 -1.1954  1.8486 -0.9966
   88MOL   H28931783   1.665   0.383   0.633  2.2182 -1.5051 -1.5618
   88MOL   C29031784   1.781   0.177   0.560 -0.6522  0.1591 -0.5737
   88MOL   O29131785   1.734   0.224   0.458  0.1063 -0.2089 -0.1639
   88MOL   C29231786   1.899   0.081   0.561 -0.4309  0.0684  0.0370
   88MOL   C29331787   2.007   0.097   0.452  0.0352 -0.2062  0.1801
   88MOL   C29431788   2.091   0.224   0.445  0.3619 -0.3614  0.3349
   88MOL   C29531789   2.197   0.233   0.332  0.1762  0.5938 -0.2959
   88MOL   C29631790   2.291   0.350   0.325 -0.6135  0.2762 -0.1498
   88MOL   O29731791   2.232   0.447   0.244  0.5128 -0.0612 -0.2420
   88MOL   H29831792   1.863   7.822   0.555 -0.0789 -0.0095 -0.6798
   88MOL   H29931793   1.941   0.098   0.660 -0.8565  0.5740  0.1301
   88MOL   H30031794   1.965   0.079   0.352 -0.3899  1.6105  0.0120
   88MOL   H30131795   2.063   0.007   0.474 -1.9729 -1.1280  1.7289
   88MOL   H30231796   2.129   0.225   0.547 -0.4707  1.6639  0.6564
   88MOL   H30331797   2.031   0.315   0.441  0.0392 -0.6026 -0.4373
   88MOL   H30431798   2.145   0.203   0.241 -3.0398  0.6049  1.4446
   88MOL   H30531799   2.257   0.142   0.335  0.8547  1.0739  3.6563
   88MOL   H30631800   2.302   0.396   0.424 -0.5772  1.3930 -0.6576
   88MOL   H30731801   2.388   0.312   0.293  0.0531 -0.5754  2.6663
   88MOL   C30831802   2.145   0.544   0.283 -0.6393  0.2117 -0.4230
   88MOL   O30931803   2.112   0.564   0.400 -0.6273  0.0956  0.0155
   88MOL   C31031804   2.069   0.604   0.174  0.4448  0.2173 -0.2950
   88MOL   C31131805   1.994   0.497   0.097 -0.6153  0.0409  0.5327
   88MOL   C31231806   1.876   0.425   0.167  0.1292 -0.2526 -0.3497
   88MOL   C31331807   1.814   0.320   0.073  0.4791  0.0998  0.3908
   88MOL   C31431808   1.708   0.238   0.147 -0.0568 -0.1944 -0.0130
   88MOL   O31531809   1.647   0.152   0.053 -0.3948  0.2357 -0.3281
   88MOL   H31631810   2.136   0.659   0.109  0.2996  3.8189  2.4433
   88MOL   H31731811   1.991   0.673   0.206  0.1193 -1.0928  1.7971
   88MOL   H31831812   2.063   0.428   0.049  0.3955  0.7722  0.9058
   88MOL   H31931813   1.961   0.548   0.007 -0.6219  0.9024  1.0133
   88MOL   H32031814   1.805   0.492   0.216 -1.2531 -0.5561 -1.9134
   88MOL   H32131815   1.926   0.375   0.250 -1.1431 -2.9581 -1.1761
   88MOL   H32231816   1.898   0.260   0.038  1.0025  1.2814 -0.4075
   88MOL   H32331817   1.762   0.368   7.835  2.1286  0.9522 -0.1821
   88MOL   H32431818   1.763   0.191   0.229 -0.0892  1.1858  0.8220
   88MOL   H32531819   1.644   0.320   0.180  0.7494  0.9186 -1.1735
   88MOL   C32631820   1.709   0.035   0.026  0.3962  0.0885  0.1092
   88MOL   O32731821   1.788   7.817   0.098 -0.1007  0.0079 -0.1279
   88MOL   C32831822   1.664   7.818   7.738  0.1671 -0.2876  0.7225
   88MOL   C32931823   1.753   0.027   7.628 -0.2862 -0.1596 -0.0974
   88MOL   C33031824   1.902   7.824   7.638  0.1649 -0.6568 -0.4686
   88MOL   C33131825   1.979   0.024   7.515 -0.0622 -0.7036  0.2456
   88MOL   C33231826   2.129   7.806   7.517 -0.4875  0.1499  0.4018
   88MOL   O33331827   2.137   7.668   7.558  0.1079 -0.2178  0.5998
   88MOL   H33431828   1.560   7.843   7.721 -0.4976 -2.0612  2.1118
   88MOL   H33531829   1.670   7.710   7.744 -0.4089 -0.3841 -0.3699
   88MOL   H33631830   1.735   0.135   7.625 -0.1862 -0.1150  0.8774
   88MOL   H33731831   1.718   7.838   7.530 -1.3033  1.0268 -0.1622
   88MOL   H33831832   1.898   7.716   7.635 -1.3943 -0.5750 -2.0670
   88MOL   H33931833   1.957   0.003   7.729 -0.0568  2.6002 -1.0900
   88MOL   H34031834   1.993   0.131   7.505 -0.2892 -0.8285 -1.5044
   88MOL   H34131835   1.920   7.842   7.427  0.8931  2.2220 -1.3348
   88MOL   H34231836   2.174   7.815   7.419 -1.7646  1.3602 -0.0817
   88MOL   H34331837   2.185   0.030   7.580  0.6068  0.4826 -0.9276
   88MOL   C34431838   2.251   7.612   7.597  0.2653  0.3256 -0.0923
   88MOL   O34531839   2.361   7.671   7.599 -0.5428  0.4671  0.6660
   88MOL   C34631840   2.245   7.464   7.620 -0.3962 -0.7517 -0.3086
   88MOL   C34731841   2.365   7.392   7.689 -0.0837 -0.1833 -0.4226
   88MOL   C34831842   2.389   7.441   7.831 -0.0076 -0.3160  0.5909
   88MOL   C34931843   2.471   7.347   0.076  0.2495 -0.4082 -0.9782
   88MOL   C35031844   2.620   7.365   0.065  0.5754  0.1087 -0.0646
   88MOL   O35131845   2.681   7.301   0.173 -0.5613  0.1770  0.4130
   88MOL   H35231846   2.230   7.422   7.521  1.6058 -0.0859 -0.9270
   88MOL   H35331847   2.150   7.441   7.667 -2.1125  1.7705 -2.4097
   88MOL   H35431848   2.456   7.395   7.630 -0.3878 -0.3837 -0.9028
   88MOL   H35531849   2.343   7.286   7.691  2.0293 -0.6980 -2.4302
   88MOL   H35631850   2.291   7.459   0.030  0.1360 -1.0953  1.2594
   88MOL   H35731851   2.447   7.533   7.836  2.3170 -1.7188  0.3092
   88MOL   H35831852   2.452   7.245   0.043 -0.0117  0.0131 -2.1479
   88MOL   H35931853   2.442   7.351   0.181  0.9890 -1.2230 -0.7422
   88MOL   H36031854   2.656   7.332   7.812 -0.4728  0.2087 -0.4893
   88MOL   H36131855   2.650   7.469   0.079  1.9134 -0.4417  1.2968
   88MOL   H36231856   2.692   7.208   0.158  1.2187  0.7110 -1.9448
   89MOL     C131857   5.746   7.405   2.270  0.3022  0.0234  0.0719
   89MOL     O231858   5.810   7.299   2.272 -0.4089  0.1442  0.1015
   89MOL     C331859   5.684   7.456   2.138 -0.3728 -0.1542  0.0078
   89MOL     C431860   5.701   7.369   2.011 -0.5495  0.6003  0.2582
   89MOL     C531861   5.844   7.372   1.945  0.0267  0.2207  0.0155
   89MOL     C631862   5.862   7.265   1.842 -0.3310  0.0222  0.4787
   89MOL     C731863   5.997   7.259   1.768  0.3814 -1.1982  0.2874
   89MOL     O831864   6.030   7.374   1.692  0.0997 -0.0672 -0.0462
   89MOL     H931865   5.713   7.560   2.121  1.0689 -0.9032 -2.4296
   89MOL    H1031866   5.576   7.450   2.150 -0.3174  0.5626  0.9310
   89MOL    H1131867   5.625   7.396   1.938  0.9903  1.5589 -1.0244
   89MOL    H1231868   5.664   7.272   2.045  1.3161 -0.7551 -1.4322
   89MOL    H1331869   5.921   7.347   2.018  1.6645  0.3647 -1.6249
   89MOL    H1431870   5.867   7.471   1.905 -0.6567  0.3737 -0.0044
   89MOL    H1531871   5.788   7.262   1.762 -0.3279 -0.9312  0.5069
   89MOL    H1631872   5.875   7.165   1.885  3.0450 -0.1370 -0.8064
   89MOL    H1731873   6.074   7.242   1.843 -1.6443 -0.4940  2.5734
   89MOL    H1831874   6.008   7.169   1.708 -0.3743 -0.5032 -0.9214
   89MOL    H1931875   5.721   7.464   2.358 -0.0529  1.0607 -0.7117
   89MOL    C2031876   6.141   7.376   1.622  0.4254  0.2664  0.4062
   89MOL    O2131877   6.242   7.303   1.635 -0.2610 -0.5652  0.5512
   89MOL    C2231878   6.140   7.478   1.510 -0.1987  0.0595 -0.1651
   89MOL    C2331879   6.279   7.542   1.492 -0.2039  0.6203 -0.2781
   89MOL    C2431880   6.271   7.687   1.439  0.2390  0.5787  0.0929
   89MOL    C2531881   6.218   7.692   1.297  0.2471 -0.3941  0.1820
   89MOL    C2631882   6.218   7.837   1.236 -0.2118  0.1157  0.1202
   89MOL    O2731883   6.137   7.835   1.119  0.0212  0.4135  0.2632
   89MOL    H2831884   6.059   7.546   1.537 -0.1247  0.4953 -1.0359
   89MOL    H2931885   6.112   7.426   1.419 -0.3728 -0.7233  0.3326
   89MOL    H3031886   6.348   7.481   1.435  0.6973  0.0113  1.4154
   89MOL    H3131887   6.320   7.550   1.593 -0.9079 -0.8674  0.1454
   89MOL    H3231888   6.374   7.721   1.446  0.4188  0.5737 -2.2953
   89MOL    H3331889   6.203   7.748   1.500 -1.2103  1.0424 -1.9341
   89MOL    H3431890   6.123   7.639   1.300  0.4820 -0.7898  0.6371
   89MOL    H3531891   6.275   7.634   1.224 -1.8718 -1.4184 -0.7213
   89MOL    H3631892   6.166   0.052   1.311 -1.8576  2.2043 -2.5765
   89MOL    H3731893   6.314   0.045   1.237 -0.5503  0.7355 -0.1702
   89MOL    C3831894   6.003   0.012   1.125  0.1270  0.6037 -0.6134
   89MOL    O3931895   5.936   0.028   1.224  0.3491  0.2208  0.8375
   89MOL    C4031896   5.950   0.011   0.985  0.3441  0.1195  0.9601
   89MOL    C4131897   5.795   0.031   0.982 -0.1629  0.0596  0.4603
   89MOL    C4231898   5.713   7.747   0.989  0.5410 -0.1757  0.7201
   89MOL    C4331899   5.573   7.760   0.931  0.5399 -0.5019 -0.5190
   89MOL    C4431900   5.487   7.649   0.987 -0.1208  0.3791  0.5424
   89MOL    O4531901   5.538   7.525   0.935  0.3659  0.2327 -0.2097
   89MOL    H4631902   5.969   7.759   0.937  0.1480  0.8804 -0.6939
   89MOL    H4731903   6.003   0.086   0.927  2.4611 -2.2896 -0.3495
   89MOL    H4831904   5.772   0.088   0.891  1.0032  0.5306  0.4544
   89MOL    H4931905   5.761   0.106   1.053 -1.2213  1.5254 -1.5160
   89MOL    H5031906   5.712   7.724   1.096 -3.7016 -0.6551  0.6680
   89MOL    H5131907   5.766   7.665   0.942 -2.1853 -0.5727 -1.7694
   89MOL    H5231908   5.567   7.740   0.824 -0.5217  0.8285 -0.7162
   89MOL    H5331909   5.523   0.010   0.952 -0.3621 -0.6705 -1.8432
   89MOL    H5431910   5.486   7.648   1.096 -1.1037  1.6725  0.5645
   89MOL    H5531911   5.384   7.667   0.953  0.4172  1.5668 -0.4971
   89MOL    C5631912   5.506   7.404   0.989  0.2178  0.2995 -0.9361
   89MOL    O5731913   5.445   7.386   1.097 -0.0681 -0.1157 -0.1149
   89MOL    C5831914   5.552   7.291   0.904 -0.2749 -0.4320  0.1660
   89MOL    C5931915   5.526   7.145   0.953 -0.5236  0.6741 -0.5594
   89MOL    C6031916   5.538   7.051   0.831 -0.2253 -0.2820  0.3275
   89MOL    C6131917   5.403   7.052   0.750  0.6671  0.0822  0.1270
   89MOL    C6231918   5.379   6.942   0.640  0.0213 -0.3550 -0.4192
   89MOL    O6331919   5.387   6.818   0.701 -0.7239 -0.1113  0.1761
   89MOL    H6431920   5.660   7.301   0.918  0.2159 -3.0018 -1.5010
   89MOL    H6531921   5.530   7.299   0.798 -0.3620 -1.1699  0.1230
   89MOL    H6631922   5.428   7.137   1.001 -0.3889 -1.1748 -0.5588
   89MOL    H6731923   5.594   7.121   1.034 -1.7708 -1.9978 -0.2161
   89MOL    H6831924   5.577   6.957   0.870  0.7896  0.7251  1.7666
   89MOL    H6931925   5.629   7.073   0.776 -0.4279 -1.9411 -0.7346
   89MOL    H7031926   5.377   7.138   0.688 -0.1625  0.2789  0.7304
   89MOL    H7131927   5.322   7.033   0.820 -2.0753  0.6802 -2.7494
   89MOL    H7231928   5.292   6.965   0.578 -0.1348 -0.2170 -0.1465
   89MOL    H7331929   5.460   6.964   0.571  1.2781  0.2409  1.2186
   89MOL    C7431930   5.308   6.728   0.652  0.4171 -0.6070  0.2504
   89MOL    O7531931   5.251   6.737   0.546  0.5734 -0.5220  0.1760
   89MOL    C7631932   5.283   6.614   0.752 -0.0696 -0.4752  0.4166
   89MOL    C7731933   5.322   6.477   0.688 -0.5342  0.6059 -0.0061
   89MOL    C7831934   5.300   6.357   0.788 -0.1469 -0.4325  0.1695
   89MOL    C7931935   5.402   6.345   0.908  0.0616  0.0759 -0.1832
   89MOL    C8031936   5.362   6.239   1.016  0.9717 -0.6570 -0.4426
   89MOL    O8131937   5.335   6.108   0.958 -0.0678 -0.8347  0.1256
   89MOL    H8231938   5.183   6.612   0.794  0.8268  1.2800  2.7733
   89MOL    H8331939   5.345   6.634   0.839  0.9263  0.3731 -0.4644
   89MOL    H8431940   5.424   6.477   0.651  0.8876  0.3042  3.7004
   89MOL    H8531941   5.252   6.462   0.606 -1.9728 -0.7167  1.4389
   89MOL    H8631942   5.310   6.264   0.733  0.2659 -0.0935 -0.3257
   89MOL    H8731943   5.193   6.363   0.811 -0.3752 -1.4276 -0.5794
   89MOL    H8831944   5.410   6.443   0.954 -0.4190 -0.2993  0.7106
   89MOL    H8931945   5.503   6.337   0.868  0.4100  1.1568  0.4690
   89MOL    H9031946   5.444   6.230   1.088  1.8442 -2.3040 -1.5982
   89MOL    H9131947   5.285   6.278   1.082  0.8331 -1.4486 -0.1235
   89MOL    C9231948   5.322   5.996   1.032  0.0174 -0.0154 -0.5667
   89MOL    O9331949   5.331   5.994   1.154  0.0872  0.1391 -0.1742
   89MOL    C9431950   5.314   5.866   0.949 -0.2051  0.3065 -0.8661
   89MOL    C9531951   5.224   5.880   0.826 -0.2956  0.1530  0.2545
   89MOL    C9631952   5.087   5.926   0.856 -0.2162 -0.2999  0.7436
   89MOL    C9731953   5.011   5.931   0.727  0.0402 -0.8436  0.2873
   89MOL    C9831954   4.876   6.014   0.745 -0.0175 -0.3189  0.7023
   89MOL    O9931955   4.814   6.043   0.622 -0.2422 -0.4581 -0.2613
   89MOL   H10031956   5.283   5.791   1.022 -0.1897  1.2388  0.1083
   89MOL   H10131957   5.416   5.839   0.922 -0.1484 -0.1199 -0.2408
   89MOL   H10231958   5.225   5.787   0.768  0.3628  0.0562  0.4143
   89MOL   H10331959   5.268   5.944   0.748 -2.2640 -1.2597 -2.1032
   89MOL   H10431960   5.099   6.028   0.893 -0.1666 -0.1639  0.3562
   89MOL   H10531961   5.037   5.867   0.933  0.1411  0.5991  1.6802
   89MOL   H10631962   4.968   5.843   0.678 -1.2975 -0.4743  0.7751
   89MOL   H10731963   5.064   5.969   0.640 -1.8221  0.0712 -0.4772
   89MOL   H10831964   4.803   5.958   0.804 -0.9566  1.0697  0.8663
   89MOL   H10931965   4.894   6.106   0.800  1.6211 -0.5217  0.5472
   89MOL   C11031966   4.854   6.155   0.561 -0.2189  0.6895 -0.5172
   89MOL   O11131967   4.910   6.248   0.611  0.1306 -0.0374  0.8837
   89MOL   C11231968   4.813   6.145   0.418 -0.5514  0.0864  0.2613
   89MOL   C11331969   4.910   6.078   0.322  0.4042  0.1326 -0.5520
   89MOL   C11431970   5.047   6.150   0.324  0.0761 -0.1397  0.0453
   89MOL   C11531971   5.133   6.101   0.205  0.8779 -0.0287 -0.3804
   89MOL   C11631972   5.287   6.143   0.201  0.2731 -0.0089 -0.2850
   89MOL   O11731973   5.360   6.070   0.301 -0.5237 -0.8969 -0.1798
   89MOL   H11831974   4.806   6.251   0.394 -1.7749  0.0979  0.6631
   89MOL   H11931975   4.717   6.095   0.403 -1.2297  1.5539 -0.4327
   89MOL   H12031976   4.870   6.077   0.221  4.2907 -2.2725 -2.1974
   89MOL   H12131977   4.897   5.971   0.341 -0.5881 -0.0820 -2.3412
   89MOL   H12231978   5.091   6.130   0.421 -0.0521  0.2318  0.1781
   89MOL   H12331979   5.019   6.253   0.302 -0.7336 -0.7490 -1.9635
   89MOL   H12431980   5.082   6.121   0.111 -1.1731 -1.7673  0.3168
   89MOL   H12531981   5.126   5.992   0.200 -2.3154  0.1943 -1.4657
   89MOL   H12631982   5.327   6.111   0.105  1.9862 -2.8843  1.3416
   89MOL   H12731983   5.304   6.250   0.215 -0.1670  0.0505 -0.1936
   89MOL   C12831984   5.386   6.118   0.426  0.3399  0.0781 -0.4387
   89MOL   O12931985   5.356   6.234   0.462 -0.0155  0.3122 -0.3542
   89MOL   C13031986   5.471   6.016   0.507  0.4374  0.5682  0.8435
   89MOL   C13131987   5.546   6.084   0.616  0.6314  0.2057 -0.1671
   89MOL   C13231988   5.618   5.981   0.711 -0.6010  0.1084  0.0550
   89MOL   C13331989   5.700   6.058   0.822  0.1272  0.6495  0.0674
   89MOL   C13431990   5.791   5.965   0.910  0.9285  0.1853 -0.5407
   89MOL   O13531991   5.901   6.039   0.953  0.2745 -0.0360 -0.1762
   89MOL   H13631992   5.542   5.981   0.432 -0.6515  0.4173 -0.1367
   89MOL   H13731993   5.399   5.942   0.543  0.6160  0.5068  1.0699
   89MOL   H13831994   5.480   6.144   0.679 -0.6177 -1.1135 -0.2013
   89MOL   H13931995   5.611   6.162   0.577  1.6436 -0.2097  0.6406
   89MOL   H14031996   5.682   5.909   0.659  0.2836  0.1266  1.1081
   89MOL   H14131997   5.543   5.920   0.761  1.2102 -1.8318  0.4891
   89MOL   H14231998   5.623   6.102   0.885  0.1255 -0.4433  0.8455
   89MOL   H14331999   5.753   6.144   0.782  3.0839 -0.6771  0.9654
   89MOL   H14432000   5.724   5.921   0.985 -1.8018  0.9818 -2.4255
   89MOL   H14532001   5.813   5.878   0.849  0.1013 -1.7196  1.8087
   89MOL   C14632002   5.878   6.138   1.037  0.2643 -1.0217  0.1129
   89MOL   O14732003   5.767   6.177   1.073 -0.4783  0.8522 -0.0933
   89MOL   C14832004   6.011   6.216   1.068 -0.1810 -0.7714  0.1722
   89MOL   C14932005   5.998   6.306   1.188  0.3866  0.1320 -0.0347
   89MOL   C15032006   6.123   6.394   1.226 -0.0213 -0.2685  0.1763
   89MOL   C15132007   6.091   6.521   1.297 -0.4468  0.6265 -0.1796
   89MOL   C15232008   6.167   6.642   1.241 -0.2194  0.7357  0.0184
   89MOL   O15332009   6.110   6.658   1.109 -0.5480  0.3555 -0.3263
   89MOL   H15432010   6.022   6.275   0.976 -1.7631 -0.2644  0.2924
   89MOL   H15532011   6.085   6.137   1.079  0.2014 -0.5703 -0.8553
   89MOL   H15632012   5.967   6.238   1.268 -1.5954  0.6053 -0.3770
   89MOL   H15732013   5.915   6.375   1.170  0.7028 -0.0589 -2.2987
   89MOL   H15832014   6.176   6.417   1.133 -1.7222 -2.5899 -1.4610
   89MOL   H15932015   6.199   6.338   1.281  0.0518 -0.2309  0.1138
   89MOL   H16032016   6.111   6.513   1.403 -0.4920 -1.1062 -0.2900
   89MOL   H16132017   5.988   6.555   1.286 -0.5552  1.4140  2.8202
   89MOL   H16232018   6.142   6.729   1.302 -0.1785  0.4471  0.4520
   89MOL   H16332019   6.275   6.631   1.241 -0.1500  1.4044 -1.2194
   89MOL   C16432020   6.168   6.746   1.030  0.1259  0.0378 -0.5083
   89MOL   O16532021   6.281   6.795   1.041  0.5303 -0.2365  0.4570
   89MOL   C16632022   6.070   6.783   0.917 -0.5033  0.0814  0.1393
   89MOL   C16732023   5.946   6.860   0.971 -0.1310 -0.3101  0.5625
   89MOL   C16832024   5.971   7.004   1.019  0.4122 -0.5161 -0.0596
   89MOL   C16932025   5.977   7.104   0.899  0.2663  0.4639 -0.2243
   89MOL   C17032026   6.024   7.244   0.942  0.1005 -0.3558  0.1514
   89MOL   O17132027   5.928   7.291   1.033  0.0138  0.2780 -0.3103
   89MOL   H17232028   6.046   6.687   0.873 -1.1742 -0.5544  1.8532
   89MOL   H17332029   6.110   6.838   0.831 -3.5402  0.3892 -1.1302
   89MOL   H17432030   5.897   6.793   1.041 -0.4852 -0.2261  0.4013
   89MOL   H17532031   5.866   6.859   0.896 -0.6902 -1.7166  1.1556
   89MOL   H17632032   6.061   7.018   1.079  0.5010 -1.3226 -0.0050
   89MOL   H17732033   5.891   7.026   1.090  0.2363 -2.4489  0.3729
   89MOL   H17832034   5.882   7.117   0.848  0.8884  3.1464 -0.7657
   89MOL   H17932035   6.050   7.090   0.820  0.7973  0.2267  0.2990
   89MOL   H18032036   6.123   7.229   0.986 -0.6698 -1.5895  1.4929
   89MOL   H18132037   6.039   7.304   0.852  3.1372 -0.0350  0.7957
   89MOL   C18232038   5.942   7.406   1.095  0.2359 -0.4800 -0.2175
   89MOL   O18332039   6.032   7.482   1.066 -0.0439 -0.6395  0.4379
   89MOL   C18432040   5.823   7.418   1.197 -0.1043 -0.1729 -0.9238
   89MOL   C18532041   5.828   7.322   1.315 -0.5309 -0.0203  0.1854
   89MOL   C18632042   5.698   7.241   1.316 -0.1909 -0.1914  0.2879
   89MOL   C18732043   5.703   7.120   1.403  0.0523  0.0608  0.0561
   89MOL   C18832044   5.579   7.030   1.400 -0.1149 -0.4539  0.3075
   89MOL   O18932045   5.599   6.935   1.290 -0.3700  0.1476  0.2307
   89MOL   H19032046   5.731   7.421   1.139 -0.5800  0.4027 -0.1488
   89MOL   H19132047   5.825   7.519   1.238  0.6061  0.0543 -1.5100
   89MOL   H19232048   5.846   7.382   1.404 -0.8561  2.2458 -1.2459
   89MOL   H19332049   5.914   7.256   1.296 -1.8675 -1.2378 -1.7965
   89MOL   H19432050   5.665   7.202   1.219  1.6739  0.0587 -0.4801
   89MOL   H19532051   5.614   7.305   1.342 -0.0155  0.5644 -0.9447
   89MOL   H19632052   5.719   7.162   1.503  0.4725  0.4342 -0.1636
   89MOL   H19732053   5.795   7.068   1.373  0.4405  1.7780 -1.8620
   89MOL   H19832054   5.578   6.969   1.491  1.2487  0.1665  0.7667
   89MOL   H19932055   5.486   7.085   1.391  1.4953  1.8436 -3.5336
   89MOL   C20032056   5.491   6.874   1.233  0.3644 -0.6926 -0.1692
   89MOL   O20132057   5.374   6.893   1.262  0.4102  0.4983  0.2328
   89MOL   C20232058   5.536   6.779   1.126 -0.1896  0.0276  0.0261
   89MOL   C20332059   5.592   6.646   1.171 -0.7300 -0.6565  0.5850
   89MOL   C20432060   5.497   6.558   1.257 -0.2547 -0.5982 -0.2549
   89MOL   C20532061   5.548   6.413   1.274  0.3579  0.3219 -0.7048
   89MOL   C20632062   5.674   6.400   1.359  0.6067 -0.5433 -0.2599
   89MOL   O20732063   5.663   6.434   1.495  0.2017  0.1242  0.4830
   89MOL   H20832064   5.625   6.811   1.072  1.0106  0.5574  2.2708
   89MOL   H20932065   5.462   6.775   1.046 -0.5062 -1.9808  0.3860
   89MOL   H21032066   5.678   6.663   1.236 -0.4452 -1.8977  0.5503
   89MOL   H21132067   5.618   6.585   1.084 -0.3369  0.4208 -0.0639
   89MOL   H21232068   5.404   6.569   1.200  0.6116 -2.6625 -2.1576
   89MOL   H21332069   5.487   6.595   1.359 -0.0572  0.7720 -0.7199
   89MOL   H21432070   5.587   6.377   1.179  0.6556 -0.1483 -0.4086
   89MOL   H21532071   5.473   6.348   1.318  0.7017  0.1864 -0.3089
   89MOL   H21632072   5.687   6.292   1.360  1.5733 -0.4283  1.2281
   89MOL   H21732073   5.769   6.438   1.321  0.7422 -0.5558  0.0650
   89MOL   C21832074   5.753   6.391   1.588  0.4431  0.4882  0.2721
   89MOL   O21932075   5.858   6.336   1.567 -0.1036 -0.2423  0.3179
   89MOL   C22032076   5.702   6.419   1.728  0.4992  0.9742  0.7360
   89MOL   C22132077   5.732   6.306   1.821 -0.6310 -0.7330 -0.6240
   89MOL   C22232078   5.693   6.337   1.963  0.0572 -0.0110  0.2276
   89MOL   C22332079   5.565   6.264   2.010  0.5772  0.3984 -0.5239
   89MOL   C22432080   5.547   6.252   2.163  0.0035  0.7217 -0.4321
   89MOL   O22532081   5.522   6.380   2.210 -0.3846  0.4382  0.0845
   89MOL   H22632082   5.594   6.430   1.722  0.3594 -0.7598 -0.1989
   89MOL   H22732083   5.734   6.517   1.764 -0.6604  2.3189 -1.7795
   89MOL   H22832084   5.841   6.296   1.823 -0.4419  0.5939 -2.6224
   89MOL   H22932085   5.709   6.203   1.794  0.0476 -0.7603 -1.1265
   89MOL   H23032086   5.696   6.444   1.983  0.9577 -0.5740  3.3226
   89MOL   H23132087   5.776   6.300   2.024  0.5774  0.1851 -0.3537
   89MOL   H23232088   5.562   6.158   1.984 -2.4337  0.4437 -0.5358
   89MOL   H23332089   5.472   6.306   1.972 -0.3974 -1.0667  0.1799
   89MOL   H23432090   5.464   6.184   2.182  0.8525 -0.5024 -1.0550
   89MOL   H23532091   5.638   6.206   2.200 -1.8986 -2.2508  0.7392
   89MOL   C23632092   5.586   6.421   2.321  0.1344 -0.7311  0.8116
   89MOL   O23732093   5.682   6.364   2.373 -0.3614 -0.1090  0.5500
   89MOL   C23832094   5.533   6.542   2.388  0.1581  0.7769  0.2760
   89MOL   C23932095   5.398   6.520   2.445  0.9388  0.2306 -0.3954
   89MOL   C24032096   5.375   6.417   2.556 -0.2407 -1.0431  0.0030
   89MOL   C24132097   5.458   6.438   2.684  0.4150  0.5505  0.1974
   89MOL   C24232098   5.420   6.560   2.754 -1.2059  0.8339 -0.2195
   89MOL   O24332099   5.494   6.563   2.883  0.1978 -0.2202  0.4150
   89MOL   H24432100   5.542   6.630   2.325 -0.3731  0.3464 -0.4152
   89MOL   H24532101   5.596   6.560   2.475  0.9758  1.3464 -0.4288
   89MOL   H24632102   5.324   6.498   2.368 -1.3305  1.1727  1.4646
   89MOL   H24732103   5.362   6.619   2.474 -1.9427 -1.2273  1.2280
   89MOL   H24832104   5.399   6.318   2.517 -1.4133 -1.5344  0.4967
   89MOL   H24932105   5.268   6.427   2.573 -0.3154  0.0665 -1.0570
   89MOL   H25032106   5.563   6.448   2.655  0.2637  1.8356  0.0641
   89MOL   H25132107   5.456   6.347   2.744 -2.4173 -0.3844 -1.2513
   89MOL   H25232108   5.456   6.649   2.701 -0.7804  2.0631  2.0451
   89MOL   H25332109   5.312   6.563   2.769 -0.9316 -0.2012  2.1079
   89MOL   C25432110   5.618   6.620   2.888 -0.2064 -0.3424 -0.3117
   89MOL   O25532111   5.698   6.630   2.796  0.3244  0.1283  0.3304
   89MOL   C25632112   5.657   6.655   3.040 -0.9311 -0.4618 -0.7352
   89MOL   C25732113   5.771   6.758   3.050  0.3134  0.2297 -0.8459
   89MOL   C25832114   5.906   6.702   3.024 -0.8597  0.5202 -1.1199
   89MOL   C25932115   6.025   6.801   3.000  0.8375 -0.0116 -0.8713
   89MOL   C26032116   6.162   6.737   3.025 -0.1953  0.7263  0.7770
   89MOL   O26132117   6.181   6.623   2.937  0.0300  0.4715 -0.0362
   89MOL   H26232118   5.685   6.561   3.087 -2.5880 -0.2481  0.7716
   89MOL   H26332119   5.568   6.698   3.087 -0.0930  0.6987 -0.1951
   89MOL   H26432120   5.762   6.807   3.147 -0.4064 -0.1255 -0.7294
   89MOL   H26532121   5.748   6.843   2.985  1.1391 -0.1736 -1.6820
   89MOL   H26632122   5.894   6.646   2.931 -1.2521 -0.4133 -0.5124
   89MOL   H26732123   5.927   6.629   3.102 -2.2394  0.0799 -1.1479
   89MOL   H26832124   5.995   6.892   3.051  0.3733 -0.8286  0.3597
   89MOL   H26932125   6.032   6.839   2.899 -0.2767  0.3196 -0.8265
   89MOL   H27032126   6.238   6.813   3.008  0.1703 -0.0856 -1.3933
   89MOL   H27132127   6.165   6.695   3.125  0.5070 -1.9511 -0.3197
   89MOL   C27232128   6.214   6.641   2.814  0.0512  0.1130  0.0384
   89MOL   O27332129   6.246   6.751   2.765 -0.2947  0.2969  0.2148
   89MOL   C27432130   6.211   6.513   2.734  0.0315  0.9460 -0.2296
   89MOL   C27532131   6.073   6.447   2.705 -0.2532 -0.4949 -0.3004
   89MOL   C27632132   5.987   6.541   2.613 -0.3992 -0.0941  0.3843
   89MOL   C27732133   6.038   6.533   2.467 -0.1071 -0.1476 -0.4866
   89MOL   C27832134   5.957   6.610   2.365  0.4267  0.7200  0.9002
   89MOL   O27932135   6.023   6.625   2.242  0.2178  0.6638 -0.8177
   89MOL   H28032136   6.277   6.453   2.797  0.2028  2.5359  1.1219
   89MOL   H28132137   6.260   6.533   2.638 -2.1489  0.0614 -1.5676
   89MOL   H28232138   6.023   6.445   2.802  2.2277 -2.0486  0.9860
   89MOL   H28332139   6.073   6.348   2.661 -0.3739 -0.4360 -0.4362
   89MOL   H28432140   5.993   6.643   2.651  0.0421 -0.6949  1.9797
   89MOL   H28532141   5.884   6.507   2.614 -1.1731  2.1741 -0.8389
   89MOL   H28632142   6.034   6.426   2.445  2.7856 -0.5853  0.8763
   89MOL   H28732143   6.142   6.567   2.464 -1.3028  3.9127  0.8170
   89MOL   H28832144   5.859   6.567   2.342 -0.1495  1.1803  2.4411
   89MOL   H28932145   5.940   6.709   2.407 -1.2674  0.8654 -0.0901
   89MOL   C29032146   6.026   6.523   2.149 -0.2428  0.1302  0.0753
   89MOL   O29132147   5.999   6.398   2.171 -0.3542 -0.4645 -0.4399
   89MOL   C29232148   6.064   6.577   2.010  0.7123 -0.4599 -0.2968
   89MOL   C29332149   5.954   6.647   1.936  0.0287  0.3649  0.3557
   89MOL   C29432150   6.004   6.697   1.803 -0.2397 -0.0570  0.1053
   89MOL   C29532151   5.905   6.791   1.734 -0.1531 -0.0861  0.0795
   89MOL   C29632152   5.938   6.795   1.579 -0.1527 -0.0064 -0.6069
   89MOL   O29732153   6.016   6.908   1.544 -0.4735  0.3370  0.6140
   89MOL   H29832154   6.091   6.486   1.957  2.4798  0.4132 -0.9443
   89MOL   H29932155   6.154   6.633   2.036  0.1132 -1.0376  3.2288
   89MOL   H30032156   5.904   6.726   1.992 -3.3869 -0.7738 -0.9017
   89MOL   H30132157   5.879   6.572   1.909  1.5381  0.3219 -4.2137
   89MOL   H30232158   6.038   6.624   1.730 -0.1832 -0.4651  0.5391
   89MOL   H30332159   6.096   6.751   1.825  0.1065  0.1700 -1.7408
   89MOL   H30432160   5.903   6.888   1.782  0.7572  0.4096 -0.8637
   89MOL   H30532161   5.806   6.744   1.736 -0.0755 -0.2418  2.6481
   89MOL   H30632162   5.982   6.702   1.544  1.9978  1.2289 -1.2486
   89MOL   H30732163   5.846   6.807   1.521 -0.7758 -0.7522  0.1972
   89MOL   C30832164   6.152   6.903   1.540 -0.4961 -0.2317 -0.5835
   89MOL   O30932165   6.219   6.807   1.586 -0.1910 -0.7757  0.2657
   89MOL   C31032166   6.216   7.028   1.477 -0.0217  0.3351 -0.2245
   89MOL   C31132167   6.189   7.039   1.325 -0.1410  0.0561 -0.0975
   89MOL   C31232168   6.246   7.168   1.264  0.4944 -0.1572 -0.4878
   89MOL   C31332169   6.401   7.150   1.258  0.3005 -0.6287 -0.1962
   89MOL   C31432170   6.478   7.282   1.223 -0.4077  0.0841 -0.2424
   89MOL   O31532171   6.414   7.347   1.114  0.3787 -0.3758 -0.1178
   89MOL   H31632172   6.323   7.015   1.494 -0.1185  0.3506  0.4277
   89MOL   H31732173   6.186   7.124   1.518  1.7944  0.9667 -0.2981
   89MOL   H31832174   6.081   7.041   1.306  0.4094  2.9560 -3.5242
   89MOL   H31932175   6.227   6.956   1.266  1.2240  0.7463 -0.2220
   89MOL   H32032176   6.204   7.247   1.326 -0.5187 -0.9899 -0.0923
   89MOL   H32132177   6.203   7.183   1.166 -0.2226 -0.2156 -0.1815
   89MOL   H32232178   6.420   7.067   1.190  2.2395 -0.6943  0.3976
   89MOL   H32332179   6.438   7.116   1.355 -0.3936 -0.7413  0.0356
   89MOL   H32432180   6.478   7.341   1.314  3.7187  0.1420 -0.2109
   89MOL   H32532181   6.581   7.259   1.195 -0.1981  1.3217 -0.5202
   89MOL   C32632182   6.453   7.468   1.073 -0.6735 -0.0449 -0.3828
   89MOL   O32732183   6.539   7.545   1.118 -0.3747 -0.4281 -0.0753
   89MOL   C32832184   6.371   7.507   0.954  0.1787  0.1899  0.1308
   89MOL   C32932185   6.409   7.430   0.830  0.0731 -0.1283  0.2465
   89MOL   C33032186   6.344   7.290   0.809  0.1751  0.1446 -0.1587
   89MOL   C33132187   6.410   7.189   0.709  0.3645  0.1733  0.6565
   89MOL   C33232188   6.330   7.058   0.691  0.3848  0.6762  0.4377
   89MOL   O33332189   6.221   7.067   0.597 -0.2716 -0.0188  0.3577
   89MOL   H33432190   6.382   7.615   0.938 -0.2370  0.4544  1.5950
   89MOL   H33532191   6.265   7.493   0.973  0.3731 -0.9759  0.3965
   89MOL   H33632192   6.515   7.404   0.841  0.1954 -0.5852 -1.6953
   89MOL   H33732193   6.405   7.491   0.739  1.1772  1.0960  0.9940
   89MOL   H33832194   6.241   7.310   0.780  0.4440  0.1377 -1.1301
   89MOL   H33932195   6.328   7.241   0.905 -0.8971  1.8080  0.5269
   89MOL   H34032196   6.501   7.149   0.753  0.5856 -0.2307 -0.1501
   89MOL   H34132197   6.430   7.240   0.614  0.8395  0.5339  0.9465
   89MOL   H34232198   6.393   6.972   0.666 -2.6593 -1.6860  0.4852
   89MOL   H34332199   6.284   7.030   0.785 -0.3022  1.9111  0.4761
   89MOL   C34432200   6.165   6.960   0.529  1.4337  0.1891  0.3203
   89MOL   O34532201   6.226   6.862   0.495 -0.0696 -0.0371 -0.7426
   89MOL   C34632202   6.024   6.989   0.483 -0.3085 -0.5266 -0.0883
   89MOL   C34732203   5.956   6.875   0.402 -0.6612 -1.1741 -0.6796
   89MOL   C34832204   5.907   6.761   0.487 -0.7170  0.1730  0.3431
   89MOL   C34932205   5.804   6.794   0.598 -0.3892  0.1343 -0.3508
   89MOL   C35032206   5.749   6.660   0.662 -0.2276 -0.5587  0.7411
   89MOL   O35132207   5.657   6.705   0.768  0.6875 -0.1422 -0.6106
   89MOL   H35232208   6.024   7.080   0.422  0.0179 -0.6243 -0.2354
   89MOL   H35332209   5.964   7.015   0.570  0.1098  0.1161  0.0119
   89MOL   H35432210   6.019   6.834   0.323  0.4420 -1.8167  0.5204
   89MOL   H35532211   5.871   6.923   0.354 -0.2445  0.3017  0.0323
   89MOL   H35632212   5.997   6.719   0.532 -1.4960 -1.6332  0.2914
   89MOL   H35732213   5.876   6.675   0.426  0.0006  1.3754 -1.7554
   89MOL   H35832214   5.742   6.854   0.531  0.8003  0.9010 -0.7869
   89MOL   H35932215   5.846   6.855   0.679  0.5076 -2.4408  1.1895
   89MOL   H36032216   5.689   6.603   0.591 -0.1829  0.0091  0.2375
   89MOL   H36132217   5.826   6.594   0.699 -1.0940 -0.3518  2.9953
   89MOL   H36232218   5.593   6.761   0.728  1.3476 -1.2838 -3.3588
   90MOL     C132219   4.443   6.478   0.318 -0.1703 -0.3364 -0.3701
   90MOL     O232220   4.458   6.362   0.355  0.1125  0.4837 -0.1147
   90MOL     C332221   4.535   6.585   0.351 -0.9381  0.5882  0.2608
   90MOL     C432222   4.667   6.534   0.419  0.2332 -0.4956 -0.1114
   90MOL     C532223   4.758   6.653   0.444  0.4597  0.0832 -0.4565
   90MOL     C632224   4.881   6.620   0.539  0.0300 -0.1970  0.0738
   90MOL     C732225   4.837   6.578   0.678 -0.3584  0.1338  1.2806
   90MOL     O832226   4.742   6.663   0.747  0.9628 -0.6382 -0.1938
   90MOL     H932227   4.478   6.668   0.393 -0.2081  0.8053  0.8452
   90MOL    H1032228   4.581   6.612   0.256 -0.6951  2.6577  0.9281
   90MOL    H1132229   4.716   6.453   0.366 -1.0347  0.1509 -2.3362
   90MOL    H1232230   4.640   6.495   0.518  0.8557  3.8924  1.9062
   90MOL    H1332231   4.694   6.735   0.476  0.2936 -0.8598  1.6988
   90MOL    H1432232   4.806   6.676   0.348 -1.1188 -2.1511 -1.8308
   90MOL    H1532233   4.944   6.708   0.551 -1.1472  0.2725  3.3457
   90MOL    H1632234   4.943   6.545   0.489 -1.8055 -1.8344  0.1951
   90MOL    H1732235   4.789   6.480   0.674 -1.1203  0.5306  0.5574
   90MOL    H1832236   4.927   6.560   0.736 -0.6921 -0.7876  1.5313
   90MOL    H1932237   4.355   6.511   0.263 -1.3231  2.1199  2.7420
   90MOL    C2032238   4.784   6.773   0.795 -0.1836 -0.2318 -0.1061
   90MOL    O2132239   4.898   6.814   0.785 -0.0555  0.8442  0.0197
   90MOL    C2232240   4.684   6.857   0.871  0.4071 -0.0479 -0.2001
   90MOL    C2332241   4.649   6.813   1.019  0.5007  0.1355  0.5814
   90MOL    C2432242   4.534   6.900   1.088  0.8361 -0.2302  0.1917
   90MOL    C2532243   4.400   6.868   1.021 -0.3427 -0.0252 -0.5436
   90MOL    C2632244   4.278   6.945   1.072  0.6336 -0.6361 -0.5560
   90MOL    O2732245   4.280   7.075   1.013  0.3204  0.5453  0.3241
   90MOL    H2832246   4.596   6.865   0.808  0.5241  1.0648 -0.2439
   90MOL    H2932247   4.717   6.961   0.871 -3.1975  1.1601 -1.9699
   90MOL    H3032248   4.739   6.837   1.075  1.3294 -0.1047 -0.6365
   90MOL    H3132249   4.623   6.707   1.017 -0.0853  0.2853  0.1742
   90MOL    H3232250   4.543   7.006   1.064 -0.4150 -0.6125 -2.1660
   90MOL    H3332251   4.534   6.887   1.196 -0.5697 -0.0362  0.2262
   90MOL    H3432252   4.375   6.764   1.043  0.2002 -0.2825 -1.1330
   90MOL    H3532253   4.414   6.872   0.913  2.3438  0.0254 -0.2285
   90MOL    H3632254   4.194   6.880   1.048 -0.2405 -0.6659  2.4028
   90MOL    H3732255   4.276   6.964   1.179 -0.9379 -2.3657 -0.2642
   90MOL    C3832256   4.173   7.110   0.926  0.8103 -0.0914 -0.5326
   90MOL    O3932257   4.067   7.051   0.913 -0.3395  0.2278 -0.1144
   90MOL    C4032258   4.194   7.249   0.857 -0.2152  0.2874 -0.2450
   90MOL    C4132259   4.257   7.364   0.928  0.4942 -0.4471  0.1461
   90MOL    C4232260   4.406   7.360   0.934 -0.4334 -0.2645 -0.4619
   90MOL    C4332261   4.474   7.476   1.017 -0.4483  0.6284 -0.0875
   90MOL    C4432262   4.625   7.476   1.007 -0.2225 -0.0737 -0.4893
   90MOL    O4532263   4.683   7.360   1.062  0.0047  0.2903  0.0671
   90MOL    H4632264   4.095   7.276   0.820 -1.1936 -2.0006  0.6102
   90MOL    H4732265   4.253   7.233   0.766 -1.7621  0.3536 -1.2820
   90MOL    H4832266   4.219   7.371   1.030  0.5724  1.1694  0.0710
   90MOL    H4932267   4.224   7.461   0.890  0.5706 -0.9315 -1.1836
   90MOL    H5032268   4.444   7.367   0.832 -1.5279  1.4440 -0.7731
   90MOL    H5132269   4.448   7.267   0.972 -0.2689  0.5324  1.3492
   90MOL    H5232270   4.437   7.463   1.119  0.3401  1.2098  0.2734
   90MOL    H5332271   4.431   7.570   0.982  0.0592  0.4620 -1.1962
   90MOL    H5432272   4.651   7.481   0.901  3.0132 -0.3175  0.2247
   90MOL    H5532273   4.667   7.564   1.055 -2.4585  0.9127 -0.2788
   90MOL    C5632274   4.802   7.325   1.021 -0.0831 -0.6877  0.1969
   90MOL    O5732275   4.864   7.384   0.932 -0.0032 -0.0458 -0.0466
   90MOL    C5832276   4.861   7.208   1.104  0.3401  0.6156  0.3398
   90MOL    C5932277   4.983   7.148   1.034  0.2706  0.7919 -0.0294
   90MOL    C6032278   5.026   7.009   1.084 -0.5222 -1.1976 -0.6158
   90MOL    C6132279   5.119   6.923   0.998 -0.8918  0.6051 -0.1337
   90MOL    C6232280   5.139   6.782   1.064 -0.4401 -0.6959  0.3685
   90MOL    O6332281   5.029   6.702   1.062 -0.7314 -0.0464 -0.6179
   90MOL    H6432282   4.779   7.137   1.097 -0.3806  1.3877  0.8779
   90MOL    H6532283   4.877   7.240   1.206  0.9184  0.7803  0.1979
   90MOL    H6632284   5.065   7.216   1.059  1.6357 -0.8301 -0.0236
   90MOL    H6732285   4.970   7.144   0.926  0.0118 -0.9061  0.0436
   90MOL    H6832286   4.934   6.961   1.118  0.0425 -1.2141  0.9709
   90MOL    H6932287   5.071   7.021   1.183 -2.1749 -0.2897  0.0383
   90MOL    H7032288   5.214   6.974   1.013  0.5840 -1.7640 -1.1833
   90MOL    H7132289   5.099   6.906   0.893  0.1869  0.5914 -0.3403
   90MOL    H7232290   5.205   6.734   0.992 -0.1251  0.2880 -0.0089
   90MOL    H7332291   5.183   6.796   1.163 -0.8719  1.5669  0.2741
   90MOL    C7432292   5.054   6.573   1.072  0.1107  0.2789 -0.3118
   90MOL    O7532293   5.162   6.515   1.087  0.6721 -0.4614 -0.3574
   90MOL    C7632294   4.919   6.497   1.069 -0.6161  0.1389 -0.1313
   90MOL    C7732295   4.916   6.357   1.143 -0.5020 -0.0407 -0.0099
   90MOL    C7832296   4.791   6.279   1.100  0.3881  0.1524  0.8108
   90MOL    C7932297   4.782   6.136   1.160  0.3680  0.2275  0.6819
   90MOL    C8032298   4.672   6.067   1.082  0.1241 -0.1127 -0.2197
   90MOL    O8132299   4.542   6.127   1.091 -0.3872  0.2114  0.0003
   90MOL    H8232300   4.909   6.480   0.961 -0.8835  1.3525 -0.3095
   90MOL    H8332301   4.837   6.565   1.092 -0.9991  0.1910 -1.5753
   90MOL    H8432302   4.910   6.362   1.252  1.0323 -1.6212  0.1608
   90MOL    H8532303   5.010   6.304   1.127  0.0801  0.7938  0.6071
   90MOL    H8632304   4.780   6.285   0.991  2.0439 -0.6053  0.5940
   90MOL    H8732305   4.705   6.329   1.146 -0.1165 -0.5200  0.6031
   90MOL    H8832306   4.751   6.140   1.265 -3.2969 -0.4172 -0.3070
   90MOL    H8932307   4.876   6.081   1.152  0.0724 -0.2281  0.3126
   90MOL    H9032308   4.691   6.062   0.975  0.6234  2.6915 -0.3080
   90MOL    H9132309   4.677   5.967   1.124 -0.3152  0.7045  1.8772
   90MOL    C9232310   4.429   6.055   1.091  0.1641 -0.1260  0.2971
   90MOL    O9332311   4.419   5.937   1.089  0.0096  0.6574 -0.4011
   90MOL    C9432312   4.309   6.145   1.118 -0.1453  0.1979 -0.3100
   90MOL    C9532313   4.180   6.081   1.169  0.1308 -0.2544  0.3516
   90MOL    C9632314   4.176   6.021   1.314  0.0791 -0.2831 -0.7199
   90MOL    C9732315   4.036   5.963   1.337  0.3466 -0.2163 -0.1059
   90MOL    C9832316   4.020   5.902   1.479 -0.7613 -0.5388  0.0863
   90MOL    O9932317   3.925   5.803   1.481 -0.1850  0.8795 -0.6761
   90MOL   H10032318   4.290   6.189   1.020  0.0648 -0.7623 -0.7896
   90MOL   H10132319   4.337   6.223   1.188 -0.2280  0.6102 -0.7352
   90MOL   H10232320   4.144   6.011   1.093 -2.2138  1.4613 -0.1803
   90MOL   H10332321   4.104   6.159   1.176  0.8895  0.6150 -0.7810
   90MOL   H10432322   4.207   6.086   1.396  4.3931 -0.8541 -1.7631
   90MOL   H10532323   4.252   5.944   1.323 -0.0106 -0.0774  2.4176
   90MOL   H10632324   4.016   5.881   1.268 -1.4059  1.7549 -2.0160
   90MOL   H10732325   3.961   6.041   1.328 -2.0415 -2.0838  2.6051
   90MOL   H10832326   4.115   5.858   1.509  0.4456  1.9452  0.0112
   90MOL   H10932327   3.989   5.980   1.549  0.5928  1.1919 -1.2029
   90MOL   C11032328   3.863   5.756   1.593 -0.0466  0.3216  1.3807
   90MOL   O11132329   3.876   5.810   1.701 -0.2759  0.4156  0.5001
   90MOL   C11232330   3.764   5.644   1.576 -0.1513 -0.0955 -0.2554
   90MOL   C11332331   3.634   5.680   1.505  0.8280 -0.1028 -0.3109
   90MOL   C11432332   3.644   5.723   1.363 -0.3722  0.1640 -0.2574
   90MOL   C11532333   3.503   5.760   1.300 -0.3089 -0.2947  0.1021
   90MOL   C11632334   3.522   5.797   1.151  0.3618 -0.1563  0.2514
   90MOL   O11732335   3.584   5.697   1.073  0.4628 -0.0504  0.1300
   90MOL   H11832336   3.736   5.605   1.674  1.7063 -1.2864 -0.1618
   90MOL   H11932337   3.805   5.559   1.521 -0.5792 -1.4894  1.5189
   90MOL   H12032338   3.586   5.763   1.556  1.4482 -1.9005  3.4228
   90MOL   H12132339   3.560   5.600   1.513  0.7312  0.1004  0.9984
   90MOL   H12232340   3.675   5.636   1.306 -0.7879  0.2376 -0.5936
   90MOL   H12332341   3.710   5.807   1.341 -0.2852  0.0908 -0.2773
   90MOL   H12432342   3.467   5.852   1.345  0.9454  0.1662  0.1960
   90MOL   H12532343   3.426   5.685   1.313 -1.3864  0.4924 -1.5659
   90MOL   H12632344   3.426   5.825   1.109 -0.6800 -1.8759  1.4078
   90MOL   H12732345   3.584   5.887   1.146  0.3209 -0.2290 -1.6862
   90MOL   C12832346   3.512   5.588   1.032 -1.0025  0.3360 -0.1919
   90MOL   O12932347   3.409   5.539   1.079 -0.3884 -0.1066  0.0195
   90MOL   C13032348   3.576   5.522   0.913 -0.2674 -0.2581 -0.1648
   90MOL   C13132349   3.511   5.573   0.778  0.0100  0.6301 -0.3619
   90MOL   C13232350   3.613   5.593   0.658  1.1157  0.0501  0.1694
   90MOL   C13332351   3.700   5.718   0.688 -0.9945  0.3843 -0.1905
   90MOL   C13432352   3.783   5.762   0.571  0.3719  0.1598  0.1059
   90MOL   O13532353   3.705   5.791   0.454  0.1454 -0.0350 -0.3273
   90MOL   H13632354   3.551   5.417   0.922 -2.2742  0.2165  0.0596
   90MOL   H13732355   3.684   5.537   0.910 -0.0225 -1.7775  0.8081
   90MOL   H13832356   3.447   5.660   0.790  0.3174  0.7197  0.7107
   90MOL   H13932357   3.435   5.500   0.751  1.2377 -0.5501 -0.7279
   90MOL   H14032358   3.556   5.594   0.565 -0.0028  1.5153  0.8377
   90MOL   H14132359   3.677   5.506   0.647 -0.4858 -0.9941 -1.2157
   90MOL   H14232360   3.754   5.701   0.782 -2.1449  0.0641  0.4281
   90MOL   H14332361   3.624   5.792   0.711 -1.2073 -0.8640  3.5449
   90MOL   H14432362   3.858   5.838   0.589  1.0542 -0.5639  0.3796
   90MOL   H14532363   3.835   5.672   0.538  0.2431 -0.3336  1.2305
   90MOL   C14632364   3.682   5.916   0.410  0.5863  0.0649  0.2328
   90MOL   O14732365   3.736   6.018   0.453 -0.6898 -0.3481  0.0556
   90MOL   C14832366   3.582   5.925   0.296 -0.1121  0.6394 -0.3140
   90MOL   C14932367   3.638   6.009   0.175 -0.4429 -0.4308  0.7449
   90MOL   C15032368   3.619   6.161   0.188 -0.4559  0.1389  1.2359
   90MOL   C15132369   3.468   6.208   0.175  0.6123  0.4891  0.5378
   90MOL   C15232370   3.458   6.361   0.173  0.4133 -0.3059  0.5908
   90MOL   O15332371   3.324   6.407   0.154 -0.3286  0.3138  0.4321
   90MOL   H15432372   3.488   5.961   0.337 -0.8171 -0.9168 -0.5578
   90MOL   H15532373   3.578   5.822   0.261  2.1513  0.0445  1.0180
   90MOL   H15632374   3.576   5.973   0.092 -1.3018  0.4937  0.9691
   90MOL   H15732375   3.740   5.986   0.147 -0.2211  3.0384 -1.5353
   90MOL   H15832376   3.672   6.206   0.105 -0.2660  0.0717  1.3187
   90MOL   H15932377   3.667   6.203   0.277 -2.1233  2.8585  0.8846
   90MOL   H16032378   3.402   6.165   0.250  0.1911  0.6809  0.2749
   90MOL   H16132379   3.434   6.160   0.083  2.0869  1.2558 -0.4461
   90MOL   H16232380   3.490   6.386   0.274  1.0279 -2.6195  0.9861
   90MOL   H16332381   3.528   6.401   0.099  2.7558 -3.1348  1.1979
   90MOL   C16432382   3.288   6.428   0.023  0.0316 -0.5395  0.5851
   90MOL   O16532383   3.356   6.396   7.772  0.1849 -0.1892 -0.0548
   90MOL   C16632384   3.151   6.493   0.013  0.0350  0.2815 -0.4917
   90MOL   C16732385   3.155   6.626   7.775 -0.6894  1.2165  0.1081
   90MOL   C16832386   3.149   6.756   0.019 -0.2488  0.1222  0.3268
   90MOL   C16932387   3.027   6.774   0.118  0.2987 -0.0244  0.8720
   90MOL   C17032388   3.013   6.914   0.179  0.4428 -0.0259  0.1569
   90MOL   O17132389   2.968   6.987   0.064 -0.5158  0.0432 -0.4124
   90MOL   H17232390   3.104   6.517   0.109  0.5201  2.3973 -0.7627
   90MOL   H17332391   3.081   6.420   7.816 -1.2904  1.0202  0.3923
   90MOL   H17432392   3.076   6.633   7.699  0.6443 -1.0714 -1.5505
   90MOL   H17532393   3.249   6.627   7.720 -1.3134  1.1218 -0.9826
   90MOL   H17632394   3.158   6.839   7.793  2.7221 -1.4593 -1.2891
   90MOL   H17732395   3.233   6.756   0.088 -0.5357 -0.0131  0.6743
   90MOL   H17832396   3.038   6.700   0.197 -0.8669 -0.8162  0.3120
   90MOL   H17932397   2.947   6.745   0.049  0.4831  1.8098 -0.1446
   90MOL   H18032398   2.948   6.942   0.262  0.6162  0.5734  0.0911
   90MOL   H18132399   3.111   6.951   0.209  0.1793  1.3401 -0.5988
   90MOL   C18232400   2.839   7.026   0.060  0.2960  0.1477  0.9032
   90MOL   O18332401   2.761   7.034   0.154  0.0910  0.4364  0.0222
   90MOL   C18432402   2.789   7.060   7.768 -0.4681  0.1690  0.5425
   90MOL   C18532403   2.653   6.994   7.741  0.3699  0.0450 -0.1440
   90MOL   C18632404   2.669   6.844   7.744 -0.3412  0.0347 -0.1007
   90MOL   C18732405   2.554   6.779   7.671 -0.0206 -0.3107 -0.4483
   90MOL   C18832406   2.424   6.790   7.754 -0.4768 -0.0579 -0.2849
   90MOL   O18932407   2.311   6.736   7.684 -0.1789 -0.6490  0.3881
   90MOL   H19032408   2.867   7.026   7.700 -1.2134 -0.7542  0.1591
   90MOL   H19132409   2.776   7.168   7.759  1.4650  0.3333 -0.6422
   90MOL   H19232410   2.614   7.026   7.644 -1.0884  2.0714  1.0726
   90MOL   H19332411   2.575   7.031   7.808 -1.5253  0.0603 -2.2849
   90MOL   H19432412   2.681   6.799   7.842  0.0011 -0.6949 -0.4663
   90MOL   H19532413   2.763   6.818   7.695 -0.3471  0.7795 -0.5161
   90MOL   H19632414   2.579   6.672   7.667  1.9019  0.0322  1.2611
   90MOL   H19732415   2.536   6.810   7.568  4.2437 -1.9601 -1.7959
   90MOL   H19832416   2.439   6.732   0.001 -2.8921  1.5182  1.1808
   90MOL   H19932417   2.392   6.890   7.784  1.8414 -0.3242  3.3460
   90MOL   C20032418   2.254   6.813   7.596  0.3201  0.6676 -0.1278
   90MOL   O20132419   2.284   6.930   7.564 -0.0079 -0.1351 -0.0362
   90MOL   C20232420   2.133   6.742   7.532  0.0877 -0.2651  0.2687
   90MOL   C20332421   2.155   6.597   7.483 -0.1037  0.1866 -0.6272
   90MOL   C20432422   2.077   6.561   7.355  0.1487  0.5288  0.5185
   90MOL   C20532423   2.090   6.413   7.310  0.1010  0.5865  0.0946
   90MOL   C20632424   2.042   6.393   7.159  0.0519 -0.1487  0.2988
   90MOL   O20732425   1.901   6.410   7.138 -0.0750 -0.2941 -0.2356
   90MOL   H20832426   2.113   6.807   7.447  0.3385 -2.2648 -1.3375
   90MOL   H20932427   2.043   6.752   7.592  1.3398  0.1220  2.1341
   90MOL   H21032428   2.137   6.522   7.559  2.7876  0.4147  0.3503
   90MOL   H21132429   2.259   6.570   7.463  0.3401 -0.5893  2.5490
   90MOL   H21232430   2.105   6.629   7.275  0.2727 -0.4245 -0.2517
   90MOL   H21332431   1.971   6.584   7.368 -0.0276 -0.0632  0.1714
   90MOL   H21432432   2.031   6.344   7.370  1.4763 -0.2130  0.5253
   90MOL   H21532433   2.194   6.381   7.313 -0.1322 -0.1205  0.6138
   90MOL   H21632434   2.107   6.455   7.098  1.4806 -1.5952  0.3319
   90MOL   H21732435   2.065   6.296   7.116  0.3495  0.6826 -1.4804
   90MOL   C21832436   1.820   6.299   7.159  0.1208 -0.0672  0.2681
   90MOL   O21932437   1.854   6.188   7.200  0.3107 -0.1867 -0.7665
   90MOL   C22032438   1.678   6.340   7.125  0.0348 -0.1971  0.0189
   90MOL   C22132439   1.600   6.420   7.229  0.5844 -0.0175 -0.3708
   90MOL   C22232440   1.515   6.346   7.337 -0.0700 -0.0118  0.1810
   90MOL   C22332441   1.574   6.219   7.392 -0.0651 -0.5429 -0.2782
   90MOL   C22432442   1.493   6.165   7.508 -0.1998  0.0776 -0.0194
   90MOL   O22532443   1.382   6.092   7.448 -0.0285  0.8177 -0.5244
   90MOL   H22632444   1.611   6.257   7.101  0.1929  0.0381 -1.3004
   90MOL   H22732445   1.699   6.403   7.039  2.1107 -0.1301  0.5451
   90MOL   H22832446   1.533   6.488   7.177 -0.0455  1.0852  1.8111
   90MOL   H22932447   1.684   6.476   7.272 -0.4397  0.5424  0.9259
   90MOL   H23032448   1.424   6.304   7.292  1.1098 -1.9264 -0.4655
   90MOL   H23132449   1.476   6.409   7.417 -0.8238 -0.4568  0.1762
   90MOL   H23232450   1.681   6.221   7.413 -0.0376 -1.1187 -0.3434
   90MOL   H23332451   1.586   6.143   7.314 -0.8575 -0.5504 -0.3978
   90MOL   H23432452   1.552   6.089   7.558  0.2937 -0.7233 -1.7642
   90MOL   H23532453   1.484   6.248   7.578 -1.2261 -0.3581  0.3761
   90MOL   C23632454   1.285   6.051   7.521  0.1326 -0.4395  0.4190
   90MOL   O23732455   1.286   6.056   7.643 -0.1510 -0.3738  0.0417
   90MOL   C23832456   1.161   6.011   7.446  0.3285 -0.4800 -0.0001
   90MOL   C23932457   1.036   5.980   7.528 -0.1828  0.0694 -0.3636
   90MOL   C24032458   0.913   5.975   7.436  0.0745 -0.0502 -0.5666
   90MOL   C24132459   0.777   5.948   7.507 -0.3087  0.7592  0.4433
   90MOL   C24232460   0.672   5.950   7.397  1.0031 -0.0680 -0.0451
   90MOL   O24332461   0.552   5.909   7.453 -0.0134 -0.0403 -0.0644
   90MOL   H24432462   1.195   5.932   7.379 -0.4166 -0.7270 -0.0984
   90MOL   H24532463   1.127   6.098   7.389  1.7539  1.0338  1.4499
   90MOL   H24632464   1.028   6.052   7.610  1.1020  2.1786 -2.0170
   90MOL   H24732465   1.046   5.883   7.576  0.9686  0.5441  0.3781
   90MOL   H24832466   0.919   5.890   7.367  0.0139 -0.3615 -0.1929
   90MOL   H24932467   0.914   6.067   7.378  1.0427  0.1092 -0.2999
   90MOL   H25032468   0.765   6.023   7.585 -0.1613 -0.2419  1.4514
   90MOL   H25132469   0.764   5.854   7.562 -0.6396  1.0546  0.8716
   90MOL   H25232470   0.668   6.044   7.343  1.5535  0.0351  0.0895
   90MOL   H25332471   0.701   5.874   7.325 -1.1597 -0.6268 -0.3594
   90MOL   C25432472   0.443   5.933   7.387  0.3889 -0.1450 -0.5533
   90MOL   O25532473   0.437   6.011   7.291  0.2339 -0.2833 -0.1272
   90MOL   C25632474   0.318   5.883   7.461 -0.2362 -0.0583  0.0493
   90MOL   C25732475   0.218   5.993   7.503  0.1649  0.0512  0.7801
   90MOL   C25832476   0.125   6.037   7.386  0.0735  0.6805  0.0001
   90MOL   C25932477   0.024   5.928   7.356 -0.8786 -0.9291 -0.8602
   90MOL   C26032478   7.757   5.985   7.257  0.1231 -0.0818 -0.3504
   90MOL   O26132479   7.818   6.019   7.129  0.4065  0.1604  0.2235
   90MOL   H26232480   0.359   5.828   7.545  1.5877  3.1148  1.3333
   90MOL   H26332481   0.277   5.804   7.397  1.6173 -0.3958 -0.7725
   90MOL   H26432482   0.278   6.073   7.545 -0.0896  0.7619 -0.2044
   90MOL   H26532483   0.158   5.955   7.586 -0.9309  1.9924  0.8949
   90MOL   H26632484   0.179   6.075   7.299 -1.0307  1.5175 -0.3336
   90MOL   H26732485   0.074   6.129   7.416  1.6607  1.4040  0.5270
   90MOL   H26832486   7.821   5.892   7.447  0.3075 -1.3005 -0.3851
   90MOL   H26932487   0.067   5.842   7.305  3.6641  1.6242 -1.5497
   90MOL   H27032488   7.684   5.907   7.235  1.0814 -0.7735 -1.1357
   90MOL   H27132489   7.701   6.068   7.299  1.5247  0.5753  0.2517
   90MOL   C27232490   7.827   6.141   7.077  1.1219  0.2194  0.1185
   90MOL   O27332491   7.778   6.240   7.136 -0.3999 -0.4292 -0.3672
   90MOL   C27432492   0.042   6.146   6.935  0.3285  0.2483  0.1785
   90MOL   C27532493   0.188   6.108   6.939 -0.7814  0.2438  0.0290
   90MOL   C27632494   0.282   6.226   6.972  0.1385 -0.4589  0.7100
   90MOL   C27732495   0.436   6.194   6.983 -0.5703 -0.3519 -0.2155
   90MOL   C27832496   0.517   6.318   7.031  0.0346  0.0900 -0.2230
   90MOL   O27932497   0.655   6.288   6.997 -0.5454 -0.1801 -0.1187
   90MOL   H28032498   0.030   6.237   6.875  0.7428 -2.0946 -3.6384
   90MOL   H28132499   7.841   6.071   6.870 -2.0189  1.7050  0.0726
   90MOL   H28232500   0.208   6.064   6.841 -1.8214  0.3566 -0.2396
   90MOL   H28332501   0.214   6.034   7.015  0.2164 -1.8578 -2.2803
   90MOL   H28432502   0.245   6.276   7.061  1.5840  1.3005  0.3661
   90MOL   H28532503   0.268   6.296   6.889 -0.6305  1.6034  2.5383
   90MOL   H28632504   0.471   6.145   6.892  0.4235 -0.7258  0.3732
   90MOL   H28732505   0.458   6.112   7.051 -0.5755  2.0630  2.7889
   90MOL   H28832506   0.490   6.413   6.985  2.1870  0.9473  0.1955
   90MOL   H28932507   0.507   6.322   7.140 -1.2984  0.5039 -0.3591
   90MOL   C29032508   0.747   6.357   7.058 -0.3217  0.0895  0.0933
   90MOL   O29132509   0.725   6.455   7.130 -0.2062 -0.2777 -0.7000
   90MOL   C29232510   0.890   6.306   7.023 -0.5180 -0.3506  1.1880
   90MOL   C29332511   0.926   6.161   7.045  0.5214  0.1774 -0.3357
   90MOL   C29432512   1.055   6.117   6.969 -0.0852 -0.0747 -0.5367
   90MOL   C29532513   1.179   6.145   7.057 -0.2414  0.2680 -0.5287
   90MOL   C29632514   1.312   6.078   7.004 -0.2069  0.6821  0.6964
   90MOL   O29732515   1.335   6.105   6.867 -0.1546 -0.1630  0.6227
   90MOL   H29832516   0.949   6.373   7.086 -1.3530  0.8015  0.7757
   90MOL   H29932517   0.911   6.343   6.923 -0.7486  1.1596  1.6727
   90MOL   H30032518   0.862   6.093   6.988  0.5213  0.5334 -0.7651
   90MOL   H30132519   0.916   6.120   7.145  0.9695 -0.9325 -0.7302
   90MOL   H30232520   1.061   6.164   6.871 -3.5194  1.9068  0.1138
   90MOL   H30332521   1.052   6.009   6.957  1.0045 -0.4260  2.0308
   90MOL   H30432522   1.165   6.109   7.159 -2.3856  0.0008 -0.8898
   90MOL   H30532523   1.197   6.251   7.076 -4.7314  1.2468 -1.1714
   90MOL   H30632524   1.396   6.102   7.069  1.3072  0.6833 -1.2388
   90MOL   H30732525   1.291   5.971   7.007  0.2018  0.5457 -0.9683
   90MOL   C30832526   1.421   6.200   6.818 -0.7473  0.1102 -0.3451
   90MOL   O30932527   1.481   6.278   6.889  0.6044  0.6209  0.5032
   90MOL   C31032528   1.429   6.198   6.666 -0.2258  0.5447 -0.1458
   90MOL   C31132529   1.362   6.322   6.597  0.0802 -0.2196  0.5981
   90MOL   C31232530   1.206   6.326   6.605  0.0685 -0.4938 -0.4372
   90MOL   C31332531   1.147   6.197   6.539 -0.1384  0.2871 -0.1634
   90MOL   C31432532   1.011   6.214   6.470 -0.3418 -0.0769 -0.0183
   90MOL   O31532533   0.904   6.221   6.565  0.8112  0.2760 -0.3242
   90MOL   H31632534   1.407   6.104   6.615 -0.0133  0.7064 -0.5452
   90MOL   H31732535   1.535   6.216   6.647 -0.7960  3.1774 -1.0974
   90MOL   H31832536   1.396   6.305   6.495  2.5668  2.6087  0.8804
   90MOL   H31932537   1.406   6.414   6.637  1.5304 -0.5322 -0.2179
   90MOL   H32032538   1.157   6.408   6.553 -0.0267  0.3584  0.9781
   90MOL   H32132539   1.171   6.335   6.708  2.5607 -0.0647  0.4111
   90MOL   H32232540   1.139   6.119   6.614 -1.4956  1.5633  1.0481
   90MOL   H32332541   1.222   6.157   6.470  1.9974  2.1228  1.0209
   90MOL   H32432542   1.004   6.294   6.396 -0.6346 -1.2238 -1.2468
   90MOL   H32532543   0.989   6.125   6.412  0.2441 -0.6573  0.6354
   90MOL   C32632544   0.853   6.342   6.599 -0.3369 -0.8998  0.5636
   90MOL   O32732545   0.898   6.450   6.578 -0.5215  0.0141  0.0232
   90MOL   C32832546   0.724   6.326   6.670  0.8671 -0.4269 -0.0396
   90MOL   C32932547   0.605   6.348   6.583 -0.4932 -0.2993 -0.3998
   90MOL   C33032548   0.466   6.323   6.640 -1.0408  0.0151  0.6261
   90MOL   C33132549   0.368   6.336   6.531 -0.7900  0.5336 -0.5039
   90MOL   C33232550   0.236   6.270   6.553 -0.0041 -0.6507 -0.2505
   90MOL   O33332551   0.263   6.133   6.536  0.1792 -0.3478 -0.3468
   90MOL   H33432552   0.704   6.384   6.761  3.2704 -1.1476  0.9908
   90MOL   H33532553   0.725   6.226   6.713  0.3535 -0.9710 -1.2750
   90MOL   H33632554   0.625   6.295   6.490  1.0294 -0.0413 -0.2318
   90MOL   H33732555   0.603   6.450   6.544 -1.3399  0.4104  1.4315
   90MOL   H33832556   0.440   6.392   6.720 -2.5830 -0.5982  0.6737
   90MOL   H33932557   0.474   6.222   6.680  0.2777 -0.5280 -0.9613
   90MOL   H34032558   0.400   6.283   6.441 -2.2733 -3.3200  1.1428
   90MOL   H34132559   0.348   6.437   6.496 -2.6950  0.1117 -0.6747
   90MOL   H34232560   0.193   6.288   6.652 -2.4457 -2.0144 -1.0260
   90MOL   H34332561   0.167   6.299   6.474 -0.9346 -3.0292 -0.3636
   90MOL   C34432562   0.173   6.045   6.573  0.4373  0.2512  0.7551
   90MOL   O34532563   0.069   6.061   6.639 -0.2523  0.1616 -0.0556
   90MOL   C34632564   0.199   5.907   6.512 -0.1621  0.3863 -1.0542
   90MOL   C34732565   0.341   5.860   6.522 -0.4651  0.4714 -0.6938
   90MOL   C34832566   0.417   5.858   6.386 -0.0257  0.1381  0.0510
   90MOL   C34932567   0.552   5.770   6.388 -0.4667 -0.1216  0.5889
   90MOL   C35032568   0.547   5.639   6.469  0.4751  0.1390  0.3657
   90MOL   O35132569   0.648   5.553   6.423  0.5997  0.3024 -0.1908
   90MOL   H35232570   0.171   5.902   6.407 -1.5680 -1.3608 -0.6128
   90MOL   H35332571   0.133   5.840   6.566  4.5253 -0.9929  3.2732
   90MOL   H35432572   0.334   5.763   6.570 -2.1278  0.3729 -1.0772
   90MOL   H35532573   0.386   5.927   6.595 -0.0075 -0.6224  0.0462
   90MOL   H35632574   0.448   5.958   6.358  2.1969 -0.7470 -0.7713
   90MOL   H35732575   0.352   5.820   6.308 -1.2374  1.6622  0.2923
   90MOL   H35832576   0.635   5.827   6.428 -0.1807  1.4111 -2.0543
   90MOL   H35932577   0.575   5.744   6.284  2.2314  0.0948  1.1100
   90MOL   H36032578   0.527   5.649   6.575  0.8105  3.2432  0.2078
   90MOL   H36132579   0.454   5.588   6.444 -0.4275  2.0411 -0.3274
   90MOL   H36232580   0.630   5.466   6.456  2.5159 -0.1771 -0.3872
   91MOL     C132581   7.323   3.513   1.976 -0.3482  0.3922  0.2908
   91MOL     O232582   7.340   3.483   2.092 -0.2706  0.5997  0.0391
   91MOL     C332583   7.275   3.657   1.947 -0.5426  0.1189 -0.2325
   91MOL     C432584   7.124   3.652   1.966  0.1318  0.0270 -0.5227
   91MOL     C532585   7.058   3.787   1.940  0.4096  0.1802  0.2758
   91MOL     C632586   6.908   3.809   1.953 -0.6951 -0.1070  0.4155
   91MOL     C732587   6.825   3.728   1.843 -0.2863  0.0112  0.0952
   91MOL     O832588   6.822   3.784   1.716  0.3534 -0.5640 -0.0559
   91MOL     H932589   7.311   3.688   1.849 -0.8310  0.9140 -0.0871
   91MOL    H1032590   7.328   3.724   2.015 -1.5200 -0.6136  1.2849
   91MOL    H1132591   7.091   3.619   2.065  0.9747 -0.9128 -0.5550
   91MOL    H1232592   7.091   3.577   1.894  2.7973 -1.7546  0.0267
   91MOL    H1332593   7.084   3.829   1.843 -0.6252  0.2431  0.0207
   91MOL    H1432594   7.103   3.847   2.019  0.3399  3.5248 -2.0894
   91MOL    H1532595   6.886   3.915   1.947 -1.0779 -0.2087 -0.0418
   91MOL    H1632596   6.879   3.773   2.052  1.4940 -0.5334  0.9369
   91MOL    H1732597   6.850   3.623   1.845 -2.7726 -0.6423 -0.7769
   91MOL    H1832598   6.720   3.736   1.873 -0.8000  2.4716 -2.0979
   91MOL    H1932599   7.360   3.456   1.891 -0.6389  0.1391  0.3319
   91MOL    C2032600   6.914   3.759   1.624 -0.3262 -0.2231  0.3699
   91MOL    O2132601   7.019   3.700   1.640 -0.1270  0.3001 -0.2113
   91MOL    C2232602   6.874   3.810   1.484 -0.1511 -0.0190  0.2327
   91MOL    C2332603   6.762   3.723   1.412 -0.1227 -0.0122 -0.3173
   91MOL    C2432604   6.617   3.778   1.442 -0.8762  0.6156  0.3037
   91MOL    C2532605   6.508   3.679   1.398 -0.3874  0.1022 -0.3623
   91MOL    C2632606   6.369   3.735   1.395 -0.0598 -0.1374 -0.2477
   91MOL    O2732607   6.358   3.824   1.294  0.1309 -0.2122  0.3820
   91MOL    H2832608   6.959   3.827   1.419 -0.5494  1.7864  0.1705
   91MOL    H2932609   6.832   3.907   1.511 -2.9945 -1.6052  1.7711
   91MOL    H3032610   6.764   3.627   1.462 -2.1288 -0.8431 -1.7906
   91MOL    H3132611   6.776   3.690   1.309 -2.5491  0.4718 -0.8318
   91MOL    H3232612   6.604   3.875   1.393 -0.7182  0.3996 -0.1664
   91MOL    H3332613   6.602   3.799   1.548 -1.6207  0.3893  0.2447
   91MOL    H3432614   6.496   3.599   1.471 -1.9087  0.1500 -0.5427
   91MOL    H3532615   6.527   3.638   1.299  0.5002  0.0575 -0.1849
   91MOL    H3632616   6.298   3.652   1.395 -1.0469  0.6911  0.0822
   91MOL    H3732617   6.351   3.790   1.487 -1.7265  0.9137 -1.1682
   91MOL    C3832618   6.260   3.923   1.309 -0.1452  0.2208  0.5305
   91MOL    O3932619   6.203   3.957   1.411  0.1134 -0.2168 -0.4391
   91MOL    C4032620   6.249   3.998   1.175  0.3603 -0.5406 -0.3588
   91MOL    C4132621   6.199   3.917   1.050 -0.6125  0.3276 -1.3022
   91MOL    C4232622   6.062   3.849   1.052 -0.8977  0.3614 -0.1235
   91MOL    C4332623   5.942   3.948   1.063  1.1285 -0.3457  0.4495
   91MOL    C4432624   5.811   3.882   1.034  0.0629 -0.5098  0.2481
   91MOL    O4532625   5.718   3.985   1.015  0.0107 -0.1617  0.5704
   91MOL    H4632626   6.344   4.039   1.143 -0.3868  0.1679 -1.7304
   91MOL    H4732627   6.179   4.081   1.187 -0.6126 -1.2614 -1.0026
   91MOL    H4832628   6.272   3.838   1.035  0.3833  0.7077  1.1483
   91MOL    H4932629   6.210   3.978   0.960  1.3499 -0.0517 -1.3507
   91MOL    H5032630   6.059   3.767   1.124 -0.3032 -0.0097 -0.5117
   91MOL    H5132631   6.052   3.799   0.955  1.3987 -0.8102  0.2015
   91MOL    H5232632   5.969   4.026   0.991 -2.4678 -0.5537 -1.2227
   91MOL    H5332633   5.931   4.000   1.157  3.0929  2.6486 -0.9127
   91MOL    H5432634   5.811   3.816   0.947 -1.7636  0.1141 -0.2502
   91MOL    H5532635   5.778   3.818   1.116 -1.0712 -2.7631 -1.8904
   91MOL    C5632636   5.616   3.964   0.931 -0.0607 -0.7879 -0.1423
   91MOL    O5732637   5.583   3.859   0.876  0.2861 -0.3854  1.2977
   91MOL    C5832638   5.549   4.096   0.885  0.1391 -0.1299  1.5689
   91MOL    C5932639   5.492   4.182   1.002 -0.1491  0.1302 -0.1550
   91MOL    C6032640   5.426   4.312   0.957 -0.4139 -0.1836 -0.5850
   91MOL    C6132641   5.323   4.367   1.062  0.3378 -0.3244 -0.1151
   91MOL    C6232642   5.251   4.496   1.007  0.0218  0.3275 -0.8669
   91MOL    O6332643   5.146   4.538   1.097  0.2493  0.4661  0.1927
   91MOL    H6432644   5.469   4.065   0.818  0.4122 -0.5664  1.4410
   91MOL    H6532645   5.625   4.141   0.821  0.1442 -1.0710  0.8999
   91MOL    H6632646   5.578   4.199   1.066  1.0564  0.6907 -1.9007
   91MOL    H6732647   5.431   4.117   1.064  3.3787 -1.7519  1.4769
   91MOL    H6832648   5.380   4.297   0.860 -2.2297  1.0372  0.0648
   91MOL    H6932649   5.510   4.379   0.941 -1.3574  1.2235  0.2808
   91MOL    H7032650   5.360   4.386   1.163  2.6706 -0.7437 -0.8530
   91MOL    H7132651   5.245   4.292   1.073  1.0903 -1.2605 -1.0509
   91MOL    H7232652   5.329   4.570   0.992  2.2680 -1.4041  1.7244
   91MOL    H7332653   5.204   4.475   0.911 -1.0114  2.3391 -0.8265
   91MOL    C7432654   5.182   4.608   1.205 -0.2312  0.7967  0.0473
   91MOL    O7532655   5.295   4.640   1.237 -0.4246  0.3305  0.4423
   91MOL    C7632656   5.060   4.640   1.287  0.6557  0.4261 -0.0257
   91MOL    C7732657   5.067   4.739   1.404  0.8105  0.2042  0.3280
   91MOL    C7832658   5.054   4.888   1.348 -0.3720  0.4136 -0.3108
   91MOL    C7932659   5.070   4.986   1.459  0.2504  0.2674 -0.5196
   91MOL    C8032660   5.061   5.133   1.414 -0.4458 -0.0586 -0.4580
   91MOL    O8132661   5.181   5.175   1.349  0.1482  0.0252 -0.0565
   91MOL    H8232662   5.027   4.547   1.333  0.4146  0.6937  0.3390
   91MOL    H8332663   4.977   4.667   1.222 -0.5196 -1.3686  0.6979
   91MOL    H8432664   5.163   4.731   1.454 -0.1594 -3.7509  1.7615
   91MOL    H8532665   4.986   4.714   1.471  0.1555 -0.5961 -0.7391
   91MOL    H8632666   4.959   4.901   1.296  0.4822 -1.8754 -2.5136
   91MOL    H8732667   5.126   4.903   1.268 -2.3344  3.4504 -1.5910
   91MOL    H8832668   5.152   4.971   1.529 -0.1590  0.5479  0.0283
   91MOL    H8932669   4.984   4.960   1.521 -0.6286 -2.7176 -2.8597
   91MOL    H9032670   4.979   5.139   1.343  0.4688  0.7778 -1.4676
   91MOL    H9132671   5.025   5.205   1.487 -0.0759 -1.3820  1.0692
   91MOL    C9232672   5.299   5.198   1.418  0.4634 -0.1855 -0.1910
   91MOL    O9332673   5.313   5.198   1.539 -0.2369  0.9603  0.1086
   91MOL    C9432674   5.419   5.234   1.327  1.0009  0.4423  0.0356
   91MOL    C9532675   5.524   5.135   1.309  1.1929  0.0064  0.9780
   91MOL    C9632676   5.473   5.009   1.237  0.9608  0.0372 -0.1933
   91MOL    C9732677   5.431   5.017   1.093 -0.4259 -0.3977 -0.7442
   91MOL    C9832678   5.405   4.888   1.026  0.8252  0.2874  0.4473
   91MOL    O9932679   5.524   4.807   1.043  0.0348 -0.3194 -0.1532
   91MOL   H10032680   5.447   5.318   1.391  0.6727  1.2506 -0.8590
   91MOL   H10132681   5.385   5.281   1.234  0.3384  1.4001  0.7527
   91MOL   H10232682   5.573   5.115   1.404 -1.0355  1.4623  2.4719
   91MOL   H10332683   5.598   5.172   1.237 -0.9981 -0.8630 -1.8079
   91MOL   H10432684   5.394   4.960   1.293  1.9596 -1.5426 -0.1426
   91MOL   H10532685   5.554   4.937   1.253  1.8589  0.9269 -0.6480
   91MOL   H10632686   5.507   5.075   1.042 -0.1683 -0.1967 -0.1378
   91MOL   H10732687   5.342   5.079   1.084 -0.8547 -0.7646  0.7725
   91MOL   H10832688   5.322   4.831   1.068  0.4469  0.9085  0.5593
   91MOL   H10932689   5.378   4.896   0.921 -1.0991 -1.4377  0.7754
   91MOL   C11032690   5.548   4.698   0.969 -0.5688  1.2283 -0.4883
   91MOL   O11132691   5.488   4.664   0.865  0.2865  0.2775  0.5075
   91MOL   C11232692   5.666   4.613   1.020  0.0236 -0.4870 -0.1690
   91MOL   C11332693   5.647   4.538   1.150 -0.2013 -0.6331 -0.1751
   91MOL   C11432694   5.678   4.619   1.274  0.5855  0.1550  0.5928
   91MOL   C11532695   5.655   4.539   1.408  0.1330 -0.0439 -0.8081
   91MOL   C11632696   5.701   4.626   1.529 -0.6858 -0.0185  0.4848
   91MOL   O11732697   5.611   4.723   1.579  0.0683  0.0774  0.2763
   91MOL   H11832698   5.753   4.679   1.021 -0.1068 -0.2365 -2.5632
   91MOL   H11932699   5.695   4.544   0.941  2.6790  0.3536  0.0125
   91MOL   H12032700   5.691   4.438   1.145 -0.7857 -0.9440  0.8523
   91MOL   H12132701   5.541   4.525   1.169 -0.6149  2.4886 -0.1339
   91MOL   H12232702   5.618   4.710   1.277  1.4017  0.7426 -0.4347
   91MOL   H12332703   5.782   4.652   1.265  0.0319  2.4139  2.0438
   91MOL   H12432704   5.722   4.453   1.407 -0.2002 -0.3050 -0.9383
   91MOL   H12532705   5.553   4.504   1.423  0.4787 -2.1312 -3.0546
   91MOL   H12632706   5.749   4.571   1.611  1.9279  0.2223 -0.8300
   91MOL   H12732707   5.795   4.667   1.492 -1.5418 -0.5436 -2.3476
   91MOL   C12832708   5.617   4.858   1.537 -0.2973  0.3305 -0.5924
   91MOL   O12932709   5.709   4.900   1.473  0.5418  0.0788  0.3618
   91MOL   C13032710   5.509   4.955   1.585 -0.2111 -0.3706  0.0523
   91MOL   C13132711   5.435   4.919   1.711 -0.3347  0.4165  0.2901
   91MOL   C13232712   5.530   4.917   1.832 -0.3106 -0.1782  0.3572
   91MOL   C13332713   5.451   4.907   1.963  0.7769  0.0554 -0.1960
   91MOL   C13432714   5.538   4.894   2.080 -0.1102  0.1059  0.0922
   91MOL   O13532715   5.594   5.020   2.111  0.6564  0.0814 -0.7614
   91MOL   H13632716   5.437   4.971   1.504  1.4047  3.3067 -0.7599
   91MOL   H13732717   5.551   5.051   1.614 -1.5605 -0.4120  2.2379
   91MOL   H13832718   5.405   4.817   1.686  2.1276 -0.0155 -1.0922
   91MOL   H13932719   5.347   4.982   1.716 -2.0719 -1.6522 -2.8115
   91MOL   H14032720   5.582   5.012   1.843 -0.6617  0.2147 -1.2718
   91MOL   H14132721   5.600   4.834   1.827  0.9977  0.8979  0.3405
   91MOL   H14232722   5.398   4.812   1.964 -1.3944  1.1897 -2.1690
   91MOL   H14332723   5.384   4.992   1.952 -1.5233 -1.6991 -0.1440
   91MOL   H14432724   5.481   4.851   2.162 -1.9913  2.2104 -0.0663
   91MOL   H14532725   5.612   4.816   2.060 -2.0824 -1.5868 -0.8618
   91MOL   C14632726   5.521   5.108   2.176  0.3507  0.1772  0.1597
   91MOL   O14732727   5.406   5.102   2.215 -0.0598 -0.0729  0.2681
   91MOL   C14832728   5.598   5.235   2.195 -0.1190  0.4740 -0.2020
   91MOL   C14932729   5.610   5.309   2.063 -0.0326 -0.4408  0.1681
   91MOL   C15032730   5.476   5.347   1.983  0.1219  0.1532 -0.2125
   91MOL   C15132731   5.491   5.410   1.845  0.3552  0.1071 -0.3649
   91MOL   C15232732   5.524   5.311   1.730  0.4123  0.4739  0.2318
   91MOL   O15332733   5.659   5.266   1.739 -0.6958 -0.8751  0.1740
   91MOL   H15432734   5.693   5.208   2.241 -0.4319  0.4735  0.4552
   91MOL   H15532735   5.541   5.300   2.262  1.1784  1.7600 -0.3169
   91MOL   H15632736   5.663   5.249   1.988  1.5206  0.4909  0.4919
   91MOL   H15732737   5.665   5.402   2.073  0.7040 -1.1423  2.8389
   91MOL   H15832738   5.411   5.411   2.043  0.4015 -0.8471  1.1705
   91MOL   H15932739   5.403   5.268   1.970 -1.7287  2.1601 -2.5929
   91MOL   H16032740   5.567   5.488   1.837 -0.8016  1.1918 -0.8739
   91MOL   H16132741   5.396   5.458   1.821  0.3735  0.9178  1.0882
   91MOL   H16232742   5.463   5.221   1.742  0.1881  0.5584 -0.2765
   91MOL   H16332743   5.487   5.355   1.637  0.2918 -0.8214 -0.3434
   91MOL   C16432744   5.744   5.341   1.660 -0.0692 -0.0170 -0.4451
   91MOL   O16532745   5.715   5.446   1.605 -0.3361  0.7704  0.0064
   91MOL   C16632746   5.883   5.287   1.643  0.1371  0.7383 -0.7345
   91MOL   C16732747   5.902   5.170   1.550 -0.5012  0.3867 -0.1734
   91MOL   C16832748   6.051   5.147   1.503 -0.4504  0.2715  0.4140
   91MOL   C16932749   6.146   5.070   1.601 -0.7414 -0.0359  0.5082
   91MOL   C17032750   6.282   5.026   1.548 -0.0046  0.6341  0.2032
   91MOL   O17132751   6.278   4.952   1.429  0.4364 -0.6751 -0.3310
   91MOL   H17232752   5.897   5.249   1.744 -0.0784 -0.0235 -0.9829
   91MOL   H17332753   5.950   5.368   1.616 -0.3254  0.7122 -1.9779
   91MOL   H17432754   5.844   5.188   1.459 -0.3939 -1.6015 -0.6448
   91MOL   H17532755   5.855   5.076   1.579 -2.2596  1.6528  1.2869
   91MOL   H17632756   6.093   5.245   1.480  0.5001 -0.1742  0.2385
   91MOL   H17732757   6.061   5.107   1.402  0.6602 -0.8158  0.9432
   91MOL   H17832758   6.087   4.987   1.640  1.8234 -1.7382  0.8982
   91MOL   H17932759   6.150   5.129   1.693 -0.4386  0.6811  0.0392
   91MOL   H18032760   6.329   5.120   1.521  0.9151 -0.0184 -0.4908
   91MOL   H18132761   6.354   4.977   1.614  1.9887  0.0701 -2.3184
   91MOL   C18232762   6.239   4.822   1.426 -0.0548 -0.6695 -0.3572
   91MOL   O18332763   6.194   4.758   1.522 -0.2918  0.6280 -0.3306
   91MOL   C18432764   6.234   4.770   1.290  0.3225  0.0299 -0.1727
   91MOL   C18532765   6.080   4.744   1.258 -0.4781  0.6796 -0.0392
   91MOL   C18632766   5.981   4.857   1.265  0.1420 -0.3135  0.0767
   91MOL   C18732767   6.017   4.957   1.157 -0.1701  0.2980 -0.1489
   91MOL   C18832768   5.907   5.052   1.117 -0.2773 -0.0659  0.3761
   91MOL   O18932769   5.964   5.150   1.039 -0.1240 -0.2402 -0.3194
   91MOL   H19032770   6.302   4.685   1.278 -0.5511 -0.6556 -0.3300
   91MOL   H19132771   6.277   4.844   1.223  1.1460 -0.6071 -0.3509
   91MOL   H19232772   6.050   4.673   1.335 -1.4608  0.2681 -0.7998
   91MOL   H19332773   6.079   4.698   1.159 -1.3854  0.3702  0.1053
   91MOL   H19432774   5.976   4.898   1.366  0.8053 -1.0593  0.4155
   91MOL   H19532775   5.880   4.821   1.247 -0.9283  1.2568  2.5556
   91MOL   H19632776   6.045   4.912   1.061 -0.4689  0.4192 -0.2918
   91MOL   H19732777   6.110   5.012   1.176  0.9016 -1.1148 -1.1761
   91MOL   H19832778   5.829   4.994   1.068  2.0019 -1.3711 -1.8679
   91MOL   H19932779   5.848   5.091   1.200 -1.0764  1.0172 -0.6716
   91MOL   C20032780   5.894   5.250   0.985  0.2081 -0.1452 -0.5203
   91MOL   O20132781   5.771   5.266   0.995  0.1371  0.2521  0.7991
   91MOL   C20232782   5.979   5.345   0.909  0.8348  0.1942 -0.3041
   91MOL   C20332783   6.014   5.295   0.768 -0.0633 -0.5876  0.3478
   91MOL   C20432784   6.100   5.174   0.753 -0.1546  0.1506  0.5127
   91MOL   C20532785   6.123   5.150   0.605  0.2489  0.3169 -0.5614
   91MOL   C20632786   6.192   5.011   0.591  0.5839  0.3237  0.2161
   91MOL   O20732787   6.214   4.988   0.448 -0.1248  0.5329 -0.1960
   91MOL   H20832788   6.077   5.355   0.955 -0.0631  2.3263  1.2123
   91MOL   H20932789   5.941   5.447   0.902  0.3317 -0.0243 -0.7755
   91MOL   H21032790   6.070   5.376   0.722 -0.4338  0.1643  1.2171
   91MOL   H21132791   5.926   5.281   0.705  1.3094 -1.5065 -1.4144
   91MOL   H21232792   6.059   5.091   0.812  1.2295 -0.5356  0.5201
   91MOL   H21332793   6.192   5.193   0.808 -0.6904  0.1448  1.4351
   91MOL   H21432794   6.185   5.234   0.572  0.2726  0.9770  1.1100
   91MOL   H21532795   6.036   5.148   0.540  0.8161  0.8806 -1.3467
   91MOL   H21632796   6.288   5.017   0.641 -0.6745  2.2792  2.4908
   91MOL   H21732797   6.140   4.926   0.634  1.8101 -0.5761 -0.0830
   91MOL   C21832798   6.256   4.875   0.414  0.3927  0.0899 -0.6360
   91MOL   O21932799   6.262   4.775   0.484  0.1787 -0.1073  0.1086
   91MOL   C22032800   6.290   4.874   0.267 -0.3020  0.0256  0.6780
   91MOL   C22132801   6.253   4.736   0.193 -0.0940  0.3009 -0.4784
   91MOL   C22232802   6.294   4.756   0.043 -0.3088 -0.7077 -0.5312
   91MOL   C22332803   6.236   4.640   7.805  0.6621 -0.4727 -0.1541
   91MOL   C22432804   6.268   4.653   7.653 -0.4454 -0.7782  0.4638
   91MOL   O22532805   6.403   4.674   7.624  0.3398  0.5646  0.7703
   91MOL   H22632806   6.398   4.885   0.255 -0.4609  1.8572  0.8000
   91MOL   H22732807   6.242   4.956   0.215  2.7280  1.7345  0.4227
   91MOL   H22832808   6.149   4.705   0.201 -0.0080  0.4352  1.2846
   91MOL   H22932809   6.303   4.654   0.243 -0.6653 -0.0718 -0.5111
   91MOL   H23032810   6.400   4.781   0.042 -0.1112 -1.4437  1.2183
   91MOL   H23132811   6.243   4.846   0.007  4.8365  2.8040  0.4381
   91MOL   H23232812   6.129   4.621   7.819  0.5542  0.6570  0.6854
   91MOL   H23332813   6.273   4.553   0.014  1.2158 -0.9291 -1.2744
   91MOL   H23432814   6.230   4.562   7.607 -0.3816  0.6671 -2.5165
   91MOL   H23532815   6.212   4.741   7.622  0.5155 -0.2534  0.2058
   91MOL   C23632816   6.489   4.566   7.616  0.1489 -0.2568  0.6233
   91MOL   O23732817   6.473   4.448   7.640 -0.3699 -0.2761 -0.0192
   91MOL   C23832818   6.628   4.601   7.560  0.0927  0.1917 -0.2062
   91MOL   C23932819   6.678   4.496   7.458 -0.5107  0.5050  0.0280
   91MOL   C24032820   6.591   4.491   7.329  0.3953  0.2551  0.0690
   91MOL   C24132821   6.646   4.375   7.248 -0.1170  0.2338  0.4105
   91MOL   C24232822   6.584   4.335   7.109  1.0603  0.0732 -0.3909
   91MOL   O24332823   6.580   4.448   7.027  0.0174 -0.4121  0.1434
   91MOL   H24432824   6.689   4.607   7.650 -2.0997  1.2306  1.2564
   91MOL   H24532825   6.628   4.705   7.525  2.8772  0.2715 -0.0599
   91MOL   H24632826   6.697   4.399   7.504  0.7689  0.3913 -0.6992
   91MOL   H24732827   6.776   4.529   7.421 -1.1299  1.5836 -0.6717
   91MOL   H24832828   6.609   4.584   7.274 -2.3909  1.0914  0.4489
   91MOL   H24932829   6.486   4.481   7.357  0.2585 -2.6011 -1.3348
   91MOL   H25032830   6.643   4.279   7.300 -0.0005  0.3540  0.6371
   91MOL   H25132831   6.754   4.390   7.241  0.1650 -1.8268 -0.1754
   91MOL   H25232832   6.654   4.263   7.067  0.7274  0.6578 -1.9663
   91MOL   H25332833   6.488   4.284   7.105  0.2608  1.5840 -0.7473
   91MOL   C25432834   6.475   4.458   6.941 -0.0996 -0.1148  0.3177
   91MOL   O25532835   6.394   4.369   6.917 -0.1939  0.0679  0.2859
   91MOL   C25632836   6.481   4.580   6.851  0.2813 -0.6118  0.1763
   91MOL   C25732837   6.385   4.682   6.901  0.3291  0.2198  0.0386
   91MOL   C25832838   6.377   4.811   6.818 -0.1527 -0.4312  0.1803
   91MOL   C25932839   6.280   4.923   6.869 -0.3486  0.2022 -0.6154
   91MOL   C26032840   6.269   5.055   6.778  0.4108  0.0189  0.5527
   91MOL   O26132841   6.179   5.046   6.671 -0.2937 -0.2737 -0.1123
   91MOL   H26232842   6.456   4.555   6.748  0.7335 -1.2069  0.2096
   91MOL   H26332843   6.583   4.618   6.860  1.0097 -2.3802 -0.3341
   91MOL   H26432844   6.413   4.711   7.002  1.0027  1.1710 -0.4074
   91MOL   H26532845   6.284   4.641   6.900 -0.5290  2.2545 -0.6997
   91MOL   H26632846   6.337   4.797   6.718 -1.6973  0.7297  0.6063
   91MOL   H26732847   6.480   4.842   6.805  0.1810 -1.4582  0.2986
   91MOL   H26832848   6.316   4.963   6.964  0.2961  1.2969 -1.3168
   91MOL   H26932849   6.185   4.877   6.899 -1.2832  1.5059 -1.5397
   91MOL   H27032850   6.232   5.137   6.840 -0.7342 -0.3880  0.4361
   91MOL   H27132851   6.362   5.090   6.734 -0.1608 -0.1724 -0.8203
   91MOL   C27232852   6.130   5.162   6.610  0.8296 -0.1887 -0.7876
   91MOL   O27332853   6.132   5.275   6.665 -0.1367  0.4932  0.2087
   91MOL   C27432854   6.069   5.133   6.473 -0.0487 -0.1045 -0.5140
   91MOL   C27532855   5.965   5.022   6.464  0.1785 -0.3272 -0.6693
   91MOL   C27632856   5.937   4.987   6.319 -0.4533 -0.3645  0.3907
   91MOL   C27732857   5.802   4.917   6.299 -0.6514 -0.1664  0.4850
   91MOL   C27832858   5.675   4.983   6.362 -0.6159 -0.9426  0.1725
   91MOL   O27932859   5.664   5.112   6.317  0.7372  0.0423  0.4347
   91MOL   H28032860   6.157   5.093   6.422 -0.1194 -0.7536 -0.1411
   91MOL   H28132861   6.042   5.229   6.429  0.9214  0.2917 -0.2459
   91MOL   H28232862   5.874   5.063   6.509  0.9425 -0.0905  0.6931
   91MOL   H28332863   5.988   4.933   6.522 -1.1356  0.4131  1.0559
   91MOL   H28432864   6.016   4.920   6.283 -1.4231 -0.2922 -1.9702
   91MOL   H28532865   5.947   5.072   6.252 -2.2617  0.9204  1.7083
   91MOL   H28632866   5.819   4.819   6.344  0.2369 -0.9076 -1.4464
   91MOL   H28732867   5.772   4.902   6.196  0.6201  1.2526 -0.1102
   91MOL   H28832868   5.589   4.928   6.325 -0.4933 -0.2334 -1.2205
   91MOL   H28932869   5.692   4.980   6.469  0.0104 -0.7531  0.0827
   91MOL   C29032870   5.549   5.178   6.331  0.5769  0.7005 -0.2100
   91MOL   O29132871   5.450   5.128   6.388  0.0740 -0.2731  0.2513
   91MOL   C29232872   5.560   5.323   6.290 -0.4436 -0.0515 -0.5715
   91MOL   C29332873   5.678   5.405   6.349 -0.4500  0.5783  0.2376
   91MOL   C29432874   5.693   5.546   6.289  0.2679  0.0324  0.3097
   91MOL   C29532875   5.719   5.551   6.131 -0.4749 -0.0442 -0.4437
   91MOL   C29632876   5.725   5.691   6.073  0.9759 -0.7687  0.5795
   91MOL   O29732877   5.753   5.685   5.931 -0.0968  0.4128  0.3212
   91MOL   H29832878   5.465   5.368   6.320 -1.4928 -1.9415 -0.9978
   91MOL   H29932879   5.571   5.328   6.182  0.9462 -1.3765 -0.5020
   91MOL   H30032880   5.769   5.348   6.363 -0.7749  0.2317  0.9344
   91MOL   H30132881   5.652   5.431   6.452 -1.0883  2.0993 -0.2956
   91MOL   H30232882   5.776   5.597   6.337 -0.1956 -0.7730  2.0160
   91MOL   H30332883   5.600   5.602   6.303  1.2373  1.3223  1.7021
   91MOL   H30432884   5.637   5.502   6.078 -1.2949  0.6412  0.1853
   91MOL   H30532885   5.819   5.508   6.118 -0.7827 -1.1485  0.7517
   91MOL   H30632886   5.627   5.737   6.081  0.5894 -1.4154 -0.3480
   91MOL   H30732887   5.800   5.743   6.134  1.1285  0.4267 -0.6157
   91MOL   C30832888   5.825   5.780   5.874 -0.6632  0.2894  0.3124
   91MOL   O30932889   5.862   5.882   5.929  0.0090 -0.0762 -0.5795
   91MOL   C31032890   5.832   5.761   5.724  0.2743  0.5711  1.0050
   91MOL   C31132891   5.919   5.634   5.687  0.0222 -0.3771  0.4471
   91MOL   C31232892   6.068   5.630   5.731  0.6611  0.0349  0.3344
   91MOL   C31332893   6.175   5.640   5.628 -0.9245 -0.3658 -0.5782
   91MOL   C31432894   6.169   5.772   5.550 -0.1684 -0.2971 -0.1297
   91MOL   O31532895   6.269   5.777   5.449 -0.9740  0.6434 -0.0376
   91MOL   H31632896   5.889   5.843   5.682  0.9141 -0.7485 -0.7213
   91MOL   H31732897   5.731   5.754   5.684 -0.0679 -0.0603  1.9648
   91MOL   H31832898   5.911   5.631   5.578  0.4023  0.5821  0.3865
   91MOL   H31932899   5.873   5.543   5.724  1.8170 -1.0345  1.0944
   91MOL   H32032900   6.093   5.543   5.792 -0.2294 -0.4589  0.0004
   91MOL   H32132901   6.084   5.709   5.805 -1.1162  0.3302  0.4284
   91MOL   H32232902   6.173   5.553   5.562  0.8385 -0.1572 -0.9217
   91MOL   H32332903   6.268   5.632   5.683 -1.6429 -0.7064  0.6244
   91MOL   H32432904   6.070   5.788   5.509 -0.8219 -1.9476  0.7554
   91MOL   H32532905   6.178   5.856   5.619 -2.4020 -1.1982  1.2857
   91MOL   C32632906   6.257   5.732   5.324 -0.2920  0.3199  0.0185
   91MOL   O32732907   6.157   5.677   5.275 -0.0419  0.1346  0.2600
   91MOL   C32832908   6.384   5.730   5.244 -0.6557  0.3037 -0.8120
   91MOL   C32932909   6.435   5.594   5.203  0.1556  0.3489 -0.6008
   91MOL   C33032910   6.466   5.494   5.316 -0.3091 -0.3453  0.3330
   91MOL   C33132911   6.371   5.376   5.316 -1.2416 -0.1137  0.2360
   91MOL   C33232912   6.411   5.249   5.393 -0.3430  0.1937  0.7073
   91MOL   O33332913   6.466   5.270   5.523  0.2321 -0.2415 -0.2233
   91MOL   H33432914   6.450   5.788   5.308  1.0879 -0.0000 -2.3044
   91MOL   H33532915   6.372   5.800   5.162  2.7494  0.3312 -1.3354
   91MOL   H33632916   6.528   5.606   5.146  1.4506 -1.8205  0.9718
   91MOL   H33732917   6.370   5.553   5.125 -0.7640  0.8106 -0.0822
   91MOL   H33832918   6.472   5.551   5.409  1.0517  0.7092 -0.3807
   91MOL   H33932919   6.569   5.457   5.315 -0.5682 -1.0670  0.3436
   91MOL   H34032920   6.346   5.354   5.212  0.8965  1.4111 -0.6329
   91MOL   H34132921   6.272   5.398   5.355 -1.6187  0.7037 -1.1541
   91MOL   H34232922   6.331   5.176   5.404 -0.1449 -0.1941 -0.3297
   91MOL   H34332923   6.483   5.195   5.331 -0.0634  2.6803 -1.1980
   91MOL   C34432924   6.383   5.291   5.621  0.4672 -0.9664  0.4652
   91MOL   O34532925   6.261   5.319   5.613 -0.0732  0.7010  0.0547
   91MOL   C34632926   6.457   5.298   5.752  0.0118  0.2234 -0.1546
   91MOL   C34732927   6.478   5.169   5.821  0.6014  0.1076 -0.1067
   91MOL   C34832928   6.357   5.101   5.889 -0.3612 -0.4852 -0.6026
   91MOL   C34932929   6.400   4.966   5.938  0.2975  0.0474  0.4734
   91MOL   C35032930   6.289   4.888   6.007  0.3132  0.4313  0.7055
   91MOL   O35132931   6.334   4.756   6.019 -0.4053  0.9443  0.0271
   91MOL   H35232932   6.408   5.376   5.811  0.4793 -0.2739  0.9217
   91MOL   H35332933   6.556   5.338   5.732 -0.4889  0.7689 -1.5857
   91MOL   H35432934   6.553   5.177   5.899 -0.7873 -2.6826  1.5872
   91MOL   H35532935   6.523   5.095   5.754  0.2453  0.6518 -0.9549
   91MOL   H35632936   6.282   5.106   5.810 -0.4349 -2.7221 -0.7208
   91MOL   H35732937   6.312   5.156   5.972  0.6307 -1.0134  0.3062
   91MOL   H35832938   6.485   4.961   6.006  0.4655  1.6693  0.4098
   91MOL   H35932939   6.425   4.910   5.847 -1.6562 -0.5236  0.2794
   91MOL   H36032940   6.274   4.940   6.101  2.5092  0.2034  1.2197
   91MOL   H36132941   6.194   4.881   5.954  0.7517  0.6396 -0.1263
   91MOL   H36232942   6.262   4.708   6.058 -0.5794 -0.4291 -1.9112
   92MOL     C132943   4.928   0.904   1.432  0.1335  1.0301 -0.7205
   92MOL     O232944   5.011   0.816   1.417  0.3892 -0.0355  0.3252
   92MOL     C332945   4.953   1.052   1.413  0.0417 -0.2873  0.0387
   92MOL     C432946   5.044   1.091   1.298 -0.3106 -0.1831  0.3511
   92MOL     C532947   4.974   1.188   1.200 -0.6943  0.2646  0.4337
   92MOL     C632948   5.062   1.215   1.078 -0.3634  0.7967  0.3987
   92MOL     C732949   4.987   1.297   0.972 -0.8889  0.1864 -0.7702
   92MOL     O832950   5.076   1.334   0.867 -0.0970  0.9212  0.1267
   92MOL     H932951   5.010   1.078   1.502  0.4500  1.6231 -0.7658
   92MOL    H1032952   4.856   1.102   1.408 -0.6946 -1.7476 -0.7503
   92MOL    H1132953   5.068   1.008   1.232 -0.0665  1.3992 -1.5902
   92MOL    H1232954   5.132   1.138   1.343 -0.2306  0.0582 -0.0564
   92MOL    H1332955   4.951   1.284   1.248 -1.5387  0.5902 -0.5990
   92MOL    H1432956   4.876   1.157   1.164 -0.5201  0.3235 -0.0947
   92MOL    H1532957   5.097   1.123   1.030 -1.1297 -0.9479  3.0505
   92MOL    H1632958   5.149   1.271   1.114  1.4994 -0.1768 -2.3803
   92MOL    H1732959   4.909   1.238   0.924  3.0082 -4.3516 -1.9496
   92MOL    H1832960   4.932   1.381   1.014 -0.8351 -0.2544  0.2032
   92MOL    H1932961   4.823   0.884   1.455  0.3524  0.7152  0.0325
   92MOL    C2032962   5.026   1.352   0.742 -0.5643 -0.0588 -0.4170
   92MOL    O2132963   4.912   1.353   0.704  0.6110 -0.5229 -0.1478
   92MOL    C2232964   5.136   1.387   0.648  0.1718  0.4393 -0.4688
   92MOL    C2332965   5.086   1.385   0.502 -0.1657  0.4816  0.0912
   92MOL    C2432966   5.200   1.395   0.394  0.2441 -0.3613  0.0193
   92MOL    C2532967   5.153   1.460   0.262  0.5214 -0.2071 -0.5872
   92MOL    C2632968   5.250   1.466   0.145  0.2069 -0.0740  0.1429
   92MOL    O2732969   5.183   1.475   0.021 -0.1620  0.7784 -0.1569
   92MOL    H2832970   5.218   1.315   0.659  0.2806  0.7300  0.7666
   92MOL    H2932971   5.152   1.490   0.678 -0.6202  0.6526 -0.7777
   92MOL    H3032972   5.003   1.449   0.471 -1.4979 -0.4469  1.6632
   92MOL    H3132973   5.044   1.286   0.482  0.8607  0.1126 -0.2338
   92MOL    H3232974   5.222   1.291   0.371  0.0575 -0.3363 -0.2710
   92MOL    H3332975   5.292   1.436   0.436 -0.7135  0.9674  0.8908
   92MOL    H3432976   5.123   1.564   0.278  1.2644  0.0469 -0.7843
   92MOL    H3532977   5.059   1.418   0.227  1.0553 -0.8278 -1.2907
   92MOL    H3632978   5.321   1.548   0.147  0.0553  0.0824 -1.1521
   92MOL    H3732979   5.312   1.376   0.148  0.2472 -0.0487  0.0476
   92MOL    C3832980   5.154   1.592   7.814 -0.2450 -0.0334 -0.2937
   92MOL    O3932981   5.198   1.701   0.009  0.4173  0.1458 -0.2780
   92MOL    C4032982   5.060   1.592   7.697 -0.3793 -0.7279  0.2576
   92MOL    C4132983   4.912   1.587   7.737  0.2201 -0.3247  0.5804
   92MOL    C4232984   4.872   1.701   7.823  0.1203 -0.0097  1.4625
   92MOL    C4332985   4.741   1.701   0.058  0.3514  0.3779 -0.0975
   92MOL    C4432986   4.754   1.650   0.203 -0.1344 -0.5144 -0.3125
   92MOL    O4532987   4.729   1.510   0.194 -0.0790 -0.3830 -0.1330
   92MOL    H4632988   5.072   1.503   7.636 -1.3305  0.1614 -1.2732
   92MOL    H4732989   5.082   1.678   7.634 -0.4879  0.1948  1.4597
   92MOL    H4832990   4.897   1.493   7.790  1.8763 -0.6221  0.5632
   92MOL    H4932991   4.857   1.588   7.643  1.8665 -0.6932 -0.4087
   92MOL    H5032992   4.877   1.798   7.774  2.6408 -2.2478 -3.0539
   92MOL    H5132993   4.950   1.723   0.053  0.3163 -0.5014  1.4067
   92MOL    H5232994   4.666   1.649   7.843 -0.7921  1.7548  0.1014
   92MOL    H5332995   4.703   1.801   0.082  0.8334  0.2478  1.2746
   92MOL    H5432996   4.854   1.663   0.245 -0.9044 -2.1858  2.1315
   92MOL    H5532997   4.678   1.697   0.265  0.7992 -0.6229  0.9354
   92MOL    C5632998   4.667   1.453   0.301 -0.6743  0.3206 -0.3070
   92MOL    O5732999   4.645   1.511   0.407  0.2610 -0.2152  0.6303
   92MOL    C5833000   4.651   1.300   0.282  0.0581 -0.2525  0.3755
   92MOL    C5933001   4.766   1.214   0.343 -0.2809  0.0923  0.4729
   92MOL    C6033002   4.746   1.065   0.349  0.7094 -0.1128 -0.1096
   92MOL    C6133003   4.876   0.990   0.392 -0.5704 -0.1821  0.0294
   92MOL    C6233004   4.843   0.843   0.405 -0.0601  0.3741 -0.5758
   92MOL    O6333005   4.871   0.796   0.281 -0.2679 -0.2211  0.4547
   92MOL    H6433006   4.651   1.289   0.173  0.8862  0.9250  0.2534
   92MOL    H6533007   4.552   1.269   0.315  0.1381  0.7036  1.5103
   92MOL    H6633008   4.786   1.261   0.440 -0.6781  1.8705 -0.2784
   92MOL    H6733009   4.852   1.241   0.282 -2.4976  2.3404 -1.7933
   92MOL    H6833010   4.727   1.034   0.246  0.3892  0.0757 -0.1108
   92MOL    H6933011   4.660   1.042   0.412 -0.1129  0.7031 -0.9089
   92MOL    H7033012   4.898   1.033   0.489  0.5718  0.7012 -0.6193
   92MOL    H7133013   4.966   1.007   0.333 -1.3369  0.0776 -1.0808
   92MOL    H7233014   4.909   0.806   0.484 -1.2772  0.8882  0.6943
   92MOL    H7333015   4.746   0.831   0.452  0.0257 -2.2329 -0.9781
   92MOL    C7433016   4.839   0.666   0.254  0.1241 -0.0599  0.4466
   92MOL    O7533017   4.748   0.599   0.306  0.1819  0.2782 -0.0998
   92MOL    C7633018   4.927   0.618   0.136  0.3732 -0.1300 -0.8119
   92MOL    C7733019   5.081   0.629   0.166  0.4410  0.0239  0.2062
   92MOL    C7833020   5.134   0.528   0.260  0.1084  0.3121  0.4273
   92MOL    C7933021   5.142   0.567   0.407  0.4314  0.7867 -0.0885
   92MOL    C8033022   5.203   0.464   0.504  0.3190  0.6541 -0.6829
   92MOL    O8133023   5.122   0.347   0.519  0.7568  0.4421  0.3391
   92MOL    H8233024   4.893   0.681   0.053  1.1925  0.0716 -0.9965
   92MOL    H8333025   4.912   0.511   0.119 -1.2968  0.0685 -0.6878
   92MOL    H8433026   5.123   0.727   0.188  1.5118 -0.4517  0.3010
   92MOL    H8533027   5.127   0.597   0.072 -0.0855 -2.0348  0.6127
   92MOL    H8633028   5.240   0.512   0.239 -0.3889 -2.1085 -0.3752
   92MOL    H8733029   5.091   0.430   0.240 -1.5726  0.6037  2.4097
   92MOL    H8833030   5.037   0.588   0.428  0.0688  1.4212 -2.3489
   92MOL    H8933031   5.193   0.663   0.416  0.3048  0.8072  0.3720
   92MOL    H9033032   5.307   0.439   0.486 -0.2803 -1.8429 -1.0007
   92MOL    H9133033   5.225   0.521   0.594  2.3981  0.3021 -0.9483
   92MOL    C9233034   5.128   0.242   0.448 -0.2805  0.3578 -0.1530
   92MOL    O9333035   5.213   0.224   0.362  0.1365 -0.0409 -0.1487
   92MOL    C9433036   5.025   0.132   0.485  0.4878 -0.2698 -0.0494
   92MOL    C9533037   5.002   0.111   0.637 -0.2642 -0.8138 -0.8007
   92MOL    C9633038   5.124   0.043   0.694 -0.5803  0.1666 -0.7662
   92MOL    C9733039   5.136   0.036   0.849  0.3607  0.2622  0.0749
   92MOL    C9833040   5.071   7.763   0.920  0.0512  0.8713  0.8207
   92MOL    O9933041   5.105   7.772   1.053 -0.1383  0.4708  0.0866
   92MOL   H10033042   5.059   0.039   0.439 -1.7384 -1.8423  1.4120
   92MOL   H10133043   4.930   0.145   0.433  0.1407 -1.6677  0.1968
   92MOL   H10233044   4.905   0.063   0.653 -1.0144  1.2639  1.1348
   92MOL   H10333045   4.983   0.209   0.680  1.5053 -1.2844  1.1124
   92MOL   H10433046   5.219   0.081   0.656 -0.8809  2.2503  0.5092
   92MOL   H10533047   5.122   7.782   0.666  1.8272  0.0473 -0.5728
   92MOL   H10633048   5.106   0.130   0.896 -0.6203  0.3319 -0.6584
   92MOL   H10733049   5.242   0.020   0.868  0.5919  1.0665 -0.5002
   92MOL   H10833050   4.965   7.755   0.897  0.4582  1.9874 -1.7340
   92MOL   H10933051   5.109   7.671   0.876 -1.1109  1.4896 -1.5870
   92MOL   C11033052   5.041   7.710   1.149  0.2561 -0.5238  0.4386
   92MOL   O11133053   4.933   7.656   1.141  0.7247  0.1230 -0.1632
   92MOL   C11233054   5.122   7.711   1.282 -0.2646  0.3541 -0.1220
   92MOL   C11333055   5.207   7.578   1.285 -0.7088 -0.5247  1.1102
   92MOL   C11433056   5.282   7.572   1.426  0.1692 -0.1447 -0.0812
   92MOL   C11533057   5.392   7.463   1.440 -0.1925  0.3350 -0.3602
   92MOL   C11633058   5.459   7.461   1.581  0.1683 -0.1202  0.1987
   92MOL   O11733059   5.379   7.391   1.675  0.4265 -0.8787 -0.0731
   92MOL   H11833060   5.051   7.735   1.362 -1.6955  0.1794 -1.3053
   92MOL   H11933061   5.185   7.799   1.270  2.2650 -1.3392  0.2913
   92MOL   H12033062   5.276   7.582   1.202 -1.6341 -0.1269  0.3454
   92MOL   H12133063   5.152   7.484   1.277 -0.9421 -0.2118 -1.3226
   92MOL   H12233064   5.210   7.565   1.508 -0.9710  0.7700 -0.9809
   92MOL   H12333065   5.319   7.674   1.438 -2.4636  0.9457 -0.7793
   92MOL   H12433066   5.468   7.493   1.368 -0.8316  1.7062 -0.4806
   92MOL   H12533067   5.360   7.367   1.399  2.7805 -1.4590  1.3282
   92MOL   H12633068   5.557   7.414   1.578 -0.6452 -2.0353  1.8255
   92MOL   H12733069   5.492   7.558   1.618 -2.2850  0.7655  0.1843
   92MOL   C12833070   5.408   7.264   1.715 -0.2407  0.0980 -0.4459
   92MOL   O12933071   5.506   7.202   1.677 -0.6120 -0.1700  0.6549
   92MOL   C13033072   5.309   7.197   1.807  0.4914 -0.6706  0.2356
   92MOL   C13133073   5.224   7.102   1.737  0.2908  0.7366  0.0496
   92MOL   C13233074   5.090   7.069   1.807  0.2021 -0.6357 -0.7341
   92MOL   C13333075   5.004   6.975   1.730  0.2776  0.4759  0.3391
   92MOL   C13433076   4.872   6.920   1.798 -0.3797  0.7853 -0.3473
   92MOL   O13533077   4.790   7.027   1.841  0.3845  0.0931 -0.5208
   92MOL   H13633078   5.244   7.268   1.858 -0.3004 -0.0502 -1.6029
   92MOL   H13733079   5.355   7.145   1.891  0.5226 -0.6153  0.2531
   92MOL   H13833080   5.287   7.014   1.733 -1.3549 -0.3997 -1.5859
   92MOL   H13933081   5.218   7.134   1.633  2.7816  0.4141 -0.2233
   92MOL   H14033082   5.035   7.161   1.827  0.9077 -0.5109  0.6448
   92MOL   H14133083   5.120   7.032   1.905  0.6097  2.0185  0.1668
   92MOL   H14233084   5.058   6.883   1.707 -0.5217  0.2032 -0.5081
   92MOL   H14333085   4.993   7.015   1.629  3.2890 -0.9019 -0.5876
   92MOL   H14433086   4.812   6.850   1.741 -3.0061  1.0885  1.9504
   92MOL   H14533087   4.901   6.860   1.884 -0.1992  1.4638  0.0763
   92MOL   C14633088   4.707   6.999   1.946  0.2612 -0.2745  0.0750
   92MOL   O14733089   4.701   6.891   2.006 -1.0611  0.2520  0.8494
   92MOL   C14833090   4.602   7.107   1.984  0.0932  0.7446 -0.4864
   92MOL   C14933091   4.638   7.181   2.113  0.2934  1.0387 -0.4538
   92MOL   C15033092   4.571   7.119   2.248 -0.8738 -0.3386 -0.2778
   92MOL   C15133093   4.606   7.195   2.378 -0.3997  0.4438  0.2347
   92MOL   C15233094   4.743   7.148   2.422 -0.4529 -0.6175 -0.4712
   92MOL   O15333095   4.781   7.203   2.543  0.9742  0.2776  0.1600
   92MOL   H15433096   4.507   7.059   2.012  0.9841 -1.1290 -0.5643
   92MOL   H15533097   4.606   7.169   1.895 -0.9784 -0.6960 -1.5764
   92MOL   H15633098   4.624   7.288   2.097 -0.1342  0.7845 -1.8728
   92MOL   H15733099   4.745   7.162   2.119 -0.5236 -3.8642  1.2096
   92MOL   H15833100   4.595   7.013   2.259  0.7777  0.3914  4.1946
   92MOL   H15933101   4.464   7.112   2.233 -1.3152  1.9313  1.5882
   92MOL   H16033102   4.538   7.168   2.459 -1.8749 -1.4137 -1.5656
   92MOL   H16133103   4.605   7.304   2.371  1.3677  0.4649  0.0454
   92MOL   H16233104   4.740   7.042   2.448 -1.0298 -0.6229 -0.5596
   92MOL   H16333105   4.834   7.160   2.363  1.0222  2.0266  2.1872
   92MOL   C16433106   4.828   7.325   2.558 -0.4199 -0.4975  0.2949
   92MOL   O16533107   4.843   7.401   2.464 -0.1045 -0.3412  0.3417
   92MOL   C16633108   4.878   7.367   2.695  0.3106  0.7188  0.0642
   92MOL   C16733109   5.020   7.319   2.726  0.4957 -0.1842 -0.2648
   92MOL   C16833110   5.116   7.397   2.644 -0.3108 -0.6188 -0.5142
   92MOL   C16933111   5.255   7.333   2.640  0.0677 -0.1976  0.2384
   92MOL   C17033112   5.361   7.411   2.558  0.4029  0.2745 -0.0283
   92MOL   O17133113   5.402   7.523   2.633 -0.5644  0.4644 -0.6798
   92MOL   H17233114   4.810   7.321   2.767 -0.1440  2.6048  0.8636
   92MOL   H17333115   4.867   7.472   2.722 -2.7394 -0.4463  3.8620
   92MOL   H17433116   5.038   7.213   2.708  0.2266 -0.2743 -0.0274
   92MOL   H17533117   5.041   7.342   2.830  1.9044  0.5901 -0.7144
   92MOL   H17633118   5.121   7.494   2.693 -1.0014 -1.5743  1.4945
   92MOL   H17733119   5.071   7.407   2.545  0.1427  1.6845 -0.5314
   92MOL   H17833120   5.254   7.235   2.592 -1.1714  0.6314 -1.4671
   92MOL   H17933121   5.311   7.318   2.733 -0.1865 -0.6266  0.3206
   92MOL   H18033122   5.440   7.339   2.540 -1.5181 -2.1976  1.0439
   92MOL   H18133123   5.318   7.451   2.466  1.4623  0.0364 -0.6307
   92MOL   C18233124   5.501   7.601   2.590 -0.9162 -0.3662 -0.2337
   92MOL   O18333125   5.558   7.584   2.481 -0.1710 -0.2060  0.6830
   92MOL   C18433126   5.544   7.710   2.682 -0.3151 -0.5334 -0.2450
   92MOL   C18533127   5.660   7.800   2.627  0.3306 -0.4386  0.2189
   92MOL   C18633128   5.627   0.047   2.511  0.3712 -0.3495  0.2779
   92MOL   C18733129   5.741   0.132   2.459  0.7576 -0.3172 -0.1124
   92MOL   C18833130   5.703   0.219   2.334 -0.2680  0.6431  0.1032
   92MOL   O18933131   5.691   0.140   2.224 -0.5704 -0.1963 -0.2938
   92MOL   H19033132   5.587   7.667   2.773  0.1093 -0.1982 -0.2831
   92MOL   H19133133   5.458   7.774   2.697  1.4370  2.3270 -1.9248
   92MOL   H19233134   5.750   7.755   2.585 -0.1453 -0.1300 -1.1540
   92MOL   H19333135   5.697   0.021   2.706  2.4020 -1.8100  0.4329
   92MOL   H19433136   5.544   0.112   2.538  2.1803  2.5262 -0.8273
   92MOL   H19533137   5.590   7.841   2.421 -2.5531  0.2774  1.0823
   92MOL   H19633138   5.824   0.065   2.434  0.5704 -1.4245  2.1407
   92MOL   H19733139   5.774   0.190   2.545  0.6325  1.4139 -1.1970
   92MOL   H19833140   5.610   0.273   2.351 -0.2222  0.2911  1.5383
   92MOL   H19933141   5.779   0.296   2.322  1.3924 -0.8058  1.0668
   92MOL   C20033142   5.798   0.104   2.149 -0.7996 -0.5498 -0.7225
   92MOL   O20133143   5.917   0.124   2.168  0.1300  0.1786 -0.1866
   92MOL   C20233144   5.742   0.025   2.035  0.3675  0.3473 -0.9037
   92MOL   C20333145   5.850   7.809   1.933 -0.4486  0.3766  0.1086
   92MOL   C20433146   5.798   7.820   1.783  0.3344 -0.1245  0.2664
   92MOL   C20533147   5.917   7.783   1.683 -0.3272 -0.5227 -0.0149
   92MOL   C20633148   5.869   7.756   1.543  0.0451  0.0537  0.7789
   92MOL   O20733149   5.786   0.014   1.490  0.1884 -0.0290  0.5008
   92MOL   H20833150   5.677   0.089   1.976  1.1918  0.9466 -1.1683
   92MOL   H20933151   5.672   7.798   2.079 -0.3220  0.2590 -2.1112
   92MOL   H21033152   5.888   7.710   1.959  0.7914 -0.0486 -3.0491
   92MOL   H21133153   5.936   0.031   1.931 -0.9080  0.9827  0.1003
   92MOL   H21233154   5.763   0.077   1.766 -1.0235 -0.4823  0.8925
   92MOL   H21333155   5.718   7.747   1.766 -0.0045  0.5767 -1.1526
   92MOL   H21433156   5.973   7.694   1.710  1.5331  0.1503 -1.5417
   92MOL   H21533157   5.996   0.013   1.674 -0.7216  0.0724  1.3699
   92MOL   H21633158   5.958   7.737   1.483 -0.1919 -1.8176  0.9974
   92MOL   H21733159   5.822   7.658   1.546  2.0318 -0.8581  4.0848
   92MOL   C21833160   5.673   7.827   1.428 -0.1599 -0.2997 -0.0508
   92MOL   O21933161   5.621   7.714   1.405  0.7166 -0.0047 -0.2115
   92MOL   C22033162   5.596   0.113   1.394 -0.0760  0.2942 -0.0114
   92MOL   C22133163   5.480   0.093   1.293 -0.0744  0.7571 -0.4493
   92MOL   C22233164   5.427   0.231   1.245 -0.3296 -0.7826  0.1156
   92MOL   C22333165   5.314   0.230   1.139 -0.0900  0.2844  0.2773
   92MOL   C22433166   5.251   0.369   1.103  0.1435 -0.0955  0.7103
   92MOL   O22533167   5.339   0.441   1.014  0.0766  0.1880 -0.2228
   92MOL   H22633168   5.665   0.187   1.354 -1.8241  2.1834  0.3833
   92MOL   H22733169   5.555   0.144   1.490 -0.3839 -0.1110 -0.0084
   92MOL   H22833170   5.396   0.035   1.332 -1.5392  2.5233 -0.8997
   92MOL   H22933171   5.512   0.036   1.205  3.0354 -0.3412  1.3383
   92MOL   H23033172   5.510   0.279   1.192 -0.9992  0.6567  0.3506
   92MOL   H23133173   5.399   0.295   1.329  0.2174  2.2257 -1.9059
   92MOL   H23233174   5.234   0.169   1.182  0.3584  0.9649  2.0844
   92MOL   H23333175   5.359   0.183   1.051  1.1555  0.9836  0.5293
   92MOL   H23433176   5.161   0.353   1.045  1.5074 -1.6777 -1.0619
   92MOL   H23533177   5.223   0.431   1.188  0.9505  1.1843  0.0581
   92MOL   C23633178   5.324   0.447   0.874  0.0005 -0.1205 -0.9903
   92MOL   O23733179   5.248   0.377   0.805  0.1888  0.4056 -0.8450
   92MOL   C23833180   5.411   0.561   0.815 -0.6173 -0.2851 -0.3723
   92MOL   C23933181   5.564   0.567   0.849 -0.0245  0.4956  0.3480
   92MOL   C24033182   5.639   0.458   0.756 -0.7850 -0.1232 -0.3241
   92MOL   C24133183   5.780   0.506   0.717 -0.1471 -0.5141 -0.4511
   92MOL   C24233184   5.783   0.619   0.616  0.7662  1.1113  0.1349
   92MOL   O24333185   5.726   0.562   0.498 -0.5406  0.4696 -0.4071
   92MOL   H24433186   5.362   0.657   0.828 -2.2398 -1.1256 -0.1902
   92MOL   H24533187   5.398   0.556   0.707 -1.0958  2.3163 -0.4793
   92MOL   H24633188   5.572   0.539   0.954 -1.3142 -2.2530 -0.2531
   92MOL   H24733189   5.588   0.672   0.835  0.6758  0.4857  1.3821
   92MOL   H24833190   5.575   0.439   0.670 -0.3190  0.2711 -0.7582
   92MOL   H24933191   5.645   0.366   0.815  0.5423  0.8765  1.1550
   92MOL   H25033192   5.833   0.423   0.671  0.2201 -0.6763  0.2535
   92MOL   H25133193   5.831   0.536   0.809 -0.7348  1.1830 -0.6598
   92MOL   H25233194   5.727   0.708   0.648 -3.1888 -2.1980  2.9891
   92MOL   H25333195   5.886   0.652   0.601  0.5843  1.3754 -0.5385
   92MOL   C25433196   5.604   0.597   0.466  0.5085  0.2813  0.5741
   92MOL   O25533197   5.533   0.680   0.521  0.3065  0.1319 -0.7172
   92MOL   C25633198   5.550   0.508   0.353  0.1952  0.5006  0.6636
   92MOL   C25733199   5.626   0.538   0.215  0.3529 -0.6060  0.0221
   92MOL   C25833200   5.606   0.436   0.102  0.3114  0.0688  0.5789
   92MOL   C25933201   5.651   0.289   0.133  0.4725 -0.3241 -0.6865
   92MOL   C26033202   5.676   0.200   0.009  0.3096  0.6202 -0.6518
   92MOL   O26133203   5.717   0.067   0.049  0.1612 -0.1414 -0.0282
   92MOL   H26233204   5.444   0.521   0.330  0.1572 -1.1554 -0.1911
   92MOL   H26333205   5.569   0.410   0.396 -0.3468  0.7350  1.4486
   92MOL   H26433206   5.734   0.539   0.230  0.2548 -0.2474  0.7250
   92MOL   H26533207   5.604   0.636   0.172  3.1818 -0.6211 -1.5777
   92MOL   H26633208   5.661   0.461   0.012  0.5152 -2.1048  0.0571
   92MOL   H26733209   5.500   0.440   0.077  0.5635  2.7489 -0.1813
   92MOL   H26833210   5.575   0.248   0.198  0.9128  1.5047  1.0350
   92MOL   H26933211   5.732   0.281   0.206 -0.5601  0.2783  0.5334
   92MOL   H27033212   5.582   0.194   7.798  0.6199 -1.4209 -1.0009
   92MOL   H27133213   5.748   0.248   7.788  1.0063 -1.0848 -1.1686
   92MOL   C27233214   5.816   0.010   7.820  0.0742  0.5682  0.6128
   92MOL   O27333215   5.884   0.062   7.735  0.3383 -0.2301 -0.6639
   92MOL   C27433216   5.827   7.704   0.004  0.4014 -0.1910  0.0756
   92MOL   C27533217   5.973   7.649   0.024  0.4119 -0.1078 -0.6165
   92MOL   C27633218   6.024   7.676   0.167  0.7458  0.3975 -0.6804
   92MOL   C27733219   6.166   7.622   0.191  0.3120 -0.0808 -0.1287
   92MOL   C27833220   6.167   7.492   0.265 -0.1327 -0.2221  0.4778
   92MOL   O27933221   6.306   7.453   0.277  0.4041 -0.0383 -0.2383
   92MOL   H28033222   5.783   7.661   7.758 -1.7913 -1.6038  1.7720
   92MOL   H28133223   5.763   7.675   0.087 -1.1566 -1.1815 -1.4554
   92MOL   H28233224   6.032   7.698   7.792 -0.5306  0.6287 -0.8935
   92MOL   H28333225   5.976   7.543   0.001  2.0415 -0.0243 -0.7964
   92MOL   H28433226   5.957   7.651   0.249 -1.0282 -1.4588 -2.6397
   92MOL   H28533227   6.032   7.784   0.169  2.5153  0.2700  0.7880
   92MOL   H28633228   6.230   7.692   0.244  2.0581 -1.0288 -0.9420
   92MOL   H28733229   6.226   7.612   0.101 -1.4034  3.2615 -1.7082
   92MOL   H28833230   6.118   7.504   0.362 -1.7635  0.3004 -0.4007
   92MOL   H28933231   6.125   7.410   0.207 -0.2110 -1.5152  2.3121
   92MOL   C29033232   6.373   7.464   0.397 -0.4283 -0.3892 -0.7617
   92MOL   O29133233   6.330   7.509   0.504  0.7489  0.2076  0.4444
   92MOL   C29233234   6.523   7.433   0.391 -0.6177 -0.2368 -0.3930
   92MOL   C29333235   6.562   7.297   0.322 -0.5459 -0.4577  0.2737
   92MOL   C29433236   6.707   7.251   0.343  0.3860 -0.4888 -0.0199
   92MOL   C29533237   6.726   7.146   0.457  0.2925  0.0659  0.9244
   92MOL   C29633238   6.854   7.075   0.456 -0.2036  0.1845  0.5017
   92MOL   O29733239   6.964   7.163   0.460 -0.3034 -0.5015 -0.0532
   92MOL   H29833240   6.570   7.431   0.489  3.3634 -0.9166 -2.2090
   92MOL   H29933241   6.571   7.513   0.334 -0.5930  1.0406  1.3693
   92MOL   H30033242   6.543   7.298   0.214  0.6528  0.8460  0.0592
   92MOL   H30133243   6.488   7.226   0.359 -3.3545  2.4369  0.3237
   92MOL   H30233244   6.774   7.336   0.352 -0.4753  0.2625 -0.6449
   92MOL   H30333245   6.740   7.192   0.258  0.7370 -0.9891  0.4565
   92MOL   H30433246   6.639   7.080   0.455 -0.0565  0.5475 -0.2030
   92MOL   H30533247   6.705   7.203   0.548 -4.4466  1.1455 -0.6784
   92MOL   H30633248   6.853   7.014   0.546 -0.1874 -1.1193 -0.3691
   92MOL   H30733249   6.872   7.007   0.373 -0.1541  1.6552 -0.7207
   92MOL   C30833250   7.081   7.134   0.403 -0.1428  0.5699  0.3701
   92MOL   O30933251   7.108   7.030   0.339  0.9706 -0.1701  0.2588
   92MOL   C31033252   7.188   7.242   0.419  0.6320 -0.8673 -0.0462
   92MOL   C31133253   7.227   7.266   0.564 -0.4176  0.2052 -0.1122
   92MOL   C31233254   7.328   7.381   0.562  0.0614  0.3426 -0.3559
   92MOL   C31333255   7.394   7.410   0.698  0.1309  0.5881 -0.4384
   92MOL   C31433256   7.521   7.485   0.674  0.1227  0.3231  0.1536
   92MOL   O31533257   7.581   7.513   0.795  0.0728  0.7529 -0.3154
   92MOL   H31633258   7.140   7.333   0.382  1.0894 -0.7608 -0.3934
   92MOL   H31733259   7.281   7.226   0.364  0.2801 -1.1841 -0.5550
   92MOL   H31833260   7.278   7.183   0.612 -1.9683 -0.9495 -0.4307
   92MOL   H31933261   7.139   7.294   0.622  0.0230  1.0418  0.1612
   92MOL   H32033262   7.279   7.475   0.536 -0.9745  0.0006  0.3146
   92MOL   H32133263   7.413   7.368   0.496  0.1180  0.5731 -0.3280
   92MOL   H32233264   7.420   7.318   0.751  0.7833  1.5517  0.9485
   92MOL   H32333265   7.317   7.461   0.757 -0.9414  0.8698 -2.0674
   92MOL   H32433266   7.601   7.434   0.621 -1.1045 -1.4061 -0.0863
   92MOL   H32533267   7.494   7.576   0.619  0.1088  1.5983  2.2106
   92MOL   C32633268   7.673   7.425   0.858  0.5119  0.3730  0.0363
   92MOL   O32733269   7.726   7.320   0.809  0.6054  0.3838  0.4498
   92MOL   C32833270   7.690   7.469   1.002  0.0087  0.1838 -0.5232
   92MOL   C32933271   7.727   7.345   1.083 -0.0045 -0.3552 -0.2504
   92MOL   C33033272   0.031   7.309   1.087  0.5073  0.2711  0.2405
   92MOL   C33133273   0.061   7.186   1.159 -0.3531 -0.3068  0.9441
   92MOL   C33233274   0.209   7.147   1.160  0.1899 -0.0986 -0.3250
   92MOL   O33333275   0.259   7.127   1.028  0.2658 -0.3609 -1.0011
   92MOL   H33433276   7.601   7.509   1.050  0.4085  1.6262 -0.9520
   92MOL   H33533277   7.760   7.552   1.013 -0.7260  0.7354  0.0284
   92MOL   H33633278   7.674   7.252   1.062  0.8316 -1.4815  2.4174
   92MOL   H33733279   7.697   7.378   1.182 -0.0237 -0.3065 -0.2719
   92MOL   H33833280   0.092   7.390   1.125  2.4961  0.4822 -3.2049
   92MOL   H33933281   0.068   7.305   0.985  2.8494  0.8999  1.0484
   92MOL   H34033282   0.012   7.098   1.117 -1.5674  0.5135  0.6195
   92MOL   H34133283   0.030   7.179   1.263  3.1478  0.5961  2.1299
   92MOL   H34233284   0.274   7.221   1.207  0.0882 -0.7438  0.8511
   92MOL   H34333285   0.229   7.055   1.215 -0.3245 -0.2388 -0.3723
   92MOL   C34433286   0.396   7.117   1.017  0.3111  0.3513  0.1139
   92MOL   O34533287   0.472   7.112   1.111 -0.7829 -0.1821 -0.1967
   92MOL   C34633288   0.456   7.090   0.879  0.0652 -0.5130  0.3307
   92MOL   C34733289   0.386   6.975   0.811  0.6732  0.7957  1.1914
   92MOL   C34833290   0.421   6.965   0.665  0.4596 -0.4696 -0.0668
   92MOL   C34933291   0.369   6.854   0.586  0.4006 -0.6055 -0.5497
   92MOL   C35033292   0.430   6.839   0.441  0.2540  0.4040 -0.8217
   92MOL   O35133293   0.360   6.733   0.380  0.2527 -0.0321 -0.3391
   92MOL   H35233294   0.564   7.076   0.892 -0.2995 -1.2732  2.9022
   92MOL   H35333295   0.437   7.184   0.827  1.6564 -0.2778  0.1352
   92MOL   H35433296   0.277   6.980   0.817  0.5405  1.9755 -1.4413
   92MOL   H35533297   0.427   6.886   0.858 -1.2202 -2.1542 -2.5285
   92MOL   H35633298   0.528   6.979   0.648  0.6305  1.5748  2.3082
   92MOL   H35733299   0.392   7.049   0.602 -1.4172 -0.0391  1.3125
   92MOL   H35833300   0.261   6.859   0.577  0.5229 -0.7046 -2.1865
   92MOL   H35933301   0.389   6.757   0.634 -3.2444 -0.6425  1.0394
   92MOL   H36033302   0.404   6.925   0.380 -2.8812 -2.0456 -3.1442
   92MOL   H36133303   0.538   6.828   0.439  0.1191 -0.9885 -1.1891
   92MOL   H36233304   0.396   6.746   0.294 -1.6895  1.4566 -0.9695
   93MOL     C133305   7.271   2.633   0.720  0.3657  0.3725  0.0109
   93MOL     O233306   7.305   2.730   0.661 -0.4194  0.6149  0.3701
   93MOL     C333307   7.185   2.644   0.845  0.3458  0.1848  0.3819
   93MOL     C433308   7.211   2.772   0.924 -0.1349  0.4041  0.2429
   93MOL     C533309   7.152   2.901   0.862 -0.3005  0.0022  0.0554
   93MOL     C633310   7.153   3.025   0.949 -0.1958 -0.4648 -0.0527
   93MOL     C733311   7.088   3.141   0.870  0.2881 -0.6741 -0.1775
   93MOL     O833312   7.186   3.200   0.786  0.0841  0.1892  0.3660
   93MOL     H933313   7.202   2.563   0.916  0.6295 -1.2458 -1.2787
   93MOL    H1033314   7.083   2.633   0.806  0.5493  1.5617 -0.5806
   93MOL    H1133315   7.317   2.777   0.950 -0.4064 -2.1233  2.1083
   93MOL    H1233316   7.162   2.764   1.022 -2.6447  1.9698 -0.8443
   93MOL    H1333317   7.045   2.881   0.857  0.3730 -3.6237 -1.8046
   93MOL    H1433318   7.190   2.924   0.762  0.4889  1.2813  0.6398
   93MOL    H1533319   7.248   3.051   0.996 -0.6792 -0.2713  0.8353
   93MOL    H1633320   7.103   2.997   1.042  1.8025 -1.6025  0.7256
   93MOL    H1733321   7.013   3.094   0.806  0.8082 -1.8045  0.0519
   93MOL    H1833322   7.045   3.226   0.924  1.3301  0.4372 -1.0497
   93MOL    H1933323   7.283   2.527   0.697 -0.0551  0.1159  0.9470
   93MOL    C2033324   7.270   3.302   0.835 -0.8943  0.3522 -0.4577
   93MOL    O2133325   7.253   3.362   0.945 -0.3831 -0.2174 -0.9694
   93MOL    C2233326   7.382   3.330   0.745  0.2524  0.0589 -0.0201
   93MOL    C2333327   7.505   3.241   0.763 -0.4297  0.7948  0.6744
   93MOL    C2433328   7.491   3.100   0.697 -0.1075  0.1111  0.5318
   93MOL    C2533329   7.533   3.103   0.549  0.2337  0.2698  0.7778
   93MOL    C2633330   7.533   2.963   0.482 -0.9032 -0.0018  0.6124
   93MOL    O2733331   7.582   2.980   0.352 -0.3495  0.2923 -0.3565
   93MOL    H2833332   7.410   3.436   0.753  2.7473 -0.6421  1.1518
   93MOL    H2933333   7.344   3.320   0.643 -0.4180  1.9079  0.0187
   93MOL    H3033334   7.527   3.234   0.870  3.7908  1.8016 -0.0574
   93MOL    H3133335   7.595   3.292   0.730 -0.3365 -0.3704 -0.9227
   93MOL    H3233336   7.392   3.054   0.704 -0.3636  0.5270 -0.4464
   93MOL    H3333337   7.561   3.034   0.749  2.7600  2.2271 -0.5444
   93MOL    H3433338   7.631   3.150   0.544  0.0313  0.8214  2.0413
   93MOL    H3533339   7.471   3.172   0.492  0.4794  0.2363  0.4650
   93MOL    H3633340   7.584   2.893   0.548 -0.7827 -2.2520 -1.7696
   93MOL    H3733341   7.431   2.923   0.478 -0.5507 -0.8502 -0.1875
   93MOL    C3833342   7.701   2.925   0.315  0.3085 -0.3545 -0.4977
   93MOL    O3933343   7.786   2.891   0.397  0.3274  0.3842 -1.1309
   93MOL    C4033344   7.724   2.932   0.164 -0.8424  0.1668 -0.3550
   93MOL    C4133345   7.818   2.828   0.120  0.0585 -0.3201  0.4407
   93MOL    C4233346   7.774   2.679   0.133 -0.3167 -0.0972  0.2981
   93MOL    C4333347   0.013   2.575   0.071  0.1646 -0.3306  0.1631
   93MOL    C4433348   7.797   2.431   0.061  0.6628 -0.0009 -0.3098
   93MOL    O4533349   7.768   2.377   0.193 -0.1714  0.6639 -0.1550
   93MOL    H4633350   7.760   3.030   0.131  1.9398 -0.2140  1.4162
   93MOL    H4733351   7.626   2.924   0.118 -0.9855  0.1526 -0.0477
   93MOL    H4833352   0.064   2.851   0.177 -1.5561 -0.2985  3.0689
   93MOL    H4933353   7.827   2.852   0.014 -0.1057 -3.4306 -0.3203
   93MOL    H5033354   7.672   2.683   0.094 -0.7132 -1.4303  1.1645
   93MOL    H5133355   7.754   2.656   0.237  1.3973  0.6775  0.7977
   93MOL    H5233356   0.101   2.555   0.132  1.7885 -0.3598 -2.1219
   93MOL    H5333357   0.053   2.602   7.818 -1.1166  0.6651 -0.1067
   93MOL    H5433358   7.699   2.440   0.014  0.3435  2.4537  0.7009
   93MOL    H5533359   0.019   2.376   7.839  2.6027 -1.0039  2.3541
   93MOL    C5633360   7.832   2.266   0.235 -0.9152  0.2573  0.0804
   93MOL    O5733361   0.080   2.209   0.178  0.1324 -0.0068 -0.2547
   93MOL    C5833362   7.766   2.216   0.370  0.0544  1.0533 -0.2303
   93MOL    C5933363   7.789   2.064   0.399 -0.3120  0.0126 -0.0995
   93MOL    C6033364   7.694   2.005   0.503  0.0407  0.2283 -0.4726
   93MOL    C6133365   7.713   2.060   0.645  0.2273  0.1481 -0.1892
   93MOL    C6233366   7.605   2.014   0.739 -0.3267  0.1917 -0.0659
   93MOL    O6333367   7.470   2.041   0.701  0.5314  0.3912 -0.0487
   93MOL    H6433368   7.660   2.222   0.347  0.0916 -0.6170 -0.8861
   93MOL    H6533369   7.793   2.279   0.455 -0.7439  0.9964  0.0679
   93MOL    H6633370   0.048   2.051   0.430 -0.8472 -3.9959  0.1884
   93MOL    H6733371   7.767   2.012   0.306  1.6121  0.9563 -1.1022
   93MOL    H6833372   7.721   1.900   0.497 -0.7528  0.0149 -0.3626
   93MOL    H6933373   7.595   2.023   0.462  0.9207  2.5151 -1.6904
   93MOL    H7033374   7.722   2.169   0.654  0.2619  0.1706 -0.4758
   93MOL    H7133375   7.806   2.022   0.687 -0.7189 -1.1958  0.7281
   93MOL    H7233376   7.626   1.907   0.748  2.3343  0.4002 -2.7165
   93MOL    H7333377   7.619   2.038   0.844 -3.0186 -4.1465  1.4497
   93MOL    C7433378   7.427   2.166   0.710 -0.3581 -1.2075 -0.5024
   93MOL    O7533379   7.485   2.267   0.749  0.9067 -0.0117 -0.3264
   93MOL    C7633380   7.289   2.184   0.647  0.6932  0.0930  0.0069
   93MOL    C7733381   7.176   2.092   0.703 -0.0078 -0.5052 -0.3624
   93MOL    C7833382   7.142   2.096   0.858 -0.7306  0.4569 -0.2937
   93MOL    C7933383   7.148   2.239   0.909  0.5643 -0.1782 -0.2030
   93MOL    C8033384   7.062   2.253   1.028  0.1428 -0.3863  0.6312
   93MOL    O8133385   7.087   2.374   1.106  0.2988 -0.0574 -0.2711
   93MOL    H8233386   7.301   2.195   0.540  1.1680  3.1888  0.3166
   93MOL    H8333387   7.270   2.282   0.691  0.3580 -0.9411  2.2411
   93MOL    H8433388   7.198   1.987   0.683  4.1502  0.3313 -0.5817
   93MOL    H8533389   7.084   2.116   0.650 -1.0919 -1.3156  1.1185
   93MOL    H8633390   7.208   2.039   0.923 -1.8456 -1.0907 -0.4915
   93MOL    H8733391   7.044   2.055   0.880 -0.6847 -0.0517 -1.0341
   93MOL    H8833392   7.101   2.298   0.831 -1.1864  0.1810  1.0952
   93MOL    H8933393   7.252   2.265   0.928  0.6922 -2.9506  3.7981
   93MOL    H9033394   6.958   2.247   0.996 -0.3364 -1.4622  2.3260
   93MOL    H9133395   7.085   2.167   1.091  1.3631 -1.5685 -1.3661
   93MOL    C9233396   7.021   2.382   1.220  0.2518  0.4884 -0.5647
   93MOL    O9333397   6.957   2.290   1.278  0.2741  0.9059 -0.6057
   93MOL    C9433398   7.035   2.521   1.276 -0.0837  0.0565 -0.4874
   93MOL    C9533399   7.177   2.538   1.335  0.2247 -0.5525 -0.5122
   93MOL    C9633400   7.277   2.601   1.238  0.1574  0.3194 -0.2345
   93MOL    C9733401   7.421   2.591   1.288 -0.4097  0.8276 -0.0707
   93MOL    C9833402   7.526   2.661   1.199  0.0039 -0.2668 -0.4359
   93MOL    O9933403   7.553   2.592   1.079  0.1025  0.6654 -0.3412
   93MOL   H10033404   6.964   2.528   1.359  1.2445 -0.2301  0.6982
   93MOL   H10133405   7.027   2.592   1.195  2.7805 -0.8724 -1.6464
   93MOL   H10233406   7.210   2.438   1.361  3.2724  0.9723  1.8420
   93MOL   H10333407   7.165   2.593   1.429  0.5079 -2.0015  0.3889
   93MOL   H10433408   7.247   2.705   1.230  1.3271  0.7798  1.2343
   93MOL   H10533409   7.280   2.559   1.137  1.7655 -0.5179  0.1542
   93MOL   H10633410   7.452   2.487   1.301  0.3723  1.2263  1.3158
   93MOL   H10733411   7.414   2.620   1.393  0.0446 -1.3167  0.5693
   93MOL   H10833412   7.492   2.764   1.190 -0.4027 -0.2461  1.1213
   93MOL   H10933413   7.622   2.671   1.249  0.3230  0.1092 -1.1083
   93MOL   C11033414   7.635   2.642   0.989 -0.5584 -0.0257  0.3093
   93MOL   O11133415   7.693   2.751   0.997 -0.2177 -0.1430 -0.4074
   93MOL   C11233416   7.660   2.545   0.875  0.3140  0.5779 -0.3090
   93MOL   C11333417   7.765   2.599   0.786 -0.6283 -0.1457  0.3349
   93MOL   C11433418   7.794   2.513   0.659 -0.4411  0.2455 -0.2118
   93MOL   C11533419   7.713   2.547   0.531 -0.5164 -0.0525  0.1093
   93MOL   C11633420   7.568   2.508   0.531  0.4524 -0.6734 -0.9808
   93MOL   O11733421   7.509   2.543   0.407 -0.0281 -0.4253  0.2358
   93MOL   H11833422   7.563   2.526   0.829  0.2490 -0.4486  0.2382
   93MOL   H11933423   7.690   2.452   0.924  1.3884  1.1496  0.1426
   93MOL   H12033424   0.016   2.602   0.839 -0.1448 -1.0323 -0.4538
   93MOL   H12133425   7.742   2.697   0.744 -0.6411 -0.5937 -0.7309
   93MOL   H12233426   7.776   2.410   0.687 -2.6182  0.5601 -0.3707
   93MOL   H12333427   0.055   2.503   0.634  0.0437  0.9492  1.4902
   93MOL   H12433428   7.775   2.499   0.455  0.0213  0.0016  0.5128
   93MOL   H12533429   7.720   2.644   0.482 -1.4985 -0.6086 -1.1645
   93MOL   H12633430   7.568   2.399   0.540  0.9325 -0.5569  0.6517
   93MOL   H12733431   7.522   2.558   0.616 -1.6203 -1.3377 -1.6913
   93MOL   C12833432   7.385   2.514   0.382 -0.4944 -0.1381  0.1670
   93MOL   O12933433   7.303   2.475   0.461 -0.0516  0.3687 -0.2357
   93MOL   C13033434   7.337   2.553   0.236  0.0007 -0.2714 -0.1135
   93MOL   C13133435   7.301   2.696   0.214 -0.0331 -0.1329  0.5948
   93MOL   C13233436   7.224   2.763   0.328  0.5470 -0.5525 -0.5337
   93MOL   C13333437   7.195   2.917   0.308  0.1711  0.3957 -0.1310
   93MOL   C13433438   7.132   2.986   0.432  0.4359 -0.4864  0.5078
   93MOL   O13533439   6.991   2.974   0.417 -0.2340 -0.3528  0.5743
   93MOL   H13633440   7.249   2.492   0.217 -1.2101  2.2394 -2.9279
   93MOL   H13733441   7.409   2.527   0.158 -0.1992  0.5253 -0.5658
   93MOL   H13833442   7.243   2.699   0.122  0.9165 -1.1486 -0.0329
   93MOL   H13933443   7.392   2.755   0.202  0.8800 -1.4913  0.8014
   93MOL   H14033444   7.283   2.746   0.418  0.7045 -0.8998 -0.7024
   93MOL   H14133445   7.139   2.697   0.344 -0.2654  0.2169 -1.5286
   93MOL   H14233446   7.129   2.936   0.223 -0.5863 -0.3654  0.2802
   93MOL   H14333447   7.283   2.974   0.278 -0.2703  1.4619  0.5547
   93MOL   H14433448   7.170   2.953   0.529 -1.5747 -1.6631  0.9259
   93MOL   H14533449   7.162   3.090   0.423  0.3489 -0.5327 -0.3548
   93MOL   C14633450   6.922   2.877   0.483 -0.9125 -0.2407  0.0112
   93MOL   O14733451   6.967   2.815   0.580  0.1037  0.3405 -0.3742
   93MOL   C14833452   6.769   2.888   0.452  0.2682 -0.5553 -0.4848
   93MOL   C14933453   6.676   2.814   0.554  0.8177  0.1084 -0.5777
   93MOL   C15033454   6.613   2.910   0.653 -0.4332 -0.4862 -0.2364
   93MOL   C15133455   6.509   2.856   0.752 -0.1036 -0.0050 -0.4200
   93MOL   C15233456   6.450   2.970   0.839  0.1225  0.2928 -0.4572
   93MOL   O15333457   6.341   2.914   0.893  0.2144 -0.4505  0.6023
   93MOL   H15433458   6.754   2.839   0.356  0.2549 -0.5894 -0.4653
   93MOL   H15533459   6.741   2.991   0.431  1.5241 -0.2885 -0.8343
   93MOL   H15633460   6.726   2.741   0.619  1.1639 -0.7318 -1.7720
   93MOL   H15733461   6.595   2.767   0.499 -1.6908  1.3979  1.9268
   93MOL   H15833462   6.571   2.994   0.598 -0.6711 -0.7846 -0.5125
   93MOL   H15933463   6.695   2.954   0.709 -1.2198  3.1490 -1.7789
   93MOL   H16033464   6.556   2.785   0.820 -0.4505  0.8057  0.6778
   93MOL   H16133465   6.421   2.808   0.709  1.3803 -0.9607 -2.4551
   93MOL   H16233466   6.513   3.004   0.921 -0.3998  0.0519  0.0536
   93MOL   H16333467   6.416   3.058   0.785  1.2921  1.1580  0.2108
   93MOL   C16433468   6.300   2.928   1.019 -0.2880  0.3127 -0.4802
   93MOL   O16533469   6.359   2.994   1.107  0.1748 -0.0513 -0.2487
   93MOL   C16633470   6.187   2.835   1.045 -0.1067 -0.0563 -0.7167
   93MOL   C16733471   6.233   2.693   1.092 -0.5853 -0.6641 -0.3415
   93MOL   C16833472   6.315   2.616   0.992 -0.0972 -0.1412 -0.5824
   93MOL   C16933473   6.339   2.476   1.029 -0.1206 -0.3659 -0.2121
   93MOL   C17033474   6.432   2.394   0.941 -0.2235 -0.2040 -0.3357
   93MOL   O17133475   6.562   2.452   0.951 -0.2051  0.4591 -0.5123
   93MOL   H17233476   6.123   2.821   0.957  0.0608  1.4971 -1.1045
   93MOL   H17333477   6.138   2.887   1.127  0.9599  1.5361 -1.0701
   93MOL   H17433478   6.148   2.630   1.117 -0.2565 -0.1989  2.0432
   93MOL   H17533479   6.291   2.685   1.184 -0.1999  0.0856 -0.5140
   93MOL   H17633480   6.412   2.665   0.987  0.4963 -1.2850 -0.2985
   93MOL   H17733481   6.256   2.627   0.901 -0.2711  1.3954 -0.2996
   93MOL   H17833482   6.241   2.429   1.029  0.2903 -1.2702 -2.5339
   93MOL   H17933483   6.382   2.471   1.129 -1.2606  1.1081  0.3539
   93MOL   H18033484   6.437   2.287   0.960  0.7699 -0.5523 -2.4160
   93MOL   H18133485   6.397   2.402   0.838 -0.9776 -1.8229 -0.2096
   93MOL   C18233486   6.618   2.516   0.850  0.3237  0.2399 -0.4518
   93MOL   O18333487   6.565   2.547   0.745  0.0243 -0.4248 -0.2904
   93MOL   C18433488   6.764   2.545   0.877  0.2113 -0.2992  0.7546
   93MOL   C18533489   6.794   2.595   1.019  0.0297  0.4624 -0.3991
   93MOL   C18633490   6.732   2.736   1.055  0.0168 -0.2432 -0.1944
   93MOL   C18733491   6.787   2.794   1.185  0.2162 -0.6703  0.2046
   93MOL   C18833492   6.691   2.897   1.242 -0.0388  0.1411 -0.5361
   93MOL   O18933493   6.575   2.846   1.298  0.1278 -0.1985 -0.2274
   93MOL   H19033494   6.803   2.624   0.812 -0.1003 -1.4734 -0.8842
   93MOL   H19133495   6.825   2.458   0.855 -0.2947 -0.5076  0.1484
   93MOL   H19233496   6.901   2.612   1.027 -0.1327  0.9762  0.8342
   93MOL   H19333497   6.769   2.512   1.085  0.8842  1.3763  1.1002
   93MOL   H19433498   6.624   2.720   1.047 -0.1542  0.2326  1.0141
   93MOL   H19533499   6.753   2.807   0.975 -0.4223 -0.3830 -0.4379
   93MOL   H19633500   6.888   2.826   1.159  0.0047 -0.1122  0.0578
   93MOL   H19733501   6.801   2.716   1.260 -3.3223 -0.4623  1.1679
   93MOL   H19833502   6.752   2.937   1.323  0.0721  1.4731 -1.2665
   93MOL   H19933503   6.661   2.979   1.176 -0.5624  1.2535  1.0348
   93MOL   C20033504   6.522   2.904   1.417  0.6781  0.2284  0.9915
   93MOL   O20133505   6.571   2.999   1.483  0.4930  0.2608 -0.7540
   93MOL   C20233506   6.389   2.845   1.459  0.3655 -0.5040 -0.3905
   93MOL   C20333507   6.404   2.707   1.522  0.0892 -0.2634  0.0910
   93MOL   C20433508   6.264   2.647   1.540  0.0731  0.7217  1.1460
   93MOL   C20533509   6.265   2.524   1.642  0.4377  0.0603  0.1019
   93MOL   C20633510   6.131   2.464   1.668  0.2334  0.7141 -0.8361
   93MOL   O20733511   6.145   2.386   1.779  0.0228  0.7051 -0.1809
   93MOL   H20833512   6.330   2.835   1.369  1.3181  0.8147 -1.1808
   93MOL   H20933513   6.329   2.903   1.529  1.6875  1.4883 -0.8598
   93MOL   H21033514   6.471   2.714   1.607  1.8426 -2.1060 -1.1054
   93MOL   H21133515   6.448   2.632   1.456  0.1506 -1.3768  1.3798
   93MOL   H21233516   6.232   2.607   1.443  0.5959  0.8728  0.9091
   93MOL   H21333517   6.191   2.723   1.565 -1.2209  0.2326 -0.9903
   93MOL   H21433518   6.315   2.573   1.725  0.9624  2.1040 -1.3600
   93MOL   H21533519   6.338   2.454   1.602 -0.6647  0.1449 -2.1526
   93MOL   H21633520   6.051   2.533   1.697 -0.8566 -1.1970  0.8954
   93MOL   H21733521   6.090   2.401   1.589  0.5828 -0.9267  0.2530
   93MOL   C21833522   6.125   2.254   1.776  0.0955  0.2133 -0.8050
   93MOL   O21933523   6.091   2.181   1.682 -0.1558 -0.3875 -0.4682
   93MOL   C22033524   6.148   2.199   1.915 -0.4621  0.3031  1.1388
   93MOL   C22133525   6.078   2.288   2.032  0.2676 -0.6894 -0.1474
   93MOL   C22233526   6.093   2.233   2.177  0.4623 -0.6440 -0.5523
   93MOL   C22333527   6.001   2.113   2.215 -0.2376 -0.0768 -0.3696
   93MOL   C22433528   6.050   2.031   2.328  0.0635  0.4888  0.9875
   93MOL   O22533529   5.950   1.937   2.364 -0.3986 -0.3665  0.6124
   93MOL   H22633530   6.252   2.185   1.946  0.1583  0.2277 -0.9068
   93MOL   H22733531   6.111   2.096   1.911 -3.4512  1.4253 -1.6641
   93MOL   H22833532   5.972   2.295   2.007  0.0279 -2.4854  0.3142
   93MOL   H22933533   6.118   2.390   2.036  1.5042 -1.0811 -2.1198
   93MOL   H23033534   6.061   2.305   2.253  0.2454 -2.6465  1.3038
   93MOL   H23133535   6.196   2.214   2.208  0.2220  0.4143  0.9683
   93MOL   H23233536   5.997   2.047   2.128 -0.2505  0.8380 -1.0726
   93MOL   H23333537   5.905   2.159   2.235 -0.3358 -0.4590  0.0215
   93MOL   H23433538   6.137   1.981   2.284  0.1162  0.2139  1.4034
   93MOL   H23533539   6.078   2.087   2.417 -1.9053  1.6119  0.9301
   93MOL   C23633540   5.969   1.845   2.465 -0.7611 -0.0384  0.4929
   93MOL   O23733541   6.075   1.838   2.530  0.5241 -0.3313 -0.2781
   93MOL   C23833542   5.849   1.758   2.506 -0.0159 -0.7662  0.6528
   93MOL   C23933543   5.714   1.836   2.516 -0.1881  0.5059  0.5278
   93MOL   C24033544   5.657   1.890   2.377  0.0096  0.0216  0.2305
   93MOL   C24133545   5.503   1.902   2.365 -0.5232 -0.5116 -0.6254
   93MOL   C24233546   5.453   2.003   2.262 -0.0594  0.1263  0.2903
   93MOL   O24333547   5.309   2.006   2.271 -0.1619  0.2980  0.1556
   93MOL   H24433548   5.877   1.721   2.604  0.9068  0.2295  0.7741
   93MOL   H24533549   5.840   1.668   2.446  0.8350 -0.0871 -0.5275
   93MOL   H24633550   5.708   1.919   2.586 -4.3908  0.6387  0.1694
   93MOL   H24733551   5.639   1.771   2.561  0.0727 -0.4158 -0.3533
   93MOL   H24833552   5.682   1.803   2.316  1.3033 -0.5936  1.5982
   93MOL   H24933553   5.712   1.973   2.334  0.0937 -0.1089  0.0854
   93MOL   H25033554   5.475   1.940   2.463  3.3245  2.2469 -0.4608
   93MOL   H25133555   5.450   1.807   2.361 -2.0323  0.3728 -2.0834
   93MOL   H25233556   5.498   2.102   2.267  0.6925 -0.1990  0.0537
   93MOL   H25333557   5.479   1.969   2.162 -0.7673  0.6219 -0.0705
   93MOL   C25433558   5.240   2.075   2.178  0.0322 -0.2323 -0.4471
   93MOL   O25533559   5.294   2.144   2.092  0.2210  0.0090 -0.5387
   93MOL   C25633560   5.096   2.059   2.185 -0.1041  0.0252 -0.0611
   93MOL   C25733561   5.025   2.091   2.050  0.0345  0.7179 -0.2215
   93MOL   C25833562   4.869   2.076   2.073 -0.5073 -0.3491 -0.1844
   93MOL   C25933563   4.794   2.096   1.939 -0.2434 -0.7011 -0.4602
   93MOL   C26033564   4.666   2.026   1.943  0.5979  0.4734 -0.0535
   93MOL   O26133565   4.606   2.043   1.817  0.4719 -0.0894  0.1531
   93MOL   H26233566   5.067   2.118   2.272 -1.0809 -3.2136  1.9108
   93MOL   H26333567   5.078   1.953   2.206 -0.4060  0.0814 -0.0310
   93MOL   H26433568   5.068   2.022   1.978  1.0906 -0.9682  1.9644
   93MOL   H26533569   5.061   2.188   2.014 -1.5759  0.3833 -2.8111
   93MOL   H26633570   4.852   2.143   2.157 -0.1902 -1.2196  0.5832
   93MOL   H26733571   4.862   1.970   2.101  2.7793 -0.4138  0.6496
   93MOL   H26833572   4.860   2.059   1.861  0.0968  0.1504 -0.5896
   93MOL   H26933573   4.775   2.202   1.922  0.4554 -0.3660  0.8112
   93MOL   H27033574   4.677   1.919   1.961 -1.8708 -0.1631 -2.1398
   93MOL   H27133575   4.612   2.067   2.028  0.8320 -0.0121  0.3384
   93MOL   C27233576   4.468   2.004   1.795 -0.0667 -0.5469  0.0345
   93MOL   O27333577   4.384   1.976   1.884 -0.5207  0.1893  0.2664
   93MOL   C27433578   4.418   2.012   1.651  0.1500 -0.5551  0.5295
   93MOL   C27533579   4.427   1.872   1.589 -0.2166 -0.4522 -0.0765
   93MOL   C27633580   4.570   1.810   1.586  0.4315  0.5704 -0.3788
   93MOL   C27733581   4.684   1.886   1.517 -0.3616  0.4283 -0.0183
   93MOL   C27833582   4.816   1.836   1.587  0.6252  0.0789  0.1959
   93MOL   O27933583   4.830   1.695   1.571 -0.1086  0.4379 -0.6099
   93MOL   H28033584   4.464   2.087   1.588 -3.4533 -0.6035 -2.2942
   93MOL   H28133585   4.318   2.054   1.657 -0.0014 -0.8874  0.3141
   93MOL   H28233586   4.386   1.889   1.490 -2.1518 -0.1889  0.7590
   93MOL   H28333587   4.358   1.799   1.632  0.1903 -0.8651 -0.1131
   93MOL   H28433588   4.562   1.716   1.530 -2.0106  1.5301 -1.7051
   93MOL   H28533589   4.604   1.782   1.686 -1.4659  0.0709  0.1322
   93MOL   H28633590   4.671   1.994   1.526 -0.6268  0.6005 -2.2069
   93MOL   H28733591   4.684   1.866   1.410  2.0214 -0.0821  0.0515
   93MOL   H28833592   4.902   1.882   1.539  0.1826  0.0477 -0.6507
   93MOL   H28933593   4.829   1.871   1.689  0.5140 -0.0172  0.2422
   93MOL   C29033594   4.858   1.646   1.453 -0.3331  1.1052 -0.0373
   93MOL   O29133595   4.893   1.720   1.356 -0.3148 -0.1245  0.0737
   93MOL   C29233596   4.848   1.495   1.436 -0.2428  0.0140  0.6191
   93MOL   C29333597   4.970   1.418   1.499  0.0352  0.2044  0.7309
   93MOL   C29433598   5.109   1.439   1.433  0.1045 -0.3604  0.4094
   93MOL   C29533599   5.225   1.382   1.513 -0.2685 -0.4504 -0.4168
   93MOL   C29633600   5.355   1.395   1.438  0.4270 -0.7650  0.2543
   93MOL   O29733601   5.434   1.287   1.489  0.5179  0.8143  0.1380
   93MOL   H29833602   4.838   1.475   1.329  0.0732  2.3318  0.1152
   93MOL   H29933603   4.754   1.463   1.479 -0.8342 -0.0957 -0.7188
   93MOL   H30033604   4.953   1.310   1.497 -0.4727  0.2932 -1.8978
   93MOL   H30133605   4.979   1.455   1.601  3.9132  0.2288  0.4521
   93MOL   H30233606   5.122   1.547   1.433 -0.6246 -0.2591 -0.4287
   93MOL   H30333607   5.119   1.396   1.333 -0.1695  1.3106 -0.3596
   93MOL   H30433608   5.210   1.281   1.551 -0.2949 -0.2087  0.2208
   93MOL   H30533609   5.231   1.442   1.604  1.0449 -1.3028  0.0726
   93MOL   H30633610   5.336   1.386   1.331  2.0678 -0.7383 -0.0586
   93MOL   H30733611   5.396   1.495   1.453  0.5073 -0.8932  0.9163
   93MOL   C30833612   5.538   1.251   1.418 -0.0095 -0.5677 -0.1249
   93MOL   O30933613   5.580   1.304   1.317  0.7143  0.0952  0.1478
   93MOL   C31033614   5.608   1.148   1.501  0.3171  0.3314 -0.0911
   93MOL   C31133615   5.758   1.120   1.470 -0.6816 -0.2513 -0.6243
   93MOL   C31233616   5.841   1.242   1.523 -0.5255 -0.0851 -0.0058
   93MOL   C31333617   5.991   1.232   1.503  0.7238 -0.0502  0.7318
   93MOL   C31433618   6.071   1.354   1.556 -0.5394 -0.5476 -0.3068
   93MOL   O31533619   6.216   1.341   1.528 -0.2115  0.3605  0.3156
   93MOL   H31633620   5.550   1.057   1.489 -0.5473  1.0148 -1.2686
   93MOL   H31733621   5.600   1.179   1.605 -1.7851 -0.9561  0.1464
   93MOL   H31833622   5.779   1.105   1.364  0.0278 -0.1585 -0.5006
   93MOL   H31933623   5.787   1.033   1.528  0.1844  0.1728 -0.4168
   93MOL   H32033624   5.819   1.262   1.628  0.5979  1.5064 -0.0468
   93MOL   H32133625   5.805   1.330   1.469 -0.3994  2.2338  3.5298
   93MOL   H32233626   6.006   1.217   1.396 -0.0202 -0.1287  0.6395
   93MOL   H32333627   6.022   1.135   1.541 -0.6747 -1.3384 -1.3124
   93MOL   H32433628   6.020   1.440   1.511  0.8444  0.0609 -0.7501
   93MOL   H32533629   6.058   1.351   1.664 -1.0906  2.6865 -0.2107
   93MOL   C32633630   6.275   1.247   1.596 -0.3571 -0.0302 -0.1745
   93MOL   O32733631   6.224   1.169   1.674 -0.1832 -0.2776  0.2911
   93MOL   C32833632   6.420   1.236   1.555 -0.1450  0.1769  0.7690
   93MOL   C32933633   6.457   1.130   1.444  0.3399  0.1341 -0.3777
   93MOL   C33033634   6.470   1.191   1.308  0.1001 -0.4907  0.1990
   93MOL   C33133635   6.466   1.087   1.199 -0.5107  0.4412 -0.0564
   93MOL   C33233636   6.504   1.136   1.058 -0.4038 -0.6631 -0.2204
   93MOL   O33333637   6.416   1.236   1.021 -0.2551  0.3054  0.0002
   93MOL   H33433638   6.482   1.215   1.642  1.3620 -0.3369 -0.4179
   93MOL   H33533639   6.458   1.334   1.526 -0.8924  0.5646  1.0892
   93MOL   H33633640   6.379   1.055   1.440  0.0289  0.4834 -1.0243
   93MOL   H33733641   6.549   1.083   1.478  0.1691  0.0727 -0.0006
   93MOL   H33833642   6.569   1.235   1.293 -0.1693  0.5373  1.3766
   93MOL   H33933643   6.391   1.262   1.284  1.2455  0.2226 -1.6003
   93MOL   H34033644   6.360   1.062   1.193 -1.5247  4.2204  0.6578
   93MOL   H34133645   6.524   0.996   1.214 -0.7406  0.2201 -0.4907
   93MOL   H34233646   6.606   1.174   1.051 -0.3945 -0.5260  0.5260
   93MOL   H34333647   6.506   1.047   0.995  1.7687 -0.8751  0.1043
   93MOL   C34433648   6.464   1.338   0.945 -1.0047 -0.3615 -0.1303
   93MOL   O34533649   6.571   1.336   0.892 -0.2837  0.2724  0.0506
   93MOL   C34633650   6.369   1.453   0.924  0.4499 -0.4139 -0.8078
   93MOL   C34733651   6.426   1.592   0.887 -0.4154 -0.7989  0.8508
   93MOL   C34833652   6.319   1.708   0.899 -0.3521 -0.8103  0.4526
   93MOL   C34933653   6.376   1.826   0.824  0.3692 -0.0029 -0.2485
   93MOL   C35033654   6.286   1.947   0.842  0.3679  0.1340  0.5457
   93MOL   O35133655   6.334   2.064   0.788 -0.0929  0.2541  0.1265
   93MOL   H35233656   6.302   1.460   1.009  2.6349 -1.4335  1.0526
   93MOL   H35333657   6.304   1.436   0.838 -1.3462  2.0104  0.0191
   93MOL   H35433658   6.475   1.590   0.790 -0.8377  0.5538  0.5956
   93MOL   H35533659   6.515   1.617   0.945 -0.8103  1.6176  0.4700
   93MOL   H35633660   6.311   1.738   1.004 -0.3830 -1.5309  0.6593
   93MOL   H35733661   6.223   1.670   0.864 -1.1360  1.5668 -0.0676
   93MOL   H35833662   6.381   1.795   0.719 -0.5892 -1.2051  0.0535
   93MOL   H35933663   6.478   1.850   0.855  0.5813 -0.8840 -0.2524
   93MOL   H36033664   6.194   1.933   0.785  0.8089  2.1786 -0.7396
   93MOL   H36133665   6.261   1.959   0.948  0.8331  3.4982  0.3272
   93MOL   H36233666   6.323   2.046   0.695  0.1142 -1.5141  0.4150
   94MOL     C133667   4.483   0.007   2.657  0.5272 -0.1250  0.1321
   94MOL     O233668   4.397   7.834   2.571 -0.3483  0.3292  0.6596
   94MOL     C333669   4.575   7.740   2.712 -0.1894  0.0890 -0.3618
   94MOL     C433670   4.503   7.635   2.793  0.0259 -0.0456 -0.5058
   94MOL     C533671   4.451   7.692   2.923  0.4710  0.1357 -0.8289
   94MOL     C633672   4.400   7.580   3.019 -0.2343 -0.3813  0.1600
   94MOL     C733673   4.318   7.625   3.134 -0.4065 -0.2565  0.3504
   94MOL     O833674   4.393   7.695   3.234 -0.4419 -0.0847  0.3106
   94MOL     H933675   4.671   7.774   2.752 -0.6985  0.2233  0.7868
   94MOL    H1033676   4.594   7.684   2.621 -0.3268 -2.1950  0.9647
   94MOL    H1133677   4.575   7.562   2.831 -2.0246 -1.7267  0.2851
   94MOL    H1233678   4.434   7.573   2.735 -0.2543  1.8845 -2.2840
   94MOL    H1333679   4.371   7.764   2.902  0.1302  0.4117  1.2660
   94MOL    H1433680   4.526   7.754   2.972 -0.2372  0.7035 -0.4602
   94MOL    H1533681   4.478   7.508   3.045 -1.5108 -0.9034  2.7161
   94MOL    H1633682   4.332   7.514   2.965 -1.5452  0.5971  0.6026
   94MOL    H1733683   4.221   7.664   3.105  0.7512  2.2744 -0.3093
   94MOL    H1833684   4.282   7.533   3.179  4.5422 -1.8877  1.2834
   94MOL    H1933685   4.508   0.105   2.696  2.4552 -0.0287 -1.2930
   94MOL    C2033686   4.360   7.824   3.266 -0.0312 -0.0112 -1.1300
   94MOL    O2133687   4.263   0.037   3.223  0.2464 -0.2956 -0.5595
   94MOL    C2233688   4.448   0.029   3.378  0.3216 -0.7945 -0.3597
   94MOL    C2333689   4.588   0.066   3.330 -0.3095  0.0568  0.3803
   94MOL    C2433690   4.671   0.122   3.451 -0.3839  0.1696 -0.4684
   94MOL    C2533691   4.692   0.026   3.568  0.0149 -0.3631  0.4046
   94MOL    C2633692   4.760   7.742   3.523 -0.0871  0.2185 -0.0668
   94MOL    O2733693   4.670   7.642   3.469 -0.1534  0.4776 -0.2669
   94MOL    H2833694   4.456   7.790   3.448  3.3625 -0.2258  0.0487
   94MOL    H2933695   4.398   0.111   3.429 -0.0108 -0.1822 -1.6620
   94MOL    H3033696   4.576   0.150   3.261 -0.7820  0.4828  0.9681
   94MOL    H3133697   4.641   7.833   3.275  0.2902  1.4939 -1.1372
   94MOL    H3233698   4.623   0.210   3.495 -3.7260 -0.3415 -2.9025
   94MOL    H3333699   4.770   0.158   3.425  0.1596 -0.5148  0.6068
   94MOL    H3433700   4.599   0.014   3.623 -0.6547 -0.5261 -0.7507
   94MOL    H3533701   4.765   0.066   3.638 -2.1682  0.9062  1.9927
   94MOL    H3633702   4.832   7.759   3.443  0.4478  2.6243  0.8776
   94MOL    H3733703   4.813   7.691   3.604  0.0812 -0.8273 -0.8127
   94MOL    C3833704   4.634   7.527   3.538 -0.5880 -0.0426 -0.3870
   94MOL    O3933705   4.677   7.492   3.650 -0.4811 -0.0683  0.3857
   94MOL    C4033706   4.521   7.442   3.467 -0.3268 -0.0463  0.3982
   94MOL    C4133707   4.546   7.290   3.471 -0.1372  0.6185 -0.3915
   94MOL    C4233708   4.424   7.215   3.420 -0.4570 -0.0967 -0.0450
   94MOL    C4333709   4.392   7.238   3.270  0.3753 -0.5155  0.2412
   94MOL    C4433710   4.263   7.161   3.248  0.1364 -0.2619 -0.0051
   94MOL    O4533711   4.219   7.171   3.113 -0.0381  0.1257  0.4559
   94MOL    H4633712   4.514   7.493   3.371 -1.8774 -0.3986  0.3136
   94MOL    H4733713   4.437   7.460   3.534 -0.2954 -1.7660  0.9295
   94MOL    H4833714   4.561   7.257   3.573  1.2639  1.1126 -0.4383
   94MOL    H4933715   4.636   7.260   3.418 -0.2907 -2.1528  0.8581
   94MOL    H5033716   4.342   7.250   3.482 -0.1842 -0.7506  0.6915
   94MOL    H5133717   4.439   7.108   3.440 -0.1705 -0.0688 -0.1064
   94MOL    H5233718   4.462   7.180   3.211  1.7105 -1.4476  2.6793
   94MOL    H5333719   4.378   7.342   3.238  1.5941 -0.7063 -0.9160
   94MOL    H5433720   4.278   7.055   3.270  0.4396  0.1688  1.9159
   94MOL    H5533721   4.189   7.192   3.321  1.3127 -0.0366  1.1104
   94MOL    C5633722   4.094   7.158   3.088  0.0201 -0.1959  0.3420
   94MOL    O5733723   4.014   7.112   3.164  0.6700  0.2437  0.9964
   94MOL    C5833724   4.046   7.205   2.944 -0.2308 -0.0068 -0.9143
   94MOL    C5933725   3.938   7.119   2.885  0.4837  0.7460  0.2856
   94MOL    C6033726   3.865   7.199   2.772 -0.4466  0.6720 -0.0644
   94MOL    C6133727   3.756   7.110   2.698  0.3062 -0.3881 -0.0356
   94MOL    C6233728   3.645   7.189   2.625 -0.2884 -0.3099  0.5816
   94MOL    O6333729   3.543   7.099   2.582  0.7228 -0.0477  0.3956
   94MOL    H6433730   4.135   7.204   2.881  0.3359  1.4984 -0.1806
   94MOL    H6533731   4.008   7.307   2.945 -1.3397 -0.4179 -0.5356
   94MOL    H6633732   3.872   7.087   2.966 -0.3532  0.4710 -0.5014
   94MOL    H6733733   3.990   7.030   2.849 -0.8592 -1.3587  3.3351
   94MOL    H6833734   3.940   7.236   2.703 -1.7061  0.2651 -1.6979
   94MOL    H6933735   3.829   7.293   2.813 -0.2890  1.6432 -2.0812
   94MOL    H7033736   3.700   7.051   2.771 -3.1006 -0.7233 -2.7505
   94MOL    H7133737   3.803   7.034   2.635 -2.7599  1.3220 -4.7143
   94MOL    H7233738   3.602   7.249   2.705 -0.9812 -2.2527  1.7081
   94MOL    H7333739   3.684   7.260   2.553  1.3868 -1.6427  0.1232
   94MOL    C7433740   3.568   7.024   2.464 -1.0682  0.3810  0.6192
   94MOL    O7533741   3.665   7.024   2.387 -0.0409 -0.0938 -0.1351
   94MOL    C7633742   3.450   6.931   2.436  0.4956 -0.1927 -0.1692
   94MOL    C7733743   3.459   6.845   2.303 -0.2661  0.1396  0.1643
   94MOL    C7833744   3.557   6.725   2.299  0.3837 -0.6124 -0.5271
   94MOL    C7933745   3.551   6.635   2.171 -0.3806  0.3155 -0.0212
   94MOL    C8033746   3.666   6.532   2.159  0.7564 -0.8158 -0.6859
   94MOL    O8133747   3.798   6.578   2.165 -0.1869 -0.9950  0.7592
   94MOL    H8233748   3.362   6.995   2.432  1.1158  0.6759  0.1710
   94MOL    H8333749   3.451   6.864   2.522 -0.1523 -2.0041 -1.5275
   94MOL    H8433750   3.481   6.908   2.217 -1.1801 -0.2994 -0.3945
   94MOL    H8533751   3.355   6.815   2.288 -0.9720  1.5078  2.0360
   94MOL    H8633752   3.541   6.648   2.375  2.5145  1.6939  2.3528
   94MOL    H8733753   3.660   6.756   2.315  0.3835  1.0213 -3.3572
   94MOL    H8833754   3.549   6.702   2.085 -1.9416 -0.3294 -0.5098
   94MOL    H8933755   3.459   6.578   2.190  0.7670 -2.6245 -2.9767
   94MOL    H9033756   3.653   6.469   2.247 -1.6027 -1.1603 -1.2515
   94MOL    H9133757   3.646   6.474   2.069 -1.5724  1.3343 -1.5938
   94MOL    C9233758   3.891   6.497   2.130  0.0910 -0.0738  0.3452
   94MOL    O9333759   3.884   6.376   2.104 -0.2405 -0.4273  0.2396
   94MOL    C9433760   4.026   6.575   2.120 -0.0767 -0.1554 -1.0686
   94MOL    C9533761   4.139   6.509   2.049  0.0160 -0.4955  0.3906
   94MOL    C9633762   4.257   6.608   2.018  0.3923  0.3503  0.0999
   94MOL    C9733763   4.381   6.561   1.939 -1.3583 -0.1908  0.1733
   94MOL    C9833764   4.495   6.657   1.916  0.3681  0.5645  0.3666
   94MOL    O9933765   4.606   6.602   1.849 -0.1537  0.0655 -0.2272
   94MOL   H10033766   4.055   6.593   2.223 -0.6620 -0.0225 -0.9231
   94MOL   H10133767   4.008   6.671   2.072 -0.0443 -0.2135 -1.1991
   94MOL   H10233768   4.113   6.459   1.956 -2.3282  1.6762 -0.1828
   94MOL   H10333769   4.177   6.426   2.110 -0.6930 -1.2316 -0.1589
   94MOL   H10433770   4.288   6.649   2.114  1.1679 -0.7255  0.3176
   94MOL   H10533771   4.206   6.683   1.957 -1.6132 -0.0245  1.2524
   94MOL   H10633772   4.342   6.540   1.839  0.4543  0.6051 -0.7189
   94MOL   H10733773   4.412   6.460   1.966 -0.4586 -0.2551 -1.0622
   94MOL   H10833774   4.466   6.739   1.850  1.7658 -0.2254 -1.2947
   94MOL   H10933775   4.524   6.694   2.014 -1.0681 -0.5041  1.2027
   94MOL   C11033776   4.709   6.536   1.903 -0.0585  0.5118  0.0768
   94MOL   O11133777   4.734   6.524   2.027 -0.5050  0.2083 -0.2772
   94MOL   C11233778   4.796   6.477   1.797 -0.2456 -0.2976 -0.1618
   94MOL   C11333779   4.728   6.367   1.706  0.5352  1.5376 -0.1389
   94MOL   C11433780   4.719   6.225   1.769  0.0771 -0.6126 -0.1089
   94MOL   C11533781   4.864   6.167   1.781 -0.3732 -0.1774 -0.2412
   94MOL   C11633782   4.874   6.028   1.845  0.7996 -0.4310  0.2027
   94MOL   O11733783   4.864   6.030   1.989  0.1800 -0.6182  0.1694
   94MOL   H11833784   4.882   6.442   1.854 -0.8900 -1.9108 -0.1575
   94MOL   H11933785   4.831   6.556   1.731  0.0931 -0.2414  0.0844
   94MOL   H12033786   4.772   6.372   1.607  1.8520 -2.1465  0.1679
   94MOL   H12133787   4.626   6.403   1.690  0.5212  0.2730 -3.1687
   94MOL   H12233788   4.656   6.155   1.714  0.0878 -1.7297  1.2785
   94MOL   H12333789   4.673   6.240   1.867 -1.4056 -1.0081 -0.7210
   94MOL   H12433790   4.926   6.238   1.836  0.0617 -1.4932  1.0423
   94MOL   H12533791   4.912   6.158   1.684 -0.1332 -0.2155 -0.1212
   94MOL   H12633792   4.803   5.960   1.798  0.0104  0.4620  0.0929
   94MOL   H12733793   4.968   5.977   1.820 -0.5748 -3.8726  1.6762
   94MOL   C12833794   4.741   6.016   2.048 -0.7271  0.7078 -0.0315
   94MOL   O12933795   4.630   5.996   1.993  0.0748 -0.2105  0.5585
   94MOL   C13033796   4.752   6.004   2.201  0.6176  0.0804 -0.3017
   94MOL   C13133797   4.742   6.133   2.283 -0.2780 -0.4812  0.2188
   94MOL   C13233798   4.613   6.219   2.254 -0.5627 -0.5144  0.2942
   94MOL   C13333799   4.619   6.362   2.310 -0.5999  0.1792  0.3637
   94MOL   C13433800   4.499   6.445   2.256  0.1921 -0.0384  0.6435
   94MOL   O13533801   4.391   6.406   2.344  0.2797 -0.2444 -0.2110
   94MOL   H13633802   4.844   5.953   2.227  0.6361  0.4213  0.3283
   94MOL   H13733803   4.664   5.947   2.232  0.9195  0.0730  0.5574
   94MOL   H13833804   4.824   6.200   2.259 -0.7108 -0.2374 -0.6200
   94MOL   H13933805   4.754   6.110   2.389  1.5465 -2.3172 -0.3462
   94MOL   H14033806   4.522   6.164   2.280 -0.0459 -0.5747  2.0062
   94MOL   H14133807   4.615   6.233   2.146  2.0973 -3.7539 -0.1782
   94MOL   H14233808   4.717   6.403   2.282 -0.6982  0.8709  1.0124
   94MOL   H14333809   4.625   6.357   2.419  0.7700 -1.8663  0.2127
   94MOL   H14433810   4.522   6.552   2.261  0.4562 -0.1341  1.5236
   94MOL   H14533811   4.468   6.415   2.156  1.1386 -0.3358  0.4416
   94MOL   C14633812   4.328   6.506   2.410 -0.6311  0.3758 -0.0853
   94MOL   O14733813   4.345   6.627   2.392  0.7222 -0.2529 -0.1378
   94MOL   C14833814   4.247   6.462   2.531  0.7643 -0.9953  0.4285
   94MOL   C14933815   4.332   6.429   2.658  0.2481 -0.0045  0.2787
   94MOL   C15033816   4.422   6.536   2.725 -0.3113 -0.4434  0.0816
   94MOL   C15133817   4.484   6.468   2.850 -0.3944 -0.3509 -0.4431
   94MOL   C15233818   4.611   6.545   2.902  0.5458 -0.2493  0.4823
   94MOL   O15333819   4.586   6.664   2.974  0.4131 -0.3520 -0.0206
   94MOL   H15433820   4.183   6.380   2.498  0.1306  0.2174 -1.4044
   94MOL   H15533821   4.181   6.544   2.559  0.4333 -1.2398  0.3641
   94MOL   H15633822   4.386   6.336   2.638  1.3386  0.3984  1.2773
   94MOL   H15733823   4.261   6.396   2.734  0.9898 -0.3527  0.8371
   94MOL   H15833824   4.368   6.625   2.758 -0.2754 -0.8834  1.3432
   94MOL   H15933825   4.491   6.573   2.650 -1.3391  3.2621  0.8510
   94MOL   H16033826   4.524   6.369   2.831  0.0227 -0.2492 -0.0791
   94MOL   H16133827   4.410   6.449   2.928  1.3655  0.7322  1.5333
   94MOL   H16233828   4.674   6.479   2.962  1.8413  0.9612  0.4631
   94MOL   H16333829   4.677   6.564   2.818  0.9946  1.0778  1.1212
   94MOL   C16433830   4.543   6.658   3.104 -0.2700  0.5334 -0.0362
   94MOL   O16533831   4.543   6.555   3.170  0.0065  0.0481  0.1412
   94MOL   C16633832   4.512   6.793   3.162 -0.2156  0.1217 -0.3516
   94MOL   C16733833   4.631   6.892   3.148  0.4048 -0.1158  0.2799
   94MOL   C16833834   4.774   6.835   3.186 -0.2615  0.7324 -0.2804
   94MOL   C16933835   4.876   6.954   3.205 -0.0442 -0.3403 -0.2116
   94MOL   C17033836   5.006   6.917   3.279  0.4464  0.5530 -0.2702
   94MOL   O17133837   5.098   6.832   3.204 -0.2133  0.2002 -0.7424
   94MOL   H17233838   4.487   6.797   3.268  2.6833  0.1061  0.3663
   94MOL   H17333839   4.430   6.849   3.116 -1.1213 -0.0148  1.0437
   94MOL   H17433840   4.600   6.973   3.214 -2.3296  0.2608 -1.3778
   94MOL   H17533841   4.630   6.939   3.049 -0.6377 -1.5380 -0.3991
   94MOL   H17633842   4.801   6.763   3.109 -0.2940 -0.3183  0.6796
   94MOL   H17733843   4.769   6.776   3.278 -1.4805 -1.1195 -1.5164
   94MOL   H17833844   4.819   7.030   3.259 -1.0360 -1.6710  0.6412
   94MOL   H17933845   4.900   6.996   3.107  2.5905 -0.1063  0.4815
   94MOL   H18033846   5.069   7.000   3.310  0.7984 -0.0489  0.6313
   94MOL   H18133847   4.976   6.859   3.366 -2.2627 -0.5017 -1.8156
   94MOL   C18233848   5.182   6.749   3.268  0.1619  0.2989 -0.1778
   94MOL   O18333849   5.171   6.718   3.382  0.1306 -0.4271 -0.3585
   94MOL   C18433850   5.285   6.685   3.176 -0.2099 -0.6459 -0.3870
   94MOL   C18533851   5.243   6.542   3.140 -0.1301 -0.8834 -0.5669
   94MOL   C18633852   5.137   6.535   3.031  0.2293 -0.0543  0.7972
   94MOL   C18733853   5.086   6.392   2.996 -0.2219 -0.0390  0.0885
   94MOL   C18833854   4.960   6.379   2.912  0.3881  0.0852 -0.5716
   94MOL   O18933855   4.989   6.401   2.779  0.3897 -0.6543  0.0843
   94MOL   H19033856   5.374   6.679   3.238 -0.8832 -0.5040  0.6031
   94MOL   H19133857   5.311   6.753   3.095 -1.9480  1.5763  0.8656
   94MOL   H19233858   5.206   6.492   3.230 -1.4429  0.1795 -0.4939
   94MOL   H19333859   5.326   6.479   3.107  0.5137 -1.1103  1.4342
   94MOL   H19433860   5.171   6.578   2.936  0.8188 -2.0808  0.0752
   94MOL   H19533861   5.046   6.588   3.063 -0.0181 -1.1914  1.9948
   94MOL   H19633862   5.058   6.328   3.079 -2.0003 -1.0113 -1.2130
   94MOL   H19733863   5.165   6.340   2.943 -1.5299 -1.5957 -0.3893
   94MOL   H19833864   4.930   6.275   2.922  1.5033 -0.1437  0.6319
   94MOL   H19933865   4.876   6.439   2.947 -0.1847 -1.6795  1.1677
   94MOL   C20033866   4.892   6.373   2.688  0.3567  0.5114  0.1437
   94MOL   O20133867   4.783   6.326   2.707 -0.4853 -0.0895  0.3952
   94MOL   C20233868   4.934   6.417   2.549  0.1551  0.3628  0.5585
   94MOL   C20333869   5.013   6.313   2.466 -0.1128 -0.2271  0.5242
   94MOL   C20433870   5.060   6.362   2.326  0.0017 -0.5323  0.2819
   94MOL   C20533871   5.145   6.265   2.243 -0.5602 -0.4928  0.1640
   94MOL   C20633872   5.154   6.322   2.097 -0.0682 -0.6917 -1.1135
   94MOL   O20733873   5.235   6.432   2.104  0.4170  0.3435  0.1383
   94MOL   H20833874   4.990   6.511   2.542  0.2756  0.1734 -1.0744
   94MOL   H20933875   4.844   6.426   2.489  0.8342 -2.1943 -0.9349
   94MOL   H21033876   4.956   6.222   2.450 -1.5807  0.8818 -0.7790
   94MOL   H21133877   5.102   6.284   2.522  1.2005  0.0197 -1.3766
   94MOL   H21233878   5.115   6.454   2.347 -0.3444 -0.5188  1.1671
   94MOL   H21333879   4.974   6.401   2.272  1.6182  1.2414 -1.0798
   94MOL   H21433880   5.095   6.169   2.238 -2.0167  0.3267 -1.8232
   94MOL   H21533881   5.248   6.271   2.277 -0.2698 -1.6442 -0.5013
   94MOL   H21633882   5.193   6.255   2.020  0.7535  0.5006 -1.7588
   94MOL   H21733883   5.056   6.354   2.061 -0.0672  1.3731  0.6434
   94MOL   C21833884   5.235   6.522   2.003  0.7633 -1.0342 -0.8187
   94MOL   O21933885   5.143   6.540   1.922  0.8031 -0.5180  0.1546
   94MOL   C22033886   5.342   6.626   2.018 -0.6653 -0.1527 -0.0184
   94MOL   C22133887   5.438   6.633   1.898 -0.1157  0.0671 -0.1944
   94MOL   C22233888   5.558   6.725   1.915 -0.2801 -0.4021 -0.2877
   94MOL   C22333889   5.522   6.871   1.940 -0.1657 -1.1638  0.9071
   94MOL   C22433890   5.635   6.970   1.947 -0.1420 -0.4533  0.0511
   94MOL   O22533891   5.735   6.942   2.041  0.7785  0.5925  0.5002
   94MOL   H22633892   5.404   6.585   2.098 -2.6292  1.5227  2.4462
   94MOL   H22733893   5.295   6.723   2.038  3.1309  1.6188  0.7177
   94MOL   H22833894   5.379   6.670   1.814 -1.8895  0.5207  1.2000
   94MOL   H22933895   5.461   6.530   1.872  0.7507 -0.2205  1.6632
   94MOL   H23033896   5.617   6.724   1.823 -1.2757  2.2617 -1.0143
   94MOL   H23133897   5.610   6.691   2.004 -1.3691  0.0408  0.5249
   94MOL   H23233898   5.452   6.872   2.023 -2.4594 -2.4214 -0.9440
   94MOL   H23333899   5.455   6.898   1.859  0.4284  0.0926  0.8215
   94MOL   H23433900   5.690   6.983   1.854  0.5765  0.4008  0.5861
   94MOL   H23533901   5.590   7.068   1.963 -1.7684 -0.9311 -1.4975
   94MOL   C23633902   5.724   6.983   2.164  1.3215 -0.3521  0.3143
   94MOL   O23733903   5.623   7.040   2.203  0.6296  0.0749  0.2520
   94MOL   C23833904   5.848   6.947   2.250 -0.2430  0.1443  0.9811
   94MOL   C23933905   5.974   7.019   2.209 -0.8949  0.4054 -0.2963
   94MOL   C24033906   6.058   6.944   2.104 -0.0225  0.1845 -1.0220
   94MOL   C24133907   6.167   7.032   2.052 -0.9157  0.5931  0.2387
   94MOL   C24233908   6.239   6.964   1.940 -0.0427 -0.4901  0.2592
   94MOL   O24333909   6.366   7.028   1.910  0.3934  0.2118  0.0457
   94MOL   H24433910   5.874   6.842   2.246 -1.6969 -0.1593 -1.2916
   94MOL   H24533911   5.825   6.980   2.352 -0.3035  2.7217  0.1616
   94MOL   H24633912   6.020   7.057   2.300 -1.3751  1.3058 -0.4229
   94MOL   H24733913   5.950   7.119   2.172  1.1792  1.2042  0.4819
   94MOL   H24833914   5.999   6.909   2.020  0.1043 -0.0470 -1.0162
   94MOL   H24933915   6.105   6.859   2.155  0.2503  1.4909  0.9763
   94MOL   H25033916   6.235   7.058   2.133 -2.7368  1.1091  1.6429
   94MOL   H25133917   6.119   7.126   2.023 -0.7776  1.6917  3.3704
   94MOL   H25233918   6.241   6.859   1.970  1.1785  0.1198  2.3846
   94MOL   H25333919   6.196   6.993   1.844 -0.3728  3.0643  1.3976
   94MOL   C25433920   6.466   6.950   1.866  0.3087 -0.6673  0.6201
   94MOL   O25533921   6.464   6.831   1.854 -0.7429 -0.1116  0.3005
   94MOL   C25633922   6.577   7.035   1.800  0.2597  0.9451 -0.9821
   94MOL   C25733923   6.526   7.145   1.708 -0.2184 -0.0524  0.1115
   94MOL   C25833924   6.637   7.219   1.630  0.2360  0.1589  0.7682
   94MOL   C25933925   6.685   7.167   1.500 -0.3232 -0.4920  0.5286
   94MOL   C26033926   6.819   7.229   1.451  0.5657  0.0437  0.1748
   94MOL   O26133927   6.784   7.366   1.429  0.6199 -0.1750  0.7259
   94MOL   H26233928   6.649   6.976   1.744 -1.4505 -0.0020 -2.2270
   94MOL   H26333929   6.632   7.082   1.882 -2.4050  2.7711 -0.1652
   94MOL   H26433930   6.475   7.210   1.778 -0.3296 -0.1212  0.0959
   94MOL   H26533931   6.440   7.111   1.650 -0.4205  0.4716  0.1042
   94MOL   H26633932   6.718   7.222   1.702 -0.4390 -0.5933  1.5675
   94MOL   H26733933   6.609   7.324   1.620  1.6068  0.4881  0.2300
   94MOL   H26833934   6.601   7.192   1.436 -1.3902  0.9880  2.4604
   94MOL   H26933935   6.703   7.059   1.497  0.2778 -0.3758 -0.3346
   94MOL   H27033936   6.907   7.211   1.513 -0.0937 -0.5655  0.9404
   94MOL   H27133937   6.841   7.184   1.354 -0.6058  1.3687 -0.7202
   94MOL   C27233938   6.875   7.437   1.370 -0.7796 -0.4775 -0.5580
   94MOL   O27333939   6.987   7.397   1.338 -0.6446 -0.1409  0.3656
   94MOL   C27433940   6.823   7.574   1.318 -0.1646 -0.0435  0.0760
   94MOL   C27533941   6.808   7.677   1.430 -0.5404  0.6791 -0.7269
   94MOL   C27633942   6.724   7.642   1.554  0.1227  0.4741  0.5642
   94MOL   C27733943   6.704   7.757   1.656 -0.7261  0.6606  0.1636
   94MOL   C27833944   6.599   7.728   1.754 -0.1645 -0.5644  0.1459
   94MOL   O27933945   6.598   7.842   1.838  0.7036  0.6444  0.8810
   94MOL   H28033946   6.730   7.576   1.260 -0.3926  1.8631  0.4887
   94MOL   H28133947   6.901   7.622   1.259 -0.2136 -0.4218 -0.2985
   94MOL   H28233948   6.774   7.768   1.380  1.1967  1.5298 -0.3879
   94MOL   H28333949   6.911   7.692   1.461 -0.2569 -1.2847 -0.6528
   94MOL   H28433950   6.773   7.556   1.601  0.6514  1.3949  1.7403
   94MOL   H28533951   6.628   7.613   1.512  1.4886 -1.9551 -0.9862
   94MOL   H28633952   6.683   0.001   1.596  1.1338  1.6752  0.9534
   94MOL   H28733953   6.797   7.770   1.712 -1.2520 -0.9595  1.4526
   94MOL   H28833954   6.513   7.709   1.689  1.1315  1.6226 -2.3307
   94MOL   H28933955   6.619   7.648   1.825  0.5364 -0.2834  0.2682
   94MOL   C29033956   6.495   0.017   1.919 -0.4719  0.2104  0.0151
   94MOL   O29133957   6.397   7.794   1.912 -0.1617  0.4987  0.1104
   94MOL   C29233958   6.505   0.135   2.013  0.7296 -0.7869  0.3879
   94MOL   C29333959   6.373   0.171   2.089  0.5408  0.4966  0.9890
   94MOL   C29433960   6.389   0.304   2.171  0.2547 -0.3526  0.3372
   94MOL   C29533961   6.399   0.433   2.083  0.4102  0.1089  0.4850
   94MOL   C29633962   6.480   0.546   2.140 -0.3549 -0.4536 -0.1384
   94MOL   O29733963   6.617   0.512   2.145 -0.4221  0.3983  0.8109
   94MOL   H29833964   6.528   0.220   1.950  0.8691 -0.3553  1.0234
   94MOL   H29933965   6.580   0.117   2.090 -0.8461 -0.9399  1.9151
   94MOL   H30033966   6.340   0.090   2.155  1.4103 -1.7334 -1.2696
   94MOL   H30133967   6.295   0.187   2.015  0.1458 -1.0004  1.0603
   94MOL   H30233968   6.480   0.303   2.231  2.2003  2.6369 -2.3574
   94MOL   H30333969   6.314   0.313   2.250 -0.1944 -0.5841 -0.0651
   94MOL   H30433970   6.297   0.469   2.073  0.2340 -0.5787 -0.3140
   94MOL   H30533971   6.434   0.413   1.982 -1.4259 -1.2938  0.1020
   94MOL   H30633972   6.470   0.643   2.090 -0.3397 -0.2887  0.1815
   94MOL   H30733973   6.436   0.567   2.237 -0.0628  0.2979 -0.1686
   94MOL   C30833974   6.704   0.601   2.196  0.2603  0.8167  0.2132
   94MOL   O30933975   6.678   0.714   2.231 -0.1698  0.4089  0.1976
   94MOL   C31033976   6.854   0.557   2.220  0.2623  0.2726 -0.0765
   94MOL   C31133977   6.944   0.659   2.299  0.1111  0.1674 -0.1529
   94MOL   C31233978   7.094   0.630   2.272 -0.5587 -0.0600  0.0821
   94MOL   C31333979   7.152   0.494   2.304  1.0717 -0.2150  0.2196
   94MOL   C31433980   7.180   0.479   2.456 -1.0827  0.4708  0.2819
   94MOL   O31533981   7.066   0.491   2.527  1.0616  0.1072 -0.1560
   94MOL   H31633982   6.895   0.539   2.121  1.4431 -1.3847  0.6910
   94MOL   H31733983   6.837   0.458   2.263  1.2717  0.2763  0.3487
   94MOL   H31833984   6.908   0.657   2.402 -1.2838 -1.1720 -0.6538
   94MOL   H31933985   6.923   0.763   2.273  0.6435 -0.1745 -2.0627
   94MOL   H32033986   7.158   0.699   2.328 -1.6353  1.0550 -0.0288
   94MOL   H32133987   7.115   0.656   2.168  0.9808 -1.6724 -0.0182
   94MOL   H32233988   7.245   0.482   2.248  0.5766 -0.1785 -0.6095
   94MOL   H32333989   7.084   0.416   2.272  1.5529  0.2452 -1.9812
   94MOL   H32433990   7.228   0.382   2.471 -2.4908 -0.2365  0.3441
   94MOL   H32533991   7.248   0.553   2.497 -0.3099 -0.2088  0.2429
   94MOL   C32633992   6.993   0.386   2.575  0.2025 -0.0404  0.4004
   94MOL   O32733993   7.032   0.270   2.576 -0.5754  0.2739  0.7205
   94MOL   C32833994   6.856   0.424   2.623 -0.1894  0.1698 -0.2326
   94MOL   C32933995   6.839   0.565   2.694  0.4506 -0.2811  0.0969
   94MOL   C33033996   6.822   0.537   2.841 -0.4628 -0.5485 -0.5453
   94MOL   C33133997   6.790   0.679   2.907  0.1327 -0.3102  0.5158
   94MOL   C33233998   6.799   0.674   3.062 -0.2289 -0.1594 -0.1893
   94MOL   O33333999   6.926   0.628   3.108  0.8696  0.2431 -0.2276
   94MOL   H33434000   6.816   0.347   2.689  1.2773 -1.5161 -1.2794
   94MOL   H33534001   6.801   0.434   2.529 -1.7278 -1.6248  0.4598
   94MOL   H33634002   6.758   0.623   2.650  0.4933 -0.6815 -0.5177
   94MOL   H33734003   6.928   0.626   2.680  0.0628 -0.2064 -2.3649
   94MOL   H33834004   6.918   0.516   2.888 -0.2188  0.8309 -0.4032
   94MOL   H33934005   6.752   0.460   2.872 -0.6935 -0.5189 -0.9879
   94MOL   H34034006   6.691   0.711   2.875  0.4478 -1.2469 -1.4470
   94MOL   H34134007   6.862   0.755   2.878  0.9554  0.0601  3.3398
   94MOL   H34234008   6.782   0.771   3.107  0.4216 -0.4320  0.6539
   94MOL   H34334009   6.731   0.593   3.090  1.5769 -1.8460 -0.5941
   94MOL   C34434010   6.944   0.610   3.234 -0.3029 -0.3562  0.1358
   94MOL   O34534011   6.874   0.642   3.329 -0.6991 -0.0028  0.0569
   94MOL   C34634012   7.082   0.542   3.254  0.1342 -0.4544 -0.2374
   94MOL   C34734013   7.104   0.462   3.381 -0.1152  0.2377 -0.8283
   94MOL   C34834014   7.006   0.345   3.395  0.2032 -0.8790  0.0158
   94MOL   C34934015   6.997   0.280   3.535 -0.0115 -0.0909 -0.2217
   94MOL   C35034016   6.899   0.157   3.547  0.2561 -0.0994  0.1674
   94MOL   O35134017   6.951   0.042   3.494 -0.3534 -0.2014 -0.1771
   94MOL   H35234018   7.142   0.633   3.264  1.9778 -1.5462 -1.1895
   94MOL   H35334019   7.108   0.491   3.161  0.0025  0.7812 -0.9759
   94MOL   H35434020   7.099   0.517   3.475  1.7334  1.5916 -1.5079
   94MOL   H35534021   7.207   0.427   3.389 -0.8465 -1.5863  1.2606
   94MOL   H35634022   7.025   0.270   3.319 -0.7225 -0.5953 -0.5108
   94MOL   H35734023   6.904   0.376   3.370  0.9746  0.3736 -1.7147
   94MOL   H35834024   6.966   0.353   3.609  1.0198  0.9855 -0.8290
   94MOL   H35934025   7.099   0.250   3.562 -0.0191  0.5522  0.5436
   94MOL   H36034026   6.878   0.141   3.652 -1.3912 -1.3432 -0.3308
   94MOL   H36134027   6.802   0.166   3.498 -0.4845 -0.7993  1.4669
   94MOL   H36234028   6.882   7.822   3.500 -0.7330  0.2365  0.1767
   95MOL     C134029   2.279   3.349   1.169 -0.2745  0.4391  0.9992
   95MOL     O234030   2.293   3.459   1.127  0.4674  0.4310  0.0183
   95MOL     C334031   2.351   3.310   1.301  0.0203 -0.2374 -0.7350
   95MOL     C434032   2.503   3.294   1.295  0.5002 -0.1544  0.2565
   95MOL     C534033   2.558   3.221   1.412  0.3467  0.4167  0.4507
   95MOL     C634034   2.707   3.214   1.417 -0.5048  0.1622  0.7961
   95MOL     C734035   2.765   3.352   1.444 -0.1457 -0.2444  0.3549
   95MOL     O834036   2.723   3.382   1.579 -0.2498 -0.6607 -0.0790
   95MOL     H934037   2.314   3.212   1.330 -1.8016  1.2516  2.1472
   95MOL    H1034038   2.308   3.384   1.368  2.3424  0.5477 -0.1005
   95MOL    H1134039   2.534   3.398   1.292  3.0389 -0.8944  0.3313
   95MOL    H1234040   2.524   3.255   1.195 -3.7190 -0.0389 -0.7927
   95MOL    H1334041   2.511   3.123   1.417  0.0630  0.5896  1.4411
   95MOL    H1434042   2.516   3.253   1.508 -2.0697  1.4914 -0.9128
   95MOL    H1534043   2.738   3.181   1.318 -0.5641  3.0700 -0.2615
   95MOL    H1634044   2.743   3.135   1.483  0.5443  1.1004  1.3505
   95MOL    H1734045   2.874   3.346   1.438  0.0965  1.7436  2.0964
   95MOL    H1834046   2.732   3.419   1.365 -0.6022 -0.2409  0.5489
   95MOL    H1934047   2.210   3.278   1.123  1.9925 -0.6692 -0.8133
   95MOL    C2034048   2.757   3.504   1.634 -0.2566 -0.1048  0.1687
   95MOL    O2134049   2.829   3.588   1.580 -0.1482  0.0198 -0.5149
   95MOL    C2234050   2.702   3.523   1.765 -0.3959 -0.0309  0.2031
   95MOL    C2334051   2.804   3.557   1.876  0.2798  0.1323  0.1480
   95MOL    C2434052   2.885   3.679   1.861  0.0356 -0.5232  0.7108
   95MOL    C2534053   2.970   3.692   1.989  0.4654  0.4893 -0.8248
   95MOL    C2634054   3.033   3.832   2.012 -0.0133 -0.6958 -0.2002
   95MOL    O2734055   3.133   3.844   1.912  0.4694 -0.1823 -0.4174
   95MOL    H2834056   2.642   3.440   1.802 -0.1374 -0.3714 -0.1295
   95MOL    H2934057   2.646   3.614   1.747 -1.2819 -0.4649  0.7535
   95MOL    H3034058   2.869   3.469   1.877  0.1989  0.0597 -0.4935
   95MOL    H3134059   2.751   3.557   1.971  0.2954 -0.1460  0.1569
   95MOL    H3234060   2.824   3.764   1.830 -1.4708 -0.7883  2.8406
   95MOL    H3334061   2.958   3.660   1.782 -0.9518 -0.1800 -0.2897
   95MOL    H3434062   3.043   3.612   2.001  0.4114  0.7272  1.3349
   95MOL    H3534063   2.906   3.676   2.076  2.0956 -0.2213  0.2640
   95MOL    H3634064   2.955   3.907   2.002 -0.6168 -1.0655  1.5605
   95MOL    H3734065   3.073   3.839   2.114 -1.2416 -4.1315  0.5868
   95MOL    C3834066   3.188   3.968   1.892 -0.6077 -0.3179 -0.5889
   95MOL    O3934067   3.161   4.076   1.944 -0.1562  0.2456 -0.4203
   95MOL    C4034068   3.309   3.961   1.797  0.6470  1.1689 -0.0479
   95MOL    C4134069   3.440   3.922   1.870 -0.1034  0.3944  0.2707
   95MOL    C4234070   3.544   3.922   1.761  0.2337  0.0758  0.5742
   95MOL    C4334071   3.682   3.872   1.809 -0.3139 -0.2858  0.0782
   95MOL    C4434072   3.775   3.818   1.701  0.2024 -0.6200 -0.5986
   95MOL    O4534073   3.821   3.943   1.633 -0.5464 -0.0360 -0.0212
   95MOL    H4634074   3.309   4.058   1.747  0.0375  0.9987 -0.3845
   95MOL    H4734075   3.289   3.886   1.720 -2.7893  1.8867  0.0736
   95MOL    H4834076   3.429   3.835   1.934  3.1357 -0.0229  0.3858
   95MOL    H4934077   3.472   3.994   1.945 -0.3950  2.7490 -1.7973
   95MOL    H5034078   3.551   4.024   1.722 -0.7735 -0.7273 -1.7991
   95MOL    H5134079   3.501   3.861   1.681  0.5942  1.0101 -0.3508
   95MOL    H5234080   3.672   3.791   1.880  3.5628 -0.1390  0.8949
   95MOL    H5334081   3.730   3.950   1.867  0.4373 -0.8277  0.1885
   95MOL    H5434082   3.859   3.772   1.753 -2.5704 -3.1009  1.9075
   95MOL    H5534083   3.729   3.742   1.638 -1.0579  0.0729 -0.5388
   95MOL    C5634084   3.923   3.937   1.539 -0.1740 -0.0305  0.8520
   95MOL    O5734085   3.968   3.831   1.489 -0.3088 -0.2764  0.1838
   95MOL    C5834086   3.988   4.071   1.506  0.6415 -0.5868 -0.3805
   95MOL    C5934087   4.121   4.068   1.427  0.9507 -0.2732  0.0227
   95MOL    C6034088   4.242   4.021   1.504 -0.5315 -0.1016  0.3779
   95MOL    C6134089   4.374   4.067   1.441  0.1111 -0.4875 -0.1596
   95MOL    C6234090   4.400   4.217   1.411 -0.2352 -0.7828  0.6871
   95MOL    O6334091   4.537   4.230   1.384 -0.0003  0.1673 -0.0358
   95MOL    H6434092   4.014   4.130   1.593 -0.2033  2.3001 -2.0151
   95MOL    H6534093   3.912   4.125   1.450  1.5584 -2.3690 -3.5246
   95MOL    H6634094   4.142   4.164   1.380 -3.0029 -0.0413 -1.4316
   95MOL    H6734095   4.116   4.005   1.337  2.9312  1.6536 -1.5003
   95MOL    H6834096   4.237   3.912   1.503  3.4533 -0.3481 -0.5915
   95MOL    H6934097   4.241   4.048   1.609 -1.5505 -0.5396  0.4875
   95MOL    H7034098   4.376   4.012   1.346  0.9600 -1.1864  0.2550
   95MOL    H7134099   4.449   4.022   1.506 -1.1949 -2.6640 -0.0976
   95MOL    H7234100   4.339   4.243   1.325 -1.6862 -4.0211  0.6540
   95MOL    H7334101   4.368   4.272   1.500 -1.4659  0.0660 -0.2602
   95MOL    C7434102   4.570   4.328   1.296 -0.7497 -0.3589 -0.3933
   95MOL    O7534103   4.489   4.395   1.230 -0.1748 -0.3430  0.8399
   95MOL    C7634104   4.719   4.347   1.282  0.3758  0.4756 -0.1358
   95MOL    C7734105   4.771   4.425   1.162 -0.1685 -0.4563  0.2322
   95MOL    C7834106   4.767   4.349   1.028  0.2607 -0.0600 -0.4701
   95MOL    C7934107   4.826   4.429   0.914 -0.7612  0.4256 -0.0738
   95MOL    C8034108   4.872   4.345   0.789  0.1478  0.5676  0.4642
   95MOL    O8134109   4.755   4.285   0.732  0.2005  0.1474 -0.4322
   95MOL    H8234110   4.767   4.249   1.287 -0.2661  0.1119 -0.9180
   95MOL    H8334111   4.743   4.386   1.380  0.2633  0.7897 -0.2326
   95MOL    H8434112   4.875   4.450   1.184 -0.7854  2.2319  0.2801
   95MOL    H8534113   4.728   4.525   1.164 -1.1958 -0.9051  0.4388
   95MOL    H8634114   4.666   4.322   0.998  0.0266 -2.5703  2.3202
   95MOL    H8734115   4.825   4.260   1.056  0.6343  0.6435  1.0969
   95MOL    H8834116   4.919   4.478   0.942 -2.2907  2.6038  1.3244
   95MOL    H8934117   4.759   4.507   0.877 -2.2820  0.1378  1.9928
   95MOL    H9034118   4.931   4.406   0.721 -0.4722  0.7490  0.0882
   95MOL    H9134119   4.933   4.259   0.818  0.5946  0.7088 -0.0448
   95MOL    C9234120   4.737   4.282   0.596  0.0887  0.1967 -0.5140
   95MOL    O9334121   4.818   4.322   0.508  0.4238  0.3235  0.6651
   95MOL    C9434122   4.596   4.232   0.570  0.4791  0.2980  0.5953
   95MOL    C9534123   4.509   4.359   0.550  0.3038  0.2786  0.6426
   95MOL    C9634124   4.359   4.337   0.519  0.0650 -0.1407  1.0068
   95MOL    C9734125   4.285   4.472   0.497  0.1573  0.1630 -0.0139
   95MOL    C9834126   4.139   4.456   0.526  0.0482 -0.9713 -0.1897
   95MOL    O9934127   4.114   4.477   0.667 -0.1874 -0.8545 -0.4020
   95MOL   H10034128   4.550   4.166   0.644 -0.8205 -0.1613 -0.5835
   95MOL   H10134129   4.598   4.174   0.478  1.6074  0.2591  0.6361
   95MOL   H10234130   4.562   4.421   0.477  0.6393 -0.4923  0.2297
   95MOL   H10334131   4.512   4.413   0.645 -2.1406 -0.9482  1.4513
   95MOL   H10434132   4.309   4.289   0.603 -0.0576  1.5727  1.9531
   95MOL   H10534133   4.339   4.270   0.436 -1.6731  1.0127  0.4538
   95MOL   H10634134   4.313   4.506   0.397  2.2105  3.2755  1.5253
   95MOL   H10734135   4.324   4.547   0.566  1.4567  1.2065 -1.8225
   95MOL   H10834136   4.082   4.528   0.467 -0.3860 -0.2394  1.0872
   95MOL   H10934137   4.087   4.366   0.494 -1.3247 -1.0047  1.9845
   95MOL   C11034138   3.988   4.486   0.709  0.3685  0.3099  0.1501
   95MOL   O11134139   3.883   4.468   0.648 -0.0939 -0.3042 -0.0476
   95MOL   C11234140   3.984   4.525   0.864  0.0560  0.3298  0.1299
   95MOL   C11334141   3.955   4.399   0.951 -0.9888  0.1703  0.3581
   95MOL   C11434142   4.058   4.286   0.963 -0.3597  0.2446  0.0018
   95MOL   C11534143   4.014   4.163   1.040 -0.0588  0.2332  0.1912
   95MOL   C11634144   4.103   4.042   1.023  0.8716  0.5705 -1.0361
   95MOL   O11734145   4.236   4.086   1.046  0.4740 -0.0595  0.7182
   95MOL   H11834146   3.893   4.583   0.873 -0.3655  0.1008 -2.3178
   95MOL   H11934147   4.074   4.578   0.894  0.0578 -0.9345  2.4338
   95MOL   H12034148   3.872   4.350   0.902  0.1793  0.2126 -1.7220
   95MOL   H12134149   3.944   4.435   1.054  1.4832  2.5973 -0.1580
   95MOL   H12234150   4.145   4.332   1.011 -0.4901  0.3439  0.1419
   95MOL   H12334151   4.086   4.256   0.862 -2.6630  2.0268 -1.2115
   95MOL   H12434152   3.907   4.138   1.036  0.6127 -2.8612  0.3829
   95MOL   H12534153   4.022   4.196   1.144  0.5584 -2.3023  0.9822
   95MOL   H12634154   4.086   3.966   1.100  1.0072  0.8679 -0.7100
   95MOL   H12734155   4.094   3.993   0.926  1.4507 -0.2153 -0.6964
   95MOL   C12834156   4.331   4.065   0.954 -0.6092 -0.0087 -0.1022
   95MOL   O12934157   4.309   4.041   0.838 -0.6501  0.1103  0.2138
   95MOL   C13034158   4.474   4.076   1.011 -0.4703 -0.9029  0.0917
   95MOL   C13134159   4.582   4.022   0.915 -0.1783  0.4420 -1.1118
   95MOL   C13234160   4.706   3.974   0.990  0.4096 -0.5790  0.3978
   95MOL   C13334161   4.700   3.826   1.022 -0.4034  0.2272  0.2221
   95MOL   C13434162   4.838   3.772   1.056  0.3789  0.1589 -1.1949
   95MOL   O13534163   4.838   3.643   1.120  0.5302  0.2940  0.2290
   95MOL   H13634164   4.479   4.023   1.106 -1.1551  1.6955  1.6342
   95MOL   H13734165   4.495   4.181   1.031 -1.2362 -1.1281  2.2509
   95MOL   H13834166   4.602   4.100   0.842 -1.6554  1.3538 -0.5519
   95MOL   H13934167   4.542   3.934   0.865 -2.0087 -0.0881  1.1905
   95MOL   H14034168   4.720   4.035   1.079 -2.5758 -0.5012  0.8660
   95MOL   H14134169   4.790   3.989   0.922 -0.9869 -0.9093 -1.4343
   95MOL   H14234170   4.662   3.772   0.935  1.4098  0.3081 -0.6451
   95MOL   H14334171   4.630   3.807   1.103  0.1360  0.7646  0.8150
   95MOL   H14434172   4.895   3.763   0.963 -0.3400  0.0076 -1.6245
   95MOL   H14534173   4.894   3.847   1.111  0.2770  0.2490 -1.2153
   95MOL   C14634174   4.861   3.530   1.061  0.2359 -0.0046 -0.6528
   95MOL   O14734175   4.871   3.522   0.939  0.8468 -0.0234 -0.5846
   95MOL   C14834176   4.861   3.401   1.143  0.3293  0.2662  0.2882
   95MOL   C14934177   4.954   3.404   1.262 -0.0692  0.5269  0.2081
   95MOL   C15034178   5.102   3.410   1.220 -0.5728 -0.7178 -0.1627
   95MOL   C15134179   5.195   3.399   1.338  0.0662  0.9608 -0.1834
   95MOL   C15234180   5.203   3.528   1.412 -0.2314 -0.7897 -0.5079
   95MOL   O15334181   5.316   3.520   1.500  0.1848 -0.0990  0.4334
   95MOL   H15434182   4.886   3.322   1.072 -2.0131  0.1414 -0.4745
   95MOL   H15534183   4.756   3.393   1.173  0.6954 -0.1256  1.5164
   95MOL   H15634184   4.936   3.313   1.320 -2.4507 -0.6026 -2.2213
   95MOL   H15734185   4.922   3.484   1.329  0.7620  1.6534 -0.7198
   95MOL   H15834186   5.119   3.509   1.177  1.9278 -1.8741 -1.9385
   95MOL   H15934187   5.127   3.331   1.149  3.0923 -2.6835  3.1180
   95MOL   H16034188   5.300   3.376   1.319  0.1111  0.3182  0.8136
   95MOL   H16134189   5.146   3.318   1.392 -1.6579  1.6009 -0.7470
   95MOL   H16234190   5.200   3.602   1.332 -1.7469  1.3991  1.4571
   95MOL   H16334191   5.115   3.544   1.476 -0.2608 -0.4767 -0.6258
   95MOL   C16434192   5.379   3.631   1.541  0.1817 -0.0411 -0.6538
   95MOL   O16534193   5.337   3.746   1.528 -0.2316  0.5236  0.3187
   95MOL   C16634194   5.517   3.616   1.603  0.9178  0.4837 -0.2539
   95MOL   C16734195   5.506   3.540   1.740  0.1498 -0.1034 -0.1678
   95MOL   C16834196   5.476   3.633   1.859  0.7926  0.0477 -0.7023
   95MOL   C16934197   5.421   3.571   1.984 -0.5697 -0.2149 -0.2756
   95MOL   C17034198   5.375   3.654   2.099 -0.1393 -0.3186 -0.2355
   95MOL   O17134199   5.477   3.755   2.124  0.4638  0.1799 -0.1757
   95MOL   H17234200   5.581   3.703   1.608  2.6351 -0.9204  3.1370
   95MOL   H17334201   5.570   3.557   1.528 -0.0393  0.6347 -1.0719
   95MOL   H17434202   5.603   3.493   1.759  0.3464  0.1199 -0.6084
   95MOL   H17534203   5.431   3.461   1.740 -0.8836  0.8082  3.3059
   95MOL   H17634204   5.389   3.693   1.830  1.8893  1.2487 -1.5785
   95MOL   H17734205   5.551   3.710   1.879 -0.9226  1.0928  2.0691
   95MOL   H17834206   5.493   3.496   2.016  0.4740  0.5167 -0.8857
   95MOL   H17934207   5.329   3.519   1.955 -0.9046  0.8890 -1.2302
   95MOL   H18034208   5.281   3.708   2.088  0.9177  2.1689  2.1289
   95MOL   H18134209   5.351   3.597   2.189  0.4947  0.6966  0.5984
   95MOL   C18234210   5.524   3.784   2.246 -0.2829 -0.2070  0.5243
   95MOL   O18334211   5.504   3.714   2.347 -0.7255  0.3438  0.1625
   95MOL   C18434212   5.604   3.913   2.249  0.0379  0.2771  0.0453
   95MOL   C18534213   5.507   4.022   2.272 -0.8418  0.2390  0.8084
   95MOL   C18634214   5.563   4.159   2.236 -0.1514  0.1345 -0.3293
   95MOL   C18734215   5.473   4.281   2.285 -0.2408  0.3799 -0.5673
   95MOL   C18834216   5.535   4.420   2.258  0.1984 -0.5791  0.3901
   95MOL   O18934217   5.561   4.440   2.114 -0.4736  0.5319 -0.3195
   95MOL   H19034218   5.639   3.929   2.148  1.0803  1.7722  0.6225
   95MOL   H19134219   5.674   3.905   2.332 -1.2325 -0.2908  1.0976
   95MOL   H19234220   5.472   4.021   2.375 -1.5527 -1.3678  0.5583
   95MOL   H19334221   5.420   4.000   2.210  0.5833 -1.4925 -0.6022
   95MOL   H19434222   5.588   4.155   2.130 -0.3437  0.0590 -0.3716
   95MOL   H19534223   5.653   4.166   2.297 -1.5659  1.2099  1.7034
   95MOL   H19634224   5.473   4.270   2.393  3.2118 -1.0982 -0.6387
   95MOL   H19734225   5.371   4.271   2.248  0.5613 -2.4825 -2.1975
   95MOL   H19834226   5.472   4.501   2.294  0.7412  0.9352 -1.9228
   95MOL   H19934227   5.626   4.429   2.317  1.4437  0.0608 -1.5544
   95MOL   C20034228   5.458   4.499   2.036 -0.4555 -0.0886 -0.2946
   95MOL   O20134229   5.354   4.545   2.076  0.1418 -0.0539  0.0094
   95MOL   C20234230   5.475   4.485   1.886  0.8478  0.0441  0.7657
   95MOL   C20334231   5.561   4.365   1.842 -1.0134  0.5226 -0.5469
   95MOL   C20434232   5.494   4.233   1.870 -0.5326 -0.4050  0.3600
   95MOL   C20534233   5.590   4.117   1.826  0.3776  0.1731 -0.3076
   95MOL   C20634234   5.531   3.978   1.872  1.1263  0.0788  0.3552
   95MOL   O20734235   5.415   3.936   1.806 -0.0389 -0.0594  0.0936
   95MOL   H20834236   5.511   4.580   1.846  0.5444 -0.3173 -0.3625
   95MOL   H20934237   5.372   4.476   1.853 -0.2520  0.8506  3.7664
   95MOL   H21034238   5.654   4.368   1.898 -1.8042  0.1901  0.7982
   95MOL   H21134239   5.577   4.380   1.735  1.3588  0.5956 -0.1894
   95MOL   H21234240   5.393   4.223   1.831 -0.6289  2.3555 -0.1634
   95MOL   H21334241   5.472   4.224   1.976  0.4424  1.4534  0.7453
   95MOL   H21434242   5.684   4.123   1.881  0.4708 -1.9326 -0.2122
   95MOL   H21534243   5.615   4.115   1.720  0.2377 -0.4867 -0.3258
   95MOL   H21634244   5.616   3.911   1.853  0.9194  0.1168 -0.7206
   95MOL   H21734245   5.515   3.994   1.979 -0.2189  1.3120 -0.0245
   95MOL   C21834246   5.296   3.961   1.865  0.2502  0.1055 -0.5320
   95MOL   O21934247   5.281   4.001   1.980  0.1617 -0.3400  0.2104
   95MOL   C22034248   5.174   3.913   1.786  0.1892 -0.4141  0.2655
   95MOL   C22134249   5.114   3.783   1.853  0.1329  0.1764  0.0678
   95MOL   C22234250   4.969   3.789   1.894 -0.0510  0.2378 -0.5477
   95MOL   C22334251   4.933   3.851   2.026  0.0925 -0.3681 -0.0491
   95MOL   C22434252   4.785   3.818   2.071  0.2818  0.0244 -0.3972
   95MOL   O22534253   4.745   3.873   2.195  0.1528  0.1638 -0.1956
   95MOL   H22634254   5.213   3.895   1.686  1.7520 -1.0664  0.9777
   95MOL   H22734255   5.097   3.989   1.777 -1.2617 -1.8910 -0.1587
   95MOL   H22834256   5.179   3.763   1.938  0.5764 -0.7939 -0.4996
   95MOL   H22934257   5.133   3.704   1.781 -1.3992 -0.4623  0.3369
   95MOL   H23034258   4.926   3.689   1.901  0.7913 -0.1895 -1.3317
   95MOL   H23134259   4.907   3.833   1.816 -2.2562 -0.6595  0.6408
   95MOL   H23234260   4.936   3.960   2.018 -0.9136 -0.2773  0.6695
   95MOL   H23334261   5.004   3.816   2.100 -1.6745  0.1831  1.9863
   95MOL   H23434262   4.723   3.854   1.988 -1.5183 -0.1837  0.8293
   95MOL   H23534263   4.778   3.709   2.071  3.4084 -0.2444  2.0726
   95MOL   C23634264   4.665   3.977   2.194  0.2331  0.7731 -0.4113
   95MOL   O23734265   4.634   4.044   2.100  0.3302  0.0079 -0.5667
   95MOL   C23834266   4.620   4.017   2.336  1.3099  0.2664 -0.3234
   95MOL   C23934267   4.486   3.960   2.378  0.6672  0.2181  0.0516
   95MOL   C24034268   4.362   4.003   2.297  0.4895 -0.2280 -0.1110
   95MOL   C24134269   4.288   4.127   2.354  0.3164 -0.3985  0.0618
   95MOL   C24234270   4.153   4.157   2.292 -0.2421 -0.1902 -0.0258
   95MOL   O24334271   4.165   4.135   2.149  0.2126  0.1398 -0.3382
   95MOL   H24434272   4.610   4.125   2.351 -2.1407  0.3627 -2.7220
   95MOL   H24534273   4.696   3.974   2.401  0.7098  1.0700  0.9433
   95MOL   H24634274   4.463   3.990   2.480  1.5790  3.6261 -0.6793
   95MOL   H24734275   4.505   3.853   2.371  0.9324  0.2884 -0.3253
   95MOL   H24834276   4.292   3.921   2.310  0.6742  0.1430  3.5278
   95MOL   H24934277   4.384   4.006   2.190 -1.4897 -1.1651 -0.5623
   95MOL   H25034278   4.350   4.214   2.329 -0.9425  0.2977 -0.7146
   95MOL   H25134279   4.289   4.132   2.462 -2.2876  0.4921  0.0746
   95MOL   H25234280   4.073   4.098   2.336 -0.6454 -0.2796 -0.8667
   95MOL   H25334281   4.130   4.264   2.291 -1.5461 -0.4606  0.4373
   95MOL   C25434282   4.055   4.153   2.072 -0.6092 -0.2175  0.2238
   95MOL   O25534283   3.951   4.201   2.119  0.8276 -0.5535  0.4674
   95MOL   C25634284   4.072   4.108   1.926 -0.4523 -0.2090  0.4561
   95MOL   C25734285   4.055   3.960   1.913  0.7703 -0.0740 -0.1655
   95MOL   C25834286   4.174   3.874   1.961  0.0342 -0.4571 -0.4767
   95MOL   C25934287   4.305   3.916   1.897  0.2996  0.5264  0.1680
   95MOL   C26034288   4.425   3.816   1.934 -0.6544  0.3129 -0.6798
   95MOL   O26134289   4.451   3.770   2.066  0.1244 -0.5626 -0.6437
   95MOL   H26234290   4.175   4.132   1.897 -1.3053  1.2615 -1.4978
   95MOL   H26334291   4.002   4.167   1.867  2.0531  1.3751 -1.0590
   95MOL   H26434292   4.034   3.937   1.808  2.4221  0.7339 -0.7040
   95MOL   H26534293   3.963   3.929   1.962 -0.1982  1.2777 -1.1085
   95MOL   H26634294   4.158   3.769   1.934  0.6467 -0.7794  0.4011
   95MOL   H26734295   4.185   3.882   2.069 -0.8188 -2.0885 -0.2385
   95MOL   H26834296   4.345   4.008   1.940  2.0607 -0.0538 -0.1705
   95MOL   H26934297   4.285   3.914   1.790  1.2001  0.5112 -0.0034
   95MOL   H27034298   4.416   3.728   1.871 -0.3491 -0.5038  0.3876
   95MOL   H27134299   4.525   3.853   1.910 -1.1981  1.3063 -1.4689
   95MOL   C27234300   4.393   3.655   2.102  0.6449 -0.1845 -0.6105
   95MOL   O27334301   4.305   3.593   2.037  0.4560 -0.5192  0.4085
   95MOL   C27434302   4.440   3.623   2.245  0.2422 -0.5467  0.1951
   95MOL   C27534303   4.378   3.499   2.304  0.1115  0.2807 -0.0100
   95MOL   C27634304   4.447   3.457   2.441 -0.0776  0.7769 -0.0654
   95MOL   C27734305   4.371   3.331   2.485 -0.4441  0.2713 -0.9257
   95MOL   C27834306   4.423   3.270   2.621  0.8572  0.5191  0.1237
   95MOL   O27934307   4.332   3.166   2.662  0.1165 -0.1842 -0.5979
   95MOL   H28034308   4.397   3.702   2.306 -2.5831 -2.7165  1.1381
   95MOL   H28134309   4.548   3.631   2.255  0.5969 -4.5836  0.2651
   95MOL   H28234310   4.382   3.414   2.236 -0.2168 -0.4191  0.8491
   95MOL   H28334311   4.273   3.524   2.320  0.8202  2.8890  0.8731
   95MOL   H28434312   4.433   3.541   2.508 -0.7375 -0.0428  0.8465
   95MOL   H28534313   4.555   3.452   2.429 -0.0845  0.5827 -0.0507
   95MOL   H28634314   4.356   3.266   2.399  2.6196 -1.5725 -0.1392
   95MOL   H28734315   4.269   3.362   2.505 -0.2570  0.8545 -0.8757
   95MOL   H28834316   4.516   3.217   2.600  0.4372 -0.3655  0.4703
   95MOL   H28934317   4.422   3.346   2.698  0.6737 -1.1565  1.7987
   95MOL   C29034318   4.374   3.094   2.763 -0.5381 -0.4991  0.0600
   95MOL   O29134319   4.472   3.116   2.838 -0.5312  0.0096 -0.2502
   95MOL   C29234320   4.293   2.970   2.777 -1.0060  1.1236 -0.4802
   95MOL   C29334321   4.142   2.994   2.784  0.5305  0.1365  0.1187
   95MOL   C29434322   4.074   3.021   2.648  0.0620  0.7081  0.0658
   95MOL   C29534323   3.929   2.974   2.643 -0.4898 -0.4057  0.1748
   95MOL   C29634324   3.839   3.023   2.527 -0.1485 -0.2987 -0.3157
   95MOL   O29734325   3.709   3.002   2.566  0.1855 -0.2610 -0.5544
   95MOL   H29834326   4.325   2.913   2.864 -0.2235  0.0298 -1.4567
   95MOL   H29934327   4.311   2.914   2.685 -2.2000  1.4890 -0.9446
   95MOL   H30034328   4.118   3.076   2.851 -0.4402  0.0572 -0.1302
   95MOL   H30134329   4.110   2.897   2.822  2.2442 -0.5373 -0.1276
   95MOL   H30234330   4.129   2.962   2.575 -1.1579  1.8917 -1.8480
   95MOL   H30334331   4.083   3.124   2.613 -1.3852  0.1812 -1.9609
   95MOL   H30434332   3.884   3.019   2.731 -0.5759  2.0482 -1.0896
   95MOL   H30534333   3.911   2.867   2.652 -1.1211 -0.2600  0.6423
   95MOL   H30634334   3.861   3.128   2.507  1.9338 -1.4270 -4.4832
   95MOL   H30734335   3.852   2.970   2.433 -0.3413 -0.8219 -0.0493
   95MOL   C30834336   3.612   3.082   2.515  0.3223 -0.2341 -0.2610
   95MOL   O30934337   3.628   3.188   2.455  0.2498  0.1785 -0.1278
   95MOL   C31034338   3.471   3.029   2.530  0.5446 -0.4882  0.2185
   95MOL   C31134339   3.430   2.961   2.665  0.5321 -0.3286 -0.7119
   95MOL   C31234340   3.417   3.052   2.788 -0.1726  0.2705 -0.8744
   95MOL   C31334341   3.367   2.972   2.909 -0.0170  0.5115 -0.6253
   95MOL   C31434342   3.335   3.065   3.029 -0.1572 -0.2634  0.0073
   95MOL   O31534343   3.225   3.153   2.998 -0.1734  0.3020  0.1579
   95MOL   H31634344   3.463   2.956   2.450  0.3991 -0.5435  0.2846
   95MOL   H31734345   3.403   3.112   2.513  1.2849 -0.3110 -2.1159
   95MOL   H31834346   3.508   2.888   2.684  0.3241 -0.5871 -0.8609
   95MOL   H31934347   3.332   2.919   2.642 -0.1340  0.7976  0.0027
   95MOL   H32034348   3.350   3.138   2.780  0.6303  1.1199  1.1422
   95MOL   H32134349   3.514   3.099   2.805  0.2778 -0.1438 -2.2599
   95MOL   H32234350   3.438   2.893   2.932 -0.1531  1.4629  3.3921
   95MOL   H32334351   3.276   2.916   2.888  1.0368 -0.9334 -1.4651
   95MOL   H32434352   3.311   3.007   3.118  0.8298  0.2347  0.6009
   95MOL   H32534353   3.416   3.129   3.063  0.5918 -1.8867  1.3658
   95MOL   C32634354   3.104   3.122   3.034  0.1408 -0.3675  0.4665
   95MOL   O32734355   3.071   3.027   3.099  0.0343  0.3871 -0.4809
   95MOL   C32834356   3.002   3.235   3.005 -0.0827 -0.1306 -0.2016
   95MOL   C32934357   2.989   3.262   2.863  0.1930 -0.3378  0.7254
   95MOL   C33034358   3.089   3.364   2.811 -0.8637 -0.5883 -0.3497
   95MOL   C33134359   3.110   3.365   2.651 -0.5235 -0.9104  0.3594
   95MOL   C33234360   3.238   3.436   2.595  0.1893 -0.1368 -0.1751
   95MOL   O33334361   3.271   3.370   2.469  0.5106 -0.4137 -0.1480
   95MOL   H33434362   3.024   3.329   3.056 -0.5899  0.5440 -1.1878
   95MOL   H33534363   2.906   3.204   3.047 -0.1000 -1.0760 -0.9257
   95MOL   H33634364   2.890   3.305   2.852  0.2543 -0.5826 -0.9090
   95MOL   H33734365   2.982   3.170   2.805  1.2092 -0.9589  1.5621
   95MOL   H33834366   3.186   3.364   2.860 -0.8391 -1.1160 -0.3908
   95MOL   H33934367   3.041   3.457   2.843  0.1885 -0.3778  0.6215
   95MOL   H34034368   3.027   3.412   2.599  1.5133  0.0132 -2.1974
   95MOL   H34134369   3.110   3.266   2.605 -1.5947 -0.9194  0.3871
   95MOL   H34234370   3.222   3.543   2.580  1.8499 -0.1146 -1.9531
   95MOL   H34334371   3.320   3.413   2.663 -0.5053 -0.8030  0.4499
   95MOL   C34434372   3.218   3.419   2.354 -0.4359  0.2084  0.2128
   95MOL   O34534373   3.146   3.521   2.354  0.2465  0.5144 -0.2252
   95MOL   C34634374   3.259   3.360   2.222  0.2819  0.5822 -0.3650
   95MOL   C34734375   3.287   3.206   2.222  0.1399 -0.3511 -0.1550
   95MOL   C34834376   3.362   3.161   2.096 -0.7609 -0.1697 -0.2568
   95MOL   C34934377   3.444   3.037   2.119  0.4481  0.4678  0.6070
   95MOL   C35034378   3.503   2.995   1.979  0.2652 -0.6305  0.2332
   95MOL   O35134379   3.540   2.857   1.982  0.3443  0.5869 -0.1698
   95MOL   H35234380   3.346   3.411   2.181 -0.1519  0.9489 -0.8363
   95MOL   H35334381   3.181   3.369   2.146  0.6141 -0.4448 -0.8450
   95MOL   H35434382   3.203   3.141   2.250  1.4797 -2.3743 -0.7572
   95MOL   H35534383   3.356   3.192   2.305  1.1379  1.4997 -0.6601
   95MOL   H35634384   3.414   3.248   2.055  1.5558 -0.2608  2.3516
   95MOL   H35734385   3.288   3.145   2.018  1.5549  0.4141 -2.6169
   95MOL   H35834386   3.394   2.953   2.167 -0.9834  1.3732  0.7401
   95MOL   H35934387   3.525   3.067   2.185  1.0420  3.2421 -1.2819
   95MOL   H36034388   3.442   3.029   1.895  0.6989 -2.8622 -1.0447
   95MOL   H36134389   3.591   3.053   1.954 -2.0892  2.3445 -1.4799
   95MOL   H36234390   3.619   2.847   1.931 -0.1838 -1.0487 -0.7090
   96MOL     C134391   3.850   6.326   5.749 -0.1955  0.2454 -0.7288
   96MOL     O234392   3.824   6.444   5.767  0.1219  0.2950 -0.3597
   96MOL     C334393   3.836   6.259   5.613 -0.4168 -0.3931  0.1979
   96MOL     C434394   3.825   6.349   5.488 -0.5405 -0.2409 -0.0899
   96MOL     C534395   3.781   6.279   5.360 -0.1955 -0.7425  0.4631
   96MOL     C634396   3.787   6.372   5.232 -0.4877 -0.1528  0.5903
   96MOL     C734397   3.735   6.298   5.106  0.6385 -0.2129 -0.3556
   96MOL     O834398   3.611   6.233   5.136  0.2489  0.7562  0.1664
   96MOL     H934399   3.749   6.194   5.619 -1.6657  1.4249  2.2758
   96MOL    H1034400   3.924   6.193   5.613 -0.2349 -0.1483  0.4793
   96MOL    H1134401   3.925   6.388   5.468 -1.0302  1.6266  1.0291
   96MOL    H1234402   3.762   6.436   5.504  0.4914  0.3382  0.8430
   96MOL    H1334403   3.676   6.250   5.363 -0.5562  0.0393 -2.8952
   96MOL    H1434404   3.838   6.191   5.328 -1.0933 -0.8097 -1.0092
   96MOL    H1534405   3.893   6.389   5.211 -0.4337 -1.0217  0.1076
   96MOL    H1634406   3.741   6.469   5.249 -1.8075 -0.6494 -0.0667
   96MOL    H1734407   3.707   6.365   5.025 -1.0215 -0.0766  0.3231
   96MOL    H1834408   3.811   6.232   5.062  1.3556  0.3226  0.0673
   96MOL    H1934409   3.887   6.269   5.834  1.5887 -0.5548 -2.0043
   96MOL    C2034410   3.588   6.105   5.100  0.2578  0.4574 -0.1299
   96MOL    O2134411   3.663   6.032   5.034  0.0776  0.5745 -0.0478
   96MOL    C2234412   3.457   6.053   5.156 -0.0877 -0.1465  0.2464
   96MOL    C2334413   3.482   5.931   5.240 -0.6774 -0.1447  0.4657
   96MOL    C2434414   3.362   5.870   5.302  0.4619 -0.7229 -0.0423
   96MOL    C2534415   3.388   5.735   5.368  0.3224 -0.2576 -0.5599
   96MOL    C2634416   3.259   5.651   5.386 -0.0803 -0.4459  0.0212
   96MOL    O2734417   3.173   5.715   5.475 -0.7034  0.3608 -0.3096
   96MOL    H2834418   3.394   6.025   5.072  0.9097  0.7759 -0.8308
   96MOL    H2934419   3.394   6.129   5.201  0.4585 -0.7592  2.0735
   96MOL    H3034420   3.551   5.945   5.324  0.5877  1.9700 -0.8901
   96MOL    H3134421   3.520   5.851   5.177 -2.5802 -0.7142  0.0323
   96MOL    H3234422   3.303   5.852   5.212 -1.8312 -1.2792  1.5560
   96MOL    H3334423   3.310   5.943   5.364  0.1988 -0.6538 -0.3451
   96MOL    H3434424   3.444   5.747   5.461 -1.4637  0.1508  0.4804
   96MOL    H3534425   3.445   5.670   5.302  0.4652 -2.2851  1.5089
   96MOL    H3634426   3.209   5.665   5.290  1.3677  2.0121 -0.4353
   96MOL    H3734427   3.276   5.549   5.418 -0.7877  0.0667  2.0621
   96MOL    C3834428   3.044   5.687   5.492 -0.4882 -0.6586 -0.9023
   96MOL    O3934429   2.965   5.620   5.423 -0.4024  0.3883  0.3389
   96MOL    C4034430   2.991   5.757   5.619 -0.0397 -0.3033  0.7652
   96MOL    C4134431   2.924   5.896   5.593 -0.6206  0.5085 -0.8284
   96MOL    C4234432   2.799   5.900   5.502  0.5478  0.1353 -0.0809
   96MOL    C4334433   2.753   6.045   5.496 -0.0793  0.3729 -0.0696
   96MOL    C4434434   2.658   6.079   5.382  0.4211 -0.2004 -0.3037
   96MOL    O4534435   2.605   6.207   5.401 -0.0129  0.5837  0.1704
   96MOL    H4634436   3.061   5.771   5.701  0.2579 -0.4198  0.5330
   96MOL    H4734437   2.924   5.693   5.677  2.4645 -1.6431  2.2638
   96MOL    H4834438   3.003   5.947   5.539 -0.3447 -0.2111 -1.1118
   96MOL    H4934439   2.916   5.959   5.681 -0.5295  0.9087 -1.1057
   96MOL    H5034440   2.709   5.845   5.530 -0.0998  1.4289  0.4132
   96MOL    H5134441   2.828   5.868   5.402 -0.3854  0.7363 -0.5504
   96MOL    H5234442   2.843   6.106   5.491 -0.6882  1.4572  1.7938
   96MOL    H5334443   2.703   6.063   5.591  0.3905 -0.5178  0.3536
   96MOL    H5434444   2.716   6.076   5.290  0.5162 -0.9050 -0.2238
   96MOL    H5534445   2.592   5.993   5.364  0.2975  0.2414 -2.0195
   96MOL    C5634446   2.498   6.215   5.478 -0.3386 -0.2580  0.1902
   96MOL    O5734447   2.424   6.121   5.519  0.2104  0.0411 -0.8441
   96MOL    C5834448   2.460   6.362   5.501 -0.6081 -1.1480  0.1394
   96MOL    C5934449   2.427   6.445   5.371 -0.2091  0.2999  0.1070
   96MOL    C6034450   2.293   6.413   5.298 -0.3133 -0.3208 -0.2780
   96MOL    C6134451   2.171   6.483   5.368 -0.0334 -0.1095 -0.4060
   96MOL    C6234452   2.163   6.628   5.339  0.0143 -0.0972 -0.1777
   96MOL    O6334453   2.050   6.672   5.409  0.3854  0.5639 -0.7408
   96MOL    H6434454   2.546   6.414   5.545 -1.3231 -2.2485  2.9362
   96MOL    H6534455   2.382   6.374   5.576 -2.7738  1.6212 -2.4245
   96MOL    H6634456   2.515   6.446   5.307  2.3537 -0.7425  3.4325
   96MOL    H6734457   2.425   6.548   5.408  0.9054  0.4143 -0.1382
   96MOL    H6834458   2.276   6.306   5.289  2.2568 -0.7049 -0.9796
   96MOL    H6934459   2.306   6.454   5.198  1.5268  2.2083  0.9290
   96MOL    H7034460   2.157   6.461   5.474 -2.6003  0.0582 -0.6750
   96MOL    H7134461   2.088   6.436   5.315 -0.3662 -0.2385  0.2294
   96MOL    H7234462   2.254   6.681   5.366  0.6908 -1.4563  0.2453
   96MOL    H7334463   2.142   6.642   5.233 -1.1782 -0.5303 -0.0025
   96MOL    C7434464   2.034   6.800   5.440  0.7608 -0.4374  0.3797
   96MOL    O7534465   2.105   6.890   5.395  0.0545 -0.5380  0.0425
   96MOL    C7634466   1.916   6.811   5.528 -0.8903  0.4587  0.2225
   96MOL    C7734467   1.933   6.735   5.660  0.2736  0.4525  0.7891
   96MOL    C7834468   1.847   6.800   5.770 -0.2098  0.3874  0.6413
   96MOL    C7934469   1.868   6.736   5.908  0.6065 -0.3708 -0.3961
   96MOL    C8034470   1.780   6.786   6.027 -0.2589 -0.8430  0.1701
   96MOL    O8134471   1.763   6.928   6.018 -0.1942 -0.0405  0.4486
   96MOL    H8234472   1.822   6.791   5.475 -1.7435  2.0689  1.0918
   96MOL    H8334473   1.905   6.913   5.563  1.1411  0.6644  0.3022
   96MOL    H8434474   2.038   6.751   5.686  0.3391  1.1497  0.1216
   96MOL    H8534475   1.907   6.630   5.648 -0.9625  0.7469  0.8735
   96MOL    H8634476   1.744   6.790   5.735  0.3388  0.2103 -0.9752
   96MOL    H8734477   1.865   6.907   5.779 -2.0165  0.5774  2.3823
   96MOL    H8834478   1.969   6.766   5.937  1.6085 -0.9221 -3.2428
   96MOL    H8934479   1.862   6.628   5.893  1.3101 -0.3755 -0.6456
   96MOL    H9034480   1.678   6.750   6.027 -0.9270  0.9897  0.4476
   96MOL    H9134481   1.814   6.750   6.124 -0.9085 -0.3499  0.5842
   96MOL    C9234482   1.838   7.009   6.085 -0.0668  0.2747 -0.0242
   96MOL    O9334483   1.920   6.977   6.169  0.1166  0.2210 -0.0924
   96MOL    C9434484   1.808   7.153   6.049 -0.3453  0.2750  0.6280
   96MOL    C9534485   1.925   7.235   6.002 -0.3610  0.4060  0.0118
   96MOL    C9634486   2.000   7.319   6.104  0.4670  0.2897  0.6224
   96MOL    C9734487   1.931   7.433   6.173 -0.0587  0.2443 -0.1952
   96MOL    C9834488   2.002   7.457   6.307 -0.2590  0.3420 -0.0693
   96MOL    O9934489   1.984   7.595   6.330 -0.4526 -0.3204  0.1940
   96MOL   H10034490   1.770   7.204   6.137 -0.0734 -0.0126  0.9130
   96MOL   H10134491   1.722   7.151   5.981 -0.2365  2.2023  0.3977
   96MOL   H10234492   1.901   7.307   5.924 -0.6610  0.7888  0.4471
   96MOL   H10334493   1.996   7.168   5.955 -1.9308 -2.4133  1.4772
   96MOL   H10434494   2.100   7.347   6.071  0.1921 -0.3756 -0.8291
   96MOL   H10534495   2.024   7.253   6.188  1.3544 -0.0968  0.0671
   96MOL   H10634496   1.825   7.413   6.186 -0.1613 -1.3267 -3.0287
   96MOL   H10734497   1.942   7.524   6.113  1.3338 -0.7109 -1.4377
   96MOL   H10834498   1.950   7.402   6.386  1.3238  1.5168  1.8272
   96MOL   H10934499   2.106   7.426   6.303 -0.4958 -0.7995  1.7808
   96MOL   C11034500   2.044   7.663   6.426 -0.7782  0.6061 -0.4877
   96MOL   O11134501   2.134   7.618   6.500 -0.6362 -0.0211 -0.2135
   96MOL   C11234502   1.992   7.808   6.448 -0.1723 -0.1817 -0.3545
   96MOL   C11334503   1.859   7.811   6.521 -0.5191 -0.8445  0.3639
   96MOL   C11434504   1.864   7.808   6.674 -0.3413 -0.1399 -0.0085
   96MOL   C11534505   1.738   7.836   6.741  0.2572  0.7418  0.1940
   96MOL   C11634506   1.763   7.842   6.889 -0.0972  0.1185  0.0953
   96MOL   O11734507   1.636   0.024   6.936 -0.0513  0.6179  0.1841
   96MOL   H11834508   1.969   0.014   6.354 -0.5847  1.0460  0.3991
   96MOL   H11934509   2.061   0.039   6.486 -0.5391 -0.5384  1.0504
   96MOL   H12034510   1.791   7.737   6.479  1.3488 -3.0244  1.1279
   96MOL   H12134511   1.808   0.054   6.478  1.6928 -0.3021 -1.2328
   96MOL   H12234512   1.927   0.052   6.684 -0.4523 -0.0535 -0.0604
   96MOL   H12334513   1.917   7.719   6.709  0.4803  0.5680  0.5564
   96MOL   H12434514   1.676   7.749   6.718  0.7386  0.3738  0.2581
   96MOL   H12534515   1.683   0.080   6.711 -2.2482 -0.1127  2.0731
   96MOL   H12634516   1.797   7.746   6.929  0.0644  0.5980  1.1365
   96MOL   H12734517   1.832   0.078   6.916  0.8181 -0.3512 -0.8033
   96MOL   C12834518   1.600   7.833   7.064  0.4299  0.6268  0.1801
   96MOL   O12934519   1.678   7.779   7.146 -0.0076 -0.1443  0.2276
   96MOL   C13034520   1.455   0.021   7.102  0.2930 -0.3685 -0.6085
   96MOL   C13134521   1.374   7.761   7.184 -0.8282 -0.6077  0.6003
   96MOL   C13234522   1.232   7.802   7.232 -0.3094  0.6965  0.3621
   96MOL   C13334523   1.177   7.690   7.314 -0.5111  0.2799 -0.5545
   96MOL   C13434524   1.034   7.711   7.367  0.2463  0.2445  0.0546
   96MOL   O13534525   0.989   7.602   7.442  0.1290  0.3844 -0.6404
   96MOL   H13634526   1.405   0.049   7.009  1.3913 -0.7789 -1.3350
   96MOL   H13734527   1.445   0.114   7.157 -1.7787 -2.3722  2.5938
   96MOL   H13834528   1.436   7.737   7.270 -1.2837 -0.1938  1.0522
   96MOL   H13934529   1.370   7.673   7.120  2.1956 -0.5701  0.3157
   96MOL   H14034530   1.167   7.808   7.145 -0.0971 -1.6631  0.0203
   96MOL   H14134531   1.236   0.050   7.291 -2.5656  0.6386  0.6296
   96MOL   H14234532   1.240   7.670   7.401 -1.2162  2.6120  0.5484
   96MOL   H14334533   1.182   7.600   7.253 -0.6030  0.8359 -1.3891
   96MOL   H14434534   1.031   7.803   7.426  0.1155 -0.7489  1.6130
   96MOL   H14534535   0.959   7.726   7.289 -0.2288 -1.0547  0.2522
   96MOL   C14634536   0.863   7.594   7.488 -0.3511  0.4185  1.5947
   96MOL   O14734537   0.776   7.677   7.468 -0.2367 -0.2744 -0.3762
   96MOL   C14834538   0.830   7.467   7.567  0.0763 -0.5218  0.3334
   96MOL   C14934539   0.850   7.483   7.719  0.2252  0.6248 -0.8038
   96MOL   C15034540   0.723   7.543   7.782  0.1477 -0.2695 -0.5260
   96MOL   C15134541   0.737   7.574   0.091 -0.1911  0.6962  0.1043
   96MOL   C15234542   0.607   7.627   0.157 -0.1254  0.1447 -0.0286
   96MOL   O15334543   0.585   7.752   0.097  0.2456  0.4394 -0.7951
   96MOL   H15434544   0.899   7.388   7.536  0.6833  1.1132 -2.7164
   96MOL   H15534545   0.728   7.434   7.548 -0.3658  0.8889  0.2095
   96MOL   H15634546   0.936   7.550   7.727 -0.3661  1.1168  2.4664
   96MOL   H15734547   0.891   7.399   7.775  0.6588  0.4167 -1.4358
   96MOL   H15834548   0.639   7.474   7.782  0.3162 -0.4796  0.4324
   96MOL   H15934549   0.683   7.627   7.725  0.0749 -0.7136 -1.1314
   96MOL   H16034550   0.808   7.654   0.110  0.7199 -0.0546 -0.0625
   96MOL   H16134551   0.759   7.478   0.138  1.5391  1.1656  0.2677
   96MOL   H16234552   0.522   7.561   0.137 -0.3690 -0.3873  2.6141
   96MOL   H16334553   0.604   7.630   0.266 -0.0744  0.2833 -0.0316
   96MOL   C16434554   0.619   0.017   0.152 -0.2080 -0.1779 -0.5552
   96MOL   O16534555   0.676   0.033   0.262 -0.2870  0.3773  0.2678
   96MOL   C16634556   0.578   0.139   0.064  0.3612 -0.0698  0.2025
   96MOL   C16734557   0.653   0.146   7.775 -0.2408 -0.4391  0.6871
   96MOL   C16834558   0.800   0.131   7.783 -0.2186 -0.2798 -0.2618
   96MOL   C16934559   0.877   0.133   7.643 -0.0024  0.7814  0.9130
   96MOL   C17034560   1.026   0.135   7.654 -0.1330 -0.2523 -0.3496
   96MOL   O17134561   1.059   0.012   7.719 -0.2118  0.7887  0.0352
   96MOL   H17234562   0.595   0.231   0.119 -0.1096 -0.0136  0.2520
   96MOL   H17334563   0.472   0.132   0.040  0.7165 -1.0955 -1.1229
   96MOL   H17434564   0.636   0.244   7.731  1.3390  0.7038  2.5344
   96MOL   H17534565   0.616   0.072   7.704 -2.3213 -0.4596  1.7705
   96MOL   H17634566   0.840   0.041   7.829  2.8209  0.1094 -2.0047
   96MOL   H17734567   0.847   0.204   0.004 -0.6310 -0.6831  0.4944
   96MOL   H17834568   0.848   0.226   7.594 -0.5150  0.8377  1.3203
   96MOL   H17934569   0.840   0.052   7.579  3.0909 -0.4623  0.6392
   96MOL   H18034570   1.072   0.134   7.555  2.0849  0.6532  0.6338
   96MOL   H18134571   1.064   0.216   7.715 -0.4078 -1.9322  2.0952
   96MOL   C18234572   1.185   7.817   7.732  0.1993  0.2158 -0.1066
   96MOL   O18334573   1.284   0.019   7.672 -0.0216  0.5656  0.3654
   96MOL   C18434574   1.202   7.716   0.002  0.0849  0.5107 -0.6142
   96MOL   C18534575   1.241   7.781   0.141  0.8082  0.4413  0.0479
   96MOL   C18634576   1.390   7.816   0.144  0.5663  0.1308 -0.2648
   96MOL   C18734577   1.424   0.039   0.275  0.0105 -0.1490 -0.0866
   96MOL   C18834578   1.533   7.821   0.356 -0.4932 -0.6325 -0.2148
   96MOL   O18934579   1.493   7.687   0.391 -0.2754 -0.0224 -0.5029
   96MOL   H19034580   1.267   7.634   7.818  0.7468 -0.2152  2.8461
   96MOL   H19134581   1.110   7.658   0.009  0.7875 -0.6632 -0.9255
   96MOL   H19234582   1.210   7.727   0.230 -1.7110 -1.0163 -1.6558
   96MOL   H19334583   1.197   0.035   0.161  1.4238  0.8511 -0.6019
   96MOL   H19434584   1.406   0.049   0.068 -2.4653  0.1295 -0.9795
   96MOL   H19534585   1.462   7.736   0.127 -0.2507 -1.5499  3.6985
   96MOL   H19634586   1.334   0.047   0.337 -1.0289  0.3516 -1.6205
   96MOL   H19734587   1.452   0.144   0.260  1.5953 -0.2691  1.7900
   96MOL   H19834588   1.625   7.815   0.298  0.3739 -3.7911  1.4163
   96MOL   H19934589   1.545   0.044   0.441  1.0864  0.1597 -1.0323
   96MOL   C20034590   1.570   7.613   0.472 -0.5188 -0.2896 -0.3572
   96MOL   O20134591   1.664   7.652   0.537 -0.0274  0.3845  0.0234
   96MOL   C20234592   1.530   7.464   0.467 -0.2966 -0.0837  0.1598
   96MOL   C20334593   1.585   7.394   0.341 -0.1529 -0.2340  0.1602
   96MOL   C20434594   1.600   7.240   0.355 -0.7036 -0.3276  0.3281
   96MOL   C20534595   1.659   7.170   0.233 -0.6289  0.0670  0.8772
   96MOL   C20634596   1.751   7.267   0.145 -0.4369  0.8207 -0.0641
   96MOL   O20734597   1.858   7.303   0.232  0.6267 -1.1345  0.4388
   96MOL   H20834598   1.422   7.449   0.470 -0.2580  0.0267  4.0970
   96MOL   H20934599   1.567   7.430   0.563 -1.2336 -0.5020  0.3846
   96MOL   H21034600   1.681   7.436   0.310 -0.2619 -0.5129 -0.5793
   96MOL   H21134601   1.528   7.421   0.253 -1.3656  0.0832  1.0349
   96MOL   H21234602   1.497   7.203   0.356 -0.4876 -0.9463  0.1926
   96MOL   H21334603   1.656   7.211   0.444 -0.7687 -0.0780  0.4519
   96MOL   H21434604   1.577   7.131   0.173  0.5354  2.2096 -2.2641
   96MOL   H21534605   1.718   7.084   0.263 -1.0517 -0.2573  0.7809
   96MOL   H21634606   1.782   7.205   0.061 -3.1616  0.2978 -0.7171
   96MOL   H21734607   1.693   7.347   0.100 -2.7931  0.1395  1.6926
   96MOL   C21834608   1.976   7.344   0.179  0.0835  0.4211 -0.1503
   96MOL   O21934609   1.997   7.343   0.060 -0.1227 -0.0500  0.1280
   96MOL   C22034610   2.075   7.400   0.283 -0.2526 -0.4339  0.4271
   96MOL   C22134611   2.036   7.538   0.321 -0.0887  0.2034  0.7727
   96MOL   C22234612   2.054   7.639   0.215  0.0185 -0.1922  0.3115
   96MOL   C22334613   2.198   7.697   0.214  1.3424  0.2523 -0.5938
   96MOL   C22434614   2.226   7.780   0.093 -0.4695  0.1479 -0.3789
   96MOL   O22534615   2.348   0.008   0.108 -0.1256  0.4300 -0.0158
   96MOL   H22634616   2.178   7.404   0.248 -0.1343  0.2418  0.8374
   96MOL   H22734617   2.095   7.337   0.369 -0.0032  1.0576  1.4881
   96MOL   H22834618   2.089   7.574   0.409 -0.9543  2.0684  0.5580
   96MOL   H22934619   1.932   7.552   0.350 -0.7309 -1.1708 -0.7717
   96MOL   H23034620   1.981   7.721   0.221  0.6599  0.4505 -0.6107
   96MOL   H23134621   2.041   7.594   0.117 -0.9948 -1.5884  1.0712
   96MOL   H23234622   2.273   7.619   0.228  0.2022 -0.3245  2.6313
   96MOL   H23334623   2.202   7.766   0.298  1.6109  0.5184 -0.8242
   96MOL   H23434624   2.216   7.722   0.002 -1.6197 -0.2137 -0.0324
   96MOL   H23534625   2.141   0.005   0.095 -1.2441 -0.7608 -1.4180
   96MOL   C23634626   2.401   0.080   0.005  1.0253  0.2319  0.2041
   96MOL   O23734627   2.335   0.116   7.751  0.0639  0.3708 -0.2479
   96MOL   C23834628   2.544   0.110   0.027 -0.9891  0.0308 -0.2195
   96MOL   C23934629   2.636   0.096   7.747  0.3145 -0.0011 -0.8672
   96MOL   C24034630   2.674   7.790   7.731  0.2441 -0.1211  0.0422
   96MOL   C24134631   2.778   7.755   7.617  0.9132 -0.4344  0.1696
   96MOL   C24234632   2.775   7.605   7.587  0.9165 -0.6672  0.3273
   96MOL   O24334633   2.832   7.544   7.703 -0.3196  0.1727  0.4273
   96MOL   H24434634   2.583   0.032   0.093  0.1647 -0.5061 -1.5153
   96MOL   H24534635   2.538   0.213   0.062 -1.8477  0.0460 -0.3925
   96MOL   H24634636   2.731   0.146   7.765 -0.7592  1.2206  1.5033
   96MOL   H24734637   2.592   0.139   7.657 -0.9935 -2.9607 -1.7211
   96MOL   H24834638   2.582   7.737   7.708 -0.7532  0.3165  2.7346
   96MOL   H24934639   2.710   7.748   7.825  0.1264  0.6475  0.4365
   96MOL   H25034640   2.878   7.786   7.647 -0.1572  1.4768  1.9124
   96MOL   H25134641   2.745   7.816   7.533  0.0554  0.4611  1.1315
   96MOL   H25234642   2.675   7.562   7.595 -0.1429  1.2442 -2.0911
   96MOL   H25334643   2.818   7.580   7.491 -3.6475 -1.1835 -1.7278
   96MOL   C25434644   2.917   7.438   7.699  0.2189 -0.9143  0.4762
   96MOL   O25534645   2.964   7.397   7.592  0.1406 -0.4218 -0.5360
   96MOL   C25634646   2.966   7.386   7.836  1.0158  0.3014 -0.0113
   96MOL   C25734647   3.105   7.323   0.001  0.7195 -0.0034 -0.5029
   96MOL   C25834648   3.145   7.294   0.147  0.3952 -0.4839  0.2426
   96MOL   C25934649   3.275   7.214   0.150  0.4210  0.1597 -0.3315
   96MOL   C26034650   3.313   7.181   0.299  0.6463  0.1709 -0.1126
   96MOL   O26134651   3.337   7.294   0.372  0.1115 -0.2438  0.8112
   96MOL   H26234652   2.899   7.309   0.030  0.1866  2.5368  3.2678
   96MOL   H26334653   2.960   7.470   0.061  0.4467 -0.6563  1.1129
   96MOL   H26434654   3.178   7.385   7.794  2.7815 -0.9415  1.2106
   96MOL   H26534655   3.097   7.230   7.789 -0.3767 -0.4128  0.2996
   96MOL   H26634656   3.069   7.229   0.191 -1.7770  2.0632  0.4307
   96MOL   H26734657   3.157   7.380   0.213  0.0477 -0.5607  0.4086
   96MOL   H26834658   3.359   7.268   0.107  0.7660  2.4306  2.9916
   96MOL   H26934659   3.274   7.123   0.090 -0.5366  0.1052 -0.2535
   96MOL   H27034660   3.228   7.127   0.340  0.3792 -2.0731 -3.4200
   96MOL   H27134661   3.405   7.122   0.304 -0.4522 -1.8773 -2.8779
   96MOL   C27234662   3.373   7.277   0.502 -0.2306  0.8942  0.3139
   96MOL   O27334663   3.387   7.172   0.562 -0.2717  0.5347 -0.4956
   96MOL   C27434664   3.407   7.403   0.576 -0.2973  0.6373  0.3421
   96MOL   C27534665   3.305   7.452   0.676 -0.4061  0.1071 -0.9327
   96MOL   C27634666   3.190   7.527   0.615  0.1175  0.1372 -0.5647
   96MOL   C27734667   3.095   7.589   0.718  0.1824 -0.5995 -0.3353
   96MOL   C27834668   3.165   7.690   0.819  0.1798 -0.3781  0.3875
   96MOL   O27934669   3.060   7.742   0.903  0.4955  0.3081 -0.3002
   96MOL   H28034670   3.406   7.482   0.501 -0.5796  0.0009 -0.3365
   96MOL   H28134671   3.508   7.398   0.617 -0.0619 -0.7238 -0.3930
   96MOL   H28234672   3.362   7.498   0.757 -0.0977  0.5221 -1.3852
   96MOL   H28334673   3.254   7.370   0.728  0.0676  1.5661  1.9430
   96MOL   H28434674   3.142   7.461   0.543  0.1780  0.2342 -0.6927
   96MOL   H28534675   3.245   7.601   0.558 -1.1100  1.0764 -0.5350
   96MOL   H28634676   3.077   7.506   0.787  2.1770 -0.2583  0.6233
   96MOL   H28734677   2.999   7.617   0.674  1.1640  2.2992 -0.6852
   96MOL   H28834678   3.243   7.644   0.878  1.3580  0.5987 -0.3798
   96MOL   H28934679   3.207   7.769   0.757 -2.7790  0.7201 -0.3363
   96MOL   C29034680   2.981   0.004   0.867  0.1179 -0.7112 -0.0670
   96MOL   O29134681   2.984   0.069   0.762  0.5170  0.0114 -0.1381
   96MOL   C29234682   2.874   0.026   0.973  0.0300 -1.1273  0.2926
   96MOL   C29334683   2.741   7.795   0.955  0.3074  0.2589  0.5133
   96MOL   C29434684   2.653   0.010   0.838 -0.2322  0.3486  0.0438
   96MOL   C29534685   2.516   7.784   0.834 -0.3085 -0.0577 -0.5866
   96MOL   C29634686   2.419   7.832   0.719 -0.3771  0.5877 -0.5339
   96MOL   O29734687   2.489   7.795   0.594  0.4674  0.5116  0.4443
   96MOL   H29834688   2.841   0.127   0.997 -0.1021 -1.3597  1.0960
   96MOL   H29934689   2.914   7.844   1.071 -0.6473 -0.3923  0.7748
   96MOL   H30034690   2.678   7.796   1.043 -0.8125 -1.2046 -0.2438
   96MOL   H30134691   2.757   7.691   0.926  0.1427  1.1402 -2.9412
   96MOL   H30234692   2.709   7.834   0.747 -0.1848 -1.5526  0.4863
   96MOL   H30334693   2.642   0.118   0.845 -0.8406  0.5211 -2.7265
   96MOL   H30434694   2.462   7.807   0.926 -0.8709 -3.0992 -0.1056
   96MOL   H30534695   2.533   7.677   0.820 -1.0749 -0.1242 -1.0108
   96MOL   H30634696   2.323   7.781   0.725  1.7441 -3.6109 -0.1524
   96MOL   H30734697   2.412   0.096   0.713 -2.8152  0.7653  3.8373
   96MOL   C30834698   2.428   7.705   0.515 -0.1802 -0.2078 -0.2968
   96MOL   O30934699   2.314   7.670   0.531  0.6818  0.0698 -0.4783
   96MOL   C31034700   2.507   7.664   0.396  0.0226 -0.5825 -0.0499
   96MOL   C31134701   2.638   7.593   0.422 -0.4625 -0.3469 -0.1425
   96MOL   C31234702   2.622   7.445   0.454 -0.0633  0.2318  0.1487
   96MOL   C31334703   2.760   7.375   0.471  0.3047 -0.3165  0.0713
   96MOL   C31434704   2.766   7.226   0.503  0.6658  0.7745 -0.2399
   96MOL   O31534705   2.690   7.200   0.625 -0.7416 -0.3247 -0.4918
   96MOL   H31634706   2.523   7.749   0.330 -0.3167 -0.0957  0.4955
   96MOL   H31734707   2.443   7.600   0.336  1.2715 -0.1792 -1.8456
   96MOL   H31834708   2.686   7.647   0.504 -0.1892  0.1955 -0.6570
   96MOL   H31934709   2.694   7.592   0.329  0.6929 -4.6248  0.4871
   96MOL   H32034710   2.584   7.400   0.362 -0.7707  3.5221 -1.2616
   96MOL   H32134711   2.558   7.426   0.540  0.0733 -2.8144 -0.3648
   96MOL   H32234712   2.820   7.442   0.533 -0.1940 -0.5656  0.8242
   96MOL   H32334713   2.808   7.381   0.373  0.0813  1.5472  0.0574
   96MOL   H32434714   2.720   7.160   0.430  0.4105 -0.0594  0.6600
   96MOL   H32534715   2.867   7.189   0.517 -0.5913 -1.6177  3.4589
   96MOL   C32634716   2.756   7.201   0.746  1.0380  0.2820 -0.7440
   96MOL   O32734717   2.874   7.225   0.770 -0.2414 -0.0401  0.0089
   96MOL   C32834718   2.660   7.169   0.860  0.0341  0.0313  0.8336
   96MOL   C32934719   2.619   7.293   0.938  0.7062 -0.3571  0.1642
   96MOL   C33034720   2.694   7.305   1.070  0.1672 -0.2244 -0.2117
   96MOL   C33134721   2.661   7.196   1.173 -0.4521 -0.3789  0.0883
   96MOL   C33234722   2.744   7.210   1.297  0.1227 -0.3430 -0.1295
   96MOL   O33334723   2.700   7.115   1.395 -0.0858 -0.5363  0.1153
   96MOL   H33434724   2.684   7.077   0.912  0.3576 -0.6386 -0.4668
   96MOL   H33534725   2.578   7.136   0.796  2.1899  1.0257 -2.6335
   96MOL   H33634726   2.510   7.291   0.951  0.8556  0.5022  1.7059
   96MOL   H33734727   2.642   7.388   0.891 -0.2672 -1.0570 -1.7900
   96MOL   H33834728   2.665   7.403   1.107 -0.4075  0.4286 -2.3549
   96MOL   H33934729   2.802   7.311   1.058  0.3144  0.6799  1.4087
   96MOL   H34034730   2.703   7.106   1.129  2.1340 -0.6773  2.9684
   96MOL   H34134731   2.554   7.187   1.187 -0.7498 -0.9050 -2.4771
   96MOL   H34234732   2.851   7.201   1.279 -0.0583  0.3170 -1.5996
   96MOL   H34334733   2.728   7.312   1.332 -2.1687 -0.7244  0.0291
   96MOL   C34434734   2.620   7.157   1.493 -0.4963  0.3466  0.6186
   96MOL   O34534735   2.603   7.271   1.522  0.1813  0.6649 -0.1113
   96MOL   C34634736   2.566   7.047   1.578  0.1755  0.5757  0.0724
   96MOL   C34734737   2.445   6.976   1.511  0.0706 -0.6699 -0.2137
   96MOL   C34834738   2.310   7.023   1.567  0.0390  0.4873  0.0106
   96MOL   C34934739   2.281   7.173   1.529  0.3209  0.7852 -0.7076
   96MOL   C35034740   2.139   7.212   1.503 -0.7548 -0.0596  0.4075
   96MOL   O35134741   2.127   7.348   1.489 -0.0558  0.1055 -0.0858
   96MOL   H35234742   2.541   7.084   1.678 -1.3636  0.9694 -0.4377
   96MOL   H35334743   2.642   6.971   1.592  1.3092  1.1767 -2.5191
   96MOL   H35434744   2.449   6.875   1.552  0.2693 -0.4643  0.2830
   96MOL   H35534745   2.453   6.978   1.403  0.4558  1.7741 -0.1535
   96MOL   H35634746   2.296   7.014   1.675 -0.1210  0.9982  0.0356
   96MOL   H35734747   2.237   6.956   1.523 -2.4919  2.7790  0.5607
   96MOL   H35834748   2.333   7.196   1.436 -0.3332  0.1573 -1.2426
   96MOL   H35934749   2.316   7.230   1.614 -0.5338 -0.2275  0.3447
   96MOL   H36034750   2.104   7.168   1.410 -1.0991 -0.6638  0.8177
   96MOL   H36134751   2.071   7.179   1.582 -0.9463  0.0463  0.2867
   96MOL   H36234752   2.167   7.372   1.407  0.6618 -0.6799  0.0216
   97MOL     C134753   5.167   6.314   1.499  0.8496  0.3467 -0.6715
   97MOL     O234754   5.063   6.276   1.444  0.1831 -0.0089  0.4839
   97MOL     C334755   5.153   6.426   1.605  0.9486 -0.3036 -0.2237
   97MOL     C434756   5.243   6.548   1.578  0.1805 -0.7182  0.7038
   97MOL     C534757   5.190   6.626   1.452 -0.7666  0.2804  0.0221
   97MOL     C634758   5.052   6.692   1.457 -0.3324 -0.2073  0.0579
   97MOL     C734759   4.939   6.599   1.420  0.0545 -0.0918  0.9377
   97MOL     O834760   4.814   6.630   1.487  0.2158 -0.3012  0.2534
   97MOL     H934761   5.187   6.382   1.699 -4.8847 -1.9008  1.3894
   97MOL    H1034762   5.047   6.446   1.620  1.2411  0.5927  0.6789
   97MOL    H1134763   5.346   6.519   1.558  0.8117  1.6337  0.3085
   97MOL    H1234764   5.236   6.604   1.672  0.7517  0.2771  0.1605
   97MOL    H1334765   5.189   6.564   1.362 -2.6298 -0.7170  0.7059
   97MOL    H1434766   5.262   6.703   1.426 -0.2039 -0.7355 -1.4770
   97MOL    H1534767   5.047   6.787   1.404  2.4180  0.4020  0.7769
   97MOL    H1634768   5.033   6.725   1.559 -0.2441  0.6591 -0.2018
   97MOL    H1734769   4.909   6.608   1.315 -1.3708  1.6644  1.4786
   97MOL    H1834770   4.956   6.500   1.463  1.8278  0.0038  0.4982
   97MOL    H1934771   5.267   6.294   1.460  0.3766 -1.4109 -0.9904
   97MOL    C2034772   4.715   6.709   1.436 -0.2661 -0.1674  0.6574
   97MOL    O2134773   4.731   6.781   1.338  0.9319 -0.0265  0.0471
   97MOL    C2234774   4.591   6.716   1.527 -0.2815 -0.1495 -0.1324
   97MOL    C2334775   4.493   6.603   1.501 -0.2785 -0.3808 -0.5795
   97MOL    C2434776   4.439   6.593   1.357 -0.6437 -0.0124  0.0004
   97MOL    C2534777   4.330   6.487   1.355 -0.4452 -0.7543 -0.2622
   97MOL    C2634778   4.247   6.483   1.227 -0.2180  0.2191 -0.1239
   97MOL    O2734779   4.159   6.593   1.219  0.8230 -0.3779 -0.4935
   97MOL    H2834780   4.542   6.813   1.529 -0.1186 -0.0700  2.5401
   97MOL    H2934781   4.612   6.722   1.634  0.6183 -1.8208 -0.2006
   97MOL    H3034782   4.413   6.625   1.573 -0.3631  0.0990 -0.8178
   97MOL    H3134783   4.540   6.509   1.526 -1.4185 -1.3006 -1.8451
   97MOL    H3234784   4.521   6.571   1.288 -0.0493  1.3639  0.2526
   97MOL    H3334785   4.404   6.688   1.318 -2.1154 -0.9060 -0.8906
   97MOL    H3434786   4.261   6.512   1.436 -1.0974 -2.1004 -0.3822
   97MOL    H3534787   4.384   6.393   1.358  0.8969 -0.0189 -1.0835
   97MOL    H3634788   4.305   6.487   1.136 -0.1548  1.8666 -0.0227
   97MOL    H3734789   4.208   6.381   1.221  1.9828 -0.6781  0.2306
   97MOL    C3834790   4.023   6.582   1.225 -0.7396 -0.1808  0.1979
   97MOL    O3934791   3.969   6.484   1.277  0.5750  0.5313  0.5919
   97MOL    C4034792   3.955   6.703   1.159 -0.6729  0.2411 -0.0844
   97MOL    C4134793   3.806   6.706   1.180  0.2005  0.0231 -1.0025
   97MOL    C4234794   3.760   6.746   1.323 -0.5478  0.3550 -0.3109
   97MOL    C4334795   3.612   6.769   1.327  0.0566 -0.5198 -0.1875
   97MOL    C4434796   3.558   6.799   1.466  0.0434 -0.4093  0.0276
   97MOL    O4534797   3.569   6.685   1.548 -0.4914 -0.0195  0.7425
   97MOL    H4634798   3.974   6.680   1.054 -0.6892  0.6953 -0.1864
   97MOL    H4734799   4.009   6.796   1.181  1.9509 -1.9498  3.3294
   97MOL    H4834800   3.762   6.607   1.169  1.5339 -1.1303  3.1465
   97MOL    H4934801   3.762   6.777   1.110 -1.1106 -1.0436 -1.2881
   97MOL    H5034802   3.801   6.841   1.356  0.8901  0.4848 -2.3380
   97MOL    H5134803   3.782   6.661   1.388  0.7287 -0.4046 -1.6998
   97MOL    H5234804   3.551   6.697   1.273  0.4564  0.4138 -1.9196
   97MOL    H5334805   3.590   6.859   1.269 -1.9779 -1.9040 -1.6178
   97MOL    H5434806   3.611   6.877   1.521  0.6919 -0.7288 -0.1435
   97MOL    H5534807   3.461   6.849   1.461  1.0430  1.6451  0.6457
   97MOL    C5634808   3.533   6.692   1.679 -0.5779 -0.2703 -1.0009
   97MOL    O5734809   3.477   6.787   1.729  0.3045 -0.0383 -0.3948
   97MOL    C5834810   3.579   6.571   1.760  0.0551 -0.0205 -0.1855
   97MOL    C5934811   3.734   6.545   1.789 -0.3412 -0.6196 -0.5161
   97MOL    C6034812   3.821   6.508   1.660 -0.1195 -0.1065 -0.1890
   97MOL    C6134813   3.933   6.411   1.699 -0.2395 -1.0114 -0.1861
   97MOL    C6234814   4.014   6.375   1.574 -0.3412 -0.1056 -0.0750
   97MOL    O6334815   4.097   6.265   1.612 -0.0421 -0.3846  0.4097
   97MOL    H6434816   3.529   6.482   1.721 -1.4302  0.8143 -0.2545
   97MOL    H6534817   3.533   6.575   1.859  3.4971 -2.6934  1.5963
   97MOL    H6634818   3.742   6.457   1.853  0.2331 -0.5409 -0.4819
   97MOL    H6734819   3.774   6.630   1.844  0.4343 -1.6415  0.5120
   97MOL    H6834820   3.858   6.603   1.620 -0.2578 -0.7336 -1.8347
   97MOL    H6934821   3.752   6.465   1.588 -1.0960  0.0371  0.6541
   97MOL    H7034822   3.881   6.328   1.745  1.3360 -2.1009 -0.3375
   97MOL    H7134823   4.007   6.454   1.766 -0.5957  0.7534 -0.8717
   97MOL    H7234824   3.961   6.338   1.486  0.3172  0.3633 -0.6767
   97MOL    H7334825   4.076   6.457   1.538 -1.5782  0.3649 -1.1565
   97MOL    C7434826   4.227   6.281   1.654  0.0962 -0.3835 -0.0528
   97MOL    O7534827   4.286   6.382   1.672  0.4463  0.0149 -0.2640
   97MOL    C7634828   4.280   6.150   1.691 -0.0929  0.6179  0.7945
   97MOL    C7734829   4.318   6.134   1.837 -0.0596 -0.0748 -0.3736
   97MOL    C7834830   4.201   6.134   1.937 -0.2718  0.5810  0.4075
   97MOL    C7934831   4.242   6.124   2.087  0.0938  0.1504 -0.0856
   97MOL    C8034832   4.252   5.976   2.133 -0.4775  0.1536  0.3207
   97MOL    O8134833   4.297   5.955   2.259 -0.1013  0.1552  0.1501
   97MOL    H8234834   4.369   6.132   1.630 -1.5736 -0.0577 -1.1999
   97MOL    H8334835   4.205   6.074   1.675 -1.1600  1.7725  0.2263
   97MOL    H8434836   4.394   6.204   1.869  0.9446 -1.8276  1.1747
   97MOL    H8534837   4.368   6.038   1.847  1.2309  0.6620  0.2994
   97MOL    H8634838   4.128   6.058   1.910 -1.1070  1.0974  1.1622
   97MOL    H8734839   4.153   6.232   1.932 -0.0515  0.6278 -1.2044
   97MOL    H8834840   4.168   6.174   2.150 -2.0038 -1.3301 -1.2805
   97MOL    H8934841   4.336   6.175   2.108 -0.1802 -0.2144  2.1713
   97MOL    H9034842   4.148   5.943   2.127 -0.6913  0.4073  2.3326
   97MOL    H9134843   4.304   5.909   2.064 -1.4942 -2.2279  1.8301
   97MOL    C9234844   4.353   5.835   2.284  0.2641  0.2050 -1.0541
   97MOL    O9334845   4.355   5.736   2.216 -0.0090 -0.4805  0.2600
   97MOL    C9434846   4.414   5.827   2.427 -0.0657 -0.5693 -0.2633
   97MOL    C9534847   4.302   5.806   2.524  0.3844  0.7948  0.2031
   97MOL    C9634848   4.263   5.658   2.527  0.3295 -0.7539 -0.6357
   97MOL    C9734849   4.179   5.619   2.647  0.3543  0.4167 -0.1308
   97MOL    C9834850   4.138   5.470   2.651  1.0932  0.3132  0.2316
   97MOL    O9934851   4.064   5.434   2.761 -0.2603  0.2576  0.1381
   97MOL   H10034852   4.471   5.917   2.451 -0.6301 -1.0502  3.2428
   97MOL   H10134853   4.482   5.743   2.444 -0.8340 -1.1260  0.1069
   97MOL   H10234854   4.221   5.879   2.512  0.2269  0.3660 -1.4253
   97MOL   H10334855   4.341   5.823   2.624  0.6417 -1.8864  0.5884
   97MOL   H10434856   4.363   5.614   2.527  0.5495 -0.2591 -1.0519
   97MOL   H10534857   4.212   5.634   2.433  1.4293 -2.1949 -0.9011
   97MOL   H10634858   4.097   5.691   2.652 -0.2732 -0.3715  1.0871
   97MOL   H10734859   4.236   5.630   2.738 -0.8751 -2.4484  1.0309
   97MOL   H10834860   4.088   5.449   2.556 -1.5006 -0.8173  1.8154
   97MOL   H10934861   4.222   5.401   2.650  1.3026  0.5580 -1.5638
   97MOL   C11034862   3.979   5.333   2.753  0.6543 -0.0447  0.5178
   97MOL   O11134863   3.957   5.267   2.655 -0.5408  0.7854  0.3981
   97MOL   C11234864   3.891   5.321   2.879  0.3300 -0.4006 -0.6677
   97MOL   C11334865   3.810   5.450   2.906  0.1110 -0.1192 -0.2211
   97MOL   C11434866   3.671   5.435   2.826 -0.4214  0.3150 -0.8270
   97MOL   C11534867   3.579   5.559   2.842 -0.5683  0.0689  0.4069
   97MOL   C11634868   3.543   5.589   2.988  0.1721  0.4168 -0.2395
   97MOL   O11734869   3.464   5.706   2.994  0.7352  0.2570 -0.1164
   97MOL   H11834870   3.954   5.296   2.964 -0.4762  0.4568  0.1989
   97MOL   H11934871   3.825   5.235   2.867  0.1462 -0.4694  0.7230
   97MOL   H12034872   3.863   5.541   2.879 -1.4746  1.2715  1.2087
   97MOL   H12134873   3.793   5.471   3.011  0.3078  1.2966 -0.4585
   97MOL   H12234874   3.620   5.349   2.870  1.4907  0.6841  2.3258
   97MOL   H12334875   3.683   5.414   2.720  1.7058 -2.9615 -0.0465
   97MOL   H12434876   3.487   5.527   2.794 -0.5960 -0.0441  0.5355
   97MOL   H12534877   3.629   5.641   2.791  2.7294 -1.3315  1.2084
   97MOL   H12634878   3.480   5.506   3.019 -0.5733  0.3175 -1.9388
   97MOL   H12734879   3.630   5.614   3.049  1.4759  0.3611 -2.0422
   97MOL   C12834880   3.378   5.726   3.095  0.4350 -0.1964 -0.2191
   97MOL   O12934881   3.357   5.651   3.187 -0.1100 -0.3543 -0.1299
   97MOL   C13034882   3.282   5.840   3.070  0.4325 -0.1324  0.6836
   97MOL   C13134883   3.345   5.969   3.008  0.0873 -0.1022  0.5516
   97MOL   C13234884   3.250   6.085   3.034 -0.1194 -0.0623  0.3730
   97MOL   C13334885   3.319   6.219   3.061 -0.6130 -0.7897  0.4700
   97MOL   C13434886   3.243   6.333   3.125  0.6216  0.8448  0.3714
   97MOL   O13534887   3.175   6.405   3.023 -0.0445 -0.7738  0.5736
   97MOL   H13634888   3.274   5.876   3.173  2.3349  0.3893  0.6714
   97MOL   H13734889   3.182   5.824   3.028 -0.3978  1.6040  1.9437
   97MOL   H13834890   3.370   5.949   2.903 -0.3470 -0.9313  0.6104
   97MOL   H13934891   3.435   5.992   3.065 -0.1229  0.2907  0.7300
   97MOL   H14034892   3.182   6.064   3.117  0.2587  0.9434  0.9451
   97MOL   H14134893   3.197   6.096   2.939 -0.8908  0.4784  0.8635
   97MOL   H14234894   3.373   6.243   2.970  0.9115 -1.6097  1.1312
   97MOL   H14334895   3.399   6.199   3.132  0.5550 -0.6871 -0.8122
   97MOL   H14434896   3.173   6.281   3.190  0.0246 -0.5730 -1.3404
   97MOL   H14534897   3.294   6.398   3.196 -3.1098  0.7670  3.2700
   97MOL   C14634898   3.221   6.515   2.962 -0.2480 -0.3122 -0.6087
   97MOL   O14734899   3.329   6.563   2.987 -0.8337  0.2190  0.2283
   97MOL   C14834900   3.139   6.566   2.841 -0.4115  0.2173  0.3212
   97MOL   C14934901   3.224   6.545   2.718  0.3880  0.6078  0.2221
   97MOL   C15034902   3.153   6.596   2.591 -0.0742 -0.3703  0.2195
   97MOL   C15134903   3.209   6.535   2.466  0.2933 -0.3103  0.9265
   97MOL   C15234904   3.143   6.597   2.344  0.5413  0.2956  0.3179
   97MOL   O15334905   3.175   6.522   2.237 -0.1879 -0.1857  0.0209
   97MOL   H15434906   3.124   6.674   2.840  2.0757  0.5864  1.4580
   97MOL   H15534907   3.047   6.510   2.824 -0.1385  0.4235 -1.9833
   97MOL   H15634908   3.231   6.438   2.702  3.1011  0.7228  0.2758
   97MOL   H15734909   3.329   6.577   2.722  0.5838  0.3813 -2.2870
   97MOL   H15834910   3.149   6.705   2.587  0.6741 -0.3844 -1.2940
   97MOL   H15934911   3.049   6.564   2.596 -0.3185  0.5013  0.8282
   97MOL   H16034912   3.203   6.427   2.475  1.1043 -0.3593  0.8791
   97MOL   H16134913   3.317   6.545   2.465  0.1426  1.7069  1.2400
   97MOL   H16234914   3.034   6.599   2.349  0.5483 -0.8041  1.0240
   97MOL   H16334915   3.164   6.702   2.327  2.5631 -0.0377  0.6789
   97MOL   C16434916   3.089   6.437   2.178  0.1254 -0.0679  0.1067
   97MOL   O16534917   2.995   6.384   2.239  0.0363 -1.1162  0.1474
   97MOL   C16634918   3.126   6.403   2.026 -0.0603 -0.1217 -0.4794
   97MOL   C16734919   3.193   6.528   1.953  0.5860  0.4057 -0.2407
   97MOL   C16834920   3.108   6.650   1.936  0.3361  0.0673 -1.0606
   97MOL   C16934921   3.195   6.780   1.927 -0.2454 -0.3607 -0.1281
   97MOL   C17034922   3.112   6.914   1.926 -0.1245  0.1848 -0.5348
   97MOL   O17134923   3.095   6.959   2.054  0.1991  0.4255 -0.4180
   97MOL   H17234924   3.035   6.375   1.972  0.2216  0.7796 -1.4345
   97MOL   H17334925   3.187   6.313   2.029 -0.8224 -0.6735 -1.3333
   97MOL   H17434926   3.229   6.483   1.860  1.0394 -1.0604  0.6194
   97MOL   H17534927   3.286   6.539   2.009 -0.2078 -0.7042  1.3390
   97MOL   H17634928   3.037   6.679   2.013 -0.1642  0.8159 -1.7857
   97MOL   H17734929   3.034   6.645   1.856  0.4759 -1.2514 -1.1072
   97MOL   H17834930   3.246   6.772   1.832 -0.1961  0.2928 -0.1600
   97MOL   H17934931   3.279   6.787   1.996  1.2585 -0.7190 -1.8928
   97MOL   H18034932   3.146   6.997   1.864  0.4973  0.6146  0.3740
   97MOL   H18134933   3.017   6.886   1.880 -0.9241  1.1368  0.4961
   97MOL   C18234934   3.198   7.028   2.112  0.0492  0.6757  0.2153
   97MOL   O18334935   3.307   7.049   2.066  0.0296  0.5999  0.1998
   97MOL   C18434936   3.162   7.078   2.256 -0.3002  0.3222  0.4094
   97MOL   C18534937   3.236   7.197   2.317 -0.7634  0.6047  0.2493
   97MOL   C18634938   3.219   7.330   2.248  0.2145 -0.5098  0.3287
   97MOL   C18734939   3.291   7.448   2.314 -0.3553  0.9380 -0.5875
   97MOL   C18834940   3.262   7.579   2.242 -0.4149  0.4538 -0.0191
   97MOL   O18934941   3.324   7.566   2.115  0.0264  0.5070  0.7257
   97MOL   H19034942   3.189   6.990   2.315 -0.4775  1.2492  1.9245
   97MOL   H19134943   3.054   7.088   2.269 -0.3867  0.3893 -0.3642
   97MOL   H19234944   3.344   7.181   2.310 -0.7515  1.6716 -2.5215
   97MOL   H19334945   3.215   7.191   2.424  1.9297  0.5711  0.8153
   97MOL   H19434946   3.111   7.339   2.242  0.0810 -1.5452  0.9624
   97MOL   H19534947   3.255   7.315   2.147  0.0135  2.4344 -0.2170
   97MOL   H19634948   3.398   7.431   2.318 -0.6258 -0.7407  0.1619
   97MOL   H19734949   3.258   7.456   2.418 -0.0396  1.0807 -0.4992
   97MOL   H19834950   3.157   7.604   2.227  0.1610  2.0906 -1.4570
   97MOL   H19934951   3.303   7.656   2.306 -0.2680 -0.2012  0.6831
   97MOL   C20034952   3.382   7.670   2.056  0.1216  0.6050 -0.3643
   97MOL   O20134953   3.409   7.775   2.112 -0.0113 -0.0830  0.3317
   97MOL   C20234954   3.425   7.641   1.912 -0.4908 -0.5449 -0.0514
   97MOL   C20334955   3.313   7.569   1.836 -0.1794 -0.6518  0.0909
   97MOL   C20434956   3.356   7.551   1.687 -0.4759 -0.0442  0.5815
   97MOL   C20534957   3.365   7.687   1.609  0.7198  0.3773 -0.5552
   97MOL   C20634958   3.402   7.649   1.470  0.6414  0.5341 -0.5092
   97MOL   O20734959   3.451   7.760   1.402  0.4519  0.5647  0.1825
   97MOL   H20834960   3.507   7.570   1.928  1.2185  0.7574 -2.5944
   97MOL   H20934961   3.465   7.736   1.876  1.1910  0.3028  3.7534
   97MOL   H21034962   3.218   7.624   1.838 -1.0969 -2.2534  1.2642
   97MOL   H21134963   3.290   7.480   1.894  0.0084 -2.5661 -2.7078
   97MOL   H21234964   3.280   7.491   1.637  1.4801 -0.6233 -1.8129
   97MOL   H21334965   3.452   7.501   1.691 -0.3772  0.2545  2.3162
   97MOL   H21434966   3.439   7.759   1.643 -2.1526  2.7912  0.8309
   97MOL   H21534967   3.267   7.734   1.622  0.6522 -0.3945  1.9814
   97MOL   H21634968   3.483   7.577   1.477 -0.3100 -0.6550 -1.5087
   97MOL   H21734969   3.318   7.615   1.411 -3.2381  3.9546  2.6959
   97MOL   C21834970   3.579   7.786   1.379 -0.2686  0.6419 -0.1138
   97MOL   O21934971   3.676   7.729   1.440  0.5597 -0.0495  0.1501
   97MOL   C22034972   3.600   0.054   1.283 -0.6763 -0.3210 -0.2484
   97MOL   C22134973   3.567   0.017   1.145 -0.5193  0.1411 -0.1314
   97MOL   C22234974   3.663   7.754   1.092  0.0186  0.3286  0.4073
   97MOL   C22334975   3.626   7.735   0.940  0.1211  0.4454  0.2150
   97MOL   C22434976   3.718   7.649   0.850 -0.0132 -0.2768  0.0692
   97MOL   O22534977   3.723   7.517   0.901  0.4903 -0.1190 -0.6721
   97MOL   H22634978   3.702   0.094   1.289 -1.2822  1.3496 -0.7710
   97MOL   H22734979   3.547   0.139   1.326  2.2160  1.4380 -0.0398
   97MOL   H22834980   3.566   0.109   1.085 -0.6350  0.8622  0.9713
   97MOL   H22934981   3.466   7.822   1.136 -1.0247  1.0860  1.1981
   97MOL   H23034982   3.660   7.660   1.147  0.4360 -0.0461 -0.1935
   97MOL   H23134983   3.766   7.786   1.102  0.3444  0.4013 -2.6560
   97MOL   H23234984   3.618   7.830   0.888 -0.8716 -0.1345 -0.7182
   97MOL   H23334985   3.528   7.689   0.926  0.7772 -1.6060  1.9820
   97MOL   H23434986   3.674   7.657   0.751 -0.2062  0.1039  0.1860
   97MOL   H23534987   3.818   7.694   0.853 -0.3918  0.5694  0.1497
   97MOL   C23634988   3.724   7.417   0.814  0.1088  0.3574 -0.4039
   97MOL   O23734989   3.732   7.413   0.693 -0.7993 -0.0886  0.0026
   97MOL   C23834990   3.718   7.280   0.884 -0.2718  0.4969  0.5515
   97MOL   C23934991   3.719   7.256   1.040  0.1932 -0.4124  0.5891
   97MOL   C24034992   3.843   7.287   1.116 -0.4741  0.0682 -1.0807
   97MOL   C24134993   3.888   7.175   1.214  0.0913  0.4002 -0.1903
   97MOL   C24234994   3.986   7.210   1.329 -0.3252 -0.6367 -0.0247
   97MOL   O24334995   3.920   7.306   1.419  0.2981  0.3124  0.3389
   97MOL   H24434996   3.793   7.213   0.842 -1.7826 -0.5432 -0.5380
   97MOL   H24534997   3.628   7.228   0.854 -2.1963  2.5963  2.4690
   97MOL   H24634998   3.685   7.155   1.063 -1.8363  0.4113  1.2735
   97MOL   H24734999   3.648   7.325   1.086  0.7771  0.0678  0.7660
   97MOL   H24835000   3.837   7.382   1.169  0.9137  0.1796 -1.1048
   97MOL   H24935001   3.925   7.317   1.050  1.3009 -0.0941  0.9845
   97MOL   H25035002   3.938   7.099   1.153  1.0951  0.7271  0.2085
   97MOL   H25135003   3.805   7.115   1.252 -1.1717  0.9005 -2.1055
   97MOL   H25235004   4.002   7.115   1.379 -0.6219  0.0548  1.4368
   97MOL   H25335005   4.078   7.254   1.293 -0.9323 -1.5950 -2.8355
   97MOL   C25435006   3.931   7.292   1.554 -0.1307 -0.2930 -0.3859
   97MOL   O25535007   4.011   7.215   1.616  0.0784  0.2543 -0.2697
   97MOL   C25635008   3.830   7.370   1.630 -0.1890 -0.0073 -0.1081
   97MOL   C25735009   3.690   7.304   1.653  0.0444  0.1494  0.0540
   97MOL   C25835010   3.593   7.291   1.532 -0.3345 -0.1559  0.9298
   97MOL   C25935011   3.479   7.196   1.546  0.3406  0.1131 -0.0012
   97MOL   C26035012   3.405   7.193   1.416 -0.3910  0.0118  0.0972
   97MOL   O26135013   3.307   7.096   1.420 -0.3451  0.2793 -0.7094
   97MOL   H26235014   3.807   7.465   1.582  0.4656 -0.6508 -1.7289
   97MOL   H26335015   3.876   7.385   1.728 -1.3651  0.1760  0.4277
   97MOL   H26435016   3.641   7.355   1.736  1.1081 -1.6638  1.8578
   97MOL   H26535017   3.703   7.202   1.690  0.6232  0.7200  1.4808
   97MOL   H26635018   3.655   7.261   1.448  2.5998  0.0863  2.9445
   97MOL   H26735019   3.549   7.387   1.505 -0.2697 -0.5355 -0.5391
   97MOL   H26835020   3.414   7.211   1.632 -2.3763  0.0760 -1.9790
   97MOL   H26935021   3.518   7.095   1.558  2.4246  0.9729  0.6936
   97MOL   H27035022   3.363   7.293   1.403  0.7464  0.5727  0.7139
   97MOL   H27135023   3.477   7.175   1.336  2.4709  2.3420  2.0669
   97MOL   C27235024   3.193   7.128   1.465  0.4891 -0.3901 -0.1603
   97MOL   O27335025   3.159   7.234   1.507 -0.2430 -0.8530 -0.0532
   97MOL   C27435026   3.089   7.021   1.448  0.4981 -0.6878 -0.2498
   97MOL   C27535027   3.053   6.945   1.579 -0.1149 -0.8355 -0.0073
   97MOL   C27635028   2.956   6.828   1.558  0.5719  0.0053  0.0609
   97MOL   C27735029   3.029   6.701   1.509 -0.5383  1.0102 -0.1561
   97MOL   C27835030   2.934   6.587   1.458 -0.2006  0.2875 -0.4277
   97MOL   O27935031   2.873   6.529   1.579  0.7590 -0.0640  0.2316
   97MOL   H28035032   3.129   6.953   1.373 -2.6208 -2.7632 -0.1040
   97MOL   H28135033   2.996   7.068   1.416  1.6135  0.1462 -2.3206
   97MOL   H28235034   3.002   7.008   1.653  1.9694 -1.1991  1.7757
   97MOL   H28335035   3.137   6.923   1.644  0.2178  0.6283  0.0768
   97MOL   H28435036   2.872   6.855   1.494  0.3350  0.0987  0.4118
   97MOL   H28535037   2.915   6.805   1.657  0.8731  1.0721  0.4356
   97MOL   H28635038   3.098   6.662   1.584 -0.3680  0.5171 -0.5735
   97MOL   H28735039   3.089   6.741   1.427  1.3054  0.7919  1.0432
   97MOL   H28835040   2.861   6.609   1.380 -1.3338  1.6657  0.9904
   97MOL   H28935041   2.999   6.514   1.410  1.7244  0.6137  1.6350
   97MOL   C29035042   2.786   6.439   1.566  0.1196 -0.6964  0.3434
   97MOL   O29135043   2.769   6.374   1.461  0.7547  0.6201  0.1288
   97MOL   C29235044   2.713   6.416   1.700 -0.4268 -0.1735 -0.4485
   97MOL   C29335045   2.570   6.372   1.703 -0.1967 -0.0166 -0.7086
   97MOL   C29435046   2.549   6.225   1.660 -0.0588 -0.2978 -0.1105
   97MOL   C29535047   2.396   6.181   1.666  0.2494  0.1026 -0.2608
   97MOL   C29635048   2.381   6.034   1.626 -0.3584 -0.0843  0.0811
   97MOL   O29735049   2.334   5.955   1.731  0.2333 -0.6598 -0.5441
   97MOL   H29835050   2.720   6.501   1.767  0.2420  0.1963 -0.9679
   97MOL   H29935051   2.778   6.343   1.748  0.1768 -0.2426 -1.3449
   97MOL   H30035052   2.515   6.440   1.638  1.2655  1.5068 -0.3491
   97MOL   H30135053   2.523   6.374   1.801 -0.3376  1.8132 -0.7985
   97MOL   H30235054   2.602   6.180   1.743 -0.2378  0.4580  0.4126
   97MOL   H30335055   2.589   6.210   1.559 -0.4458  1.2526 -0.5063
   97MOL   H30435056   2.349   6.241   1.588 -0.6337  1.3509  1.1850
   97MOL   H30535057   2.348   6.201   1.763  0.5755 -0.9958  0.1280
   97MOL   H30635058   2.324   6.028   1.533  0.0661  2.8965 -0.3953
   97MOL   H30735059   2.476   5.987   1.599  0.5334  2.0508 -0.5483
   97MOL   C30835060   2.204   5.963   1.769  0.7282  0.7356 -0.1377
   97MOL   O30935061   2.118   6.046   1.729 -0.5584  0.1730  0.3689
   97MOL   C31035062   2.165   5.864   1.876  0.5384 -0.2158  0.0236
   97MOL   C31135063   2.232   5.898   2.011 -0.3481  0.1331 -0.2417
   97MOL   C31235064   2.233   6.038   2.067 -0.0837 -0.4973 -0.7235
   97MOL   C31335065   2.265   6.051   2.219 -0.3500 -0.1301  0.2073
   97MOL   C31435066   2.235   6.199   2.265  0.6178 -0.0858  0.5853
   97MOL   O31535067   2.098   6.210   2.315 -0.0333 -0.0198  0.4182
   97MOL   H31635068   2.192   5.763   1.843 -0.2855 -0.9861  1.6115
   97MOL   H31735069   2.056   5.870   1.886  0.7109  0.0196  1.7653
   97MOL   H31835070   2.337   5.871   2.007 -0.8394 -1.9109  0.1479
   97MOL   H31935071   2.193   5.829   2.087 -2.7382  1.1063 -0.5306
   97MOL   H32035072   2.129   6.070   2.065  0.3079  0.8325 -0.2356
   97MOL   H32135073   2.290   6.115   2.017 -2.3773  0.4032 -1.9962
   97MOL   H32235074   2.369   6.025   2.238 -1.6345 -3.9495  2.7893
   97MOL   H32335075   2.210   5.978   2.280 -0.0900 -0.4699  0.0361
   97MOL   H32435076   2.292   6.234   2.351  1.6883 -0.0328 -0.1412
   97MOL   H32535077   2.269   6.266   2.187 -0.1848 -1.1829 -0.7352
   97MOL   C32635078   2.063   6.305   2.402  0.0156 -0.2021  0.2793
   97MOL   O32735079   2.139   6.359   2.480  0.2334 -0.6982 -0.6581
   97MOL   C32835080   1.914   6.337   2.397 -0.4689 -0.1676 -0.6480
   97MOL   C32935081   1.852   6.398   2.518 -0.5640 -0.5413 -0.0732
   97MOL   C33035082   1.905   6.537   2.574  0.3516  0.6734  0.0066
   97MOL   C33135083   1.800   6.625   2.646 -0.6034 -0.1672 -1.0980
   97MOL   C33235084   1.771   6.576   2.788 -0.0303  0.2057  0.1570
   97MOL   O33335085   1.668   6.647   2.858 -0.5959 -0.1759 -0.7652
   97MOL   H33435086   1.864   6.245   2.366 -0.6994 -0.9370  1.8803
   97MOL   H33535087   1.890   6.403   2.313 -1.4856  0.0464 -0.2020
   97MOL   H33635088   1.851   6.329   2.602 -0.7416  1.6507  1.7917
   97MOL   H33735089   1.749   6.417   2.488 -0.1454  0.2693 -1.0317
   97MOL   H33835090   1.938   6.603   2.494  1.8980 -0.4924 -0.3385
   97MOL   H33935091   2.000   6.528   2.626 -0.6129 -1.2598  1.5113
   97MOL   H34035092   1.710   6.631   2.584 -1.6102  0.5093  0.3813
   97MOL   H34135093   1.834   6.728   2.647 -0.5689 -0.1776  0.9994
   97MOL   H34235094   1.735   6.473   2.791  3.0266 -0.8834  3.9140
   97MOL   H34335095   1.859   6.591   2.851 -1.6493  2.8069  1.8918
   97MOL   C34435096   1.543   6.598   2.865 -0.6624  0.6299 -0.0139
   97MOL   O34535097   1.495   6.515   2.785  0.0919 -0.2569  0.0238
   97MOL   C34635098   1.470   6.651   2.978 -0.1282  0.1235 -0.6785
   97MOL   C34735099   1.502   6.569   3.106 -0.0336  0.3500  0.7807
   97MOL   C34835100   1.620   6.635   3.183  0.2220 -0.0816 -0.0010
   97MOL   C34935101   1.639   6.588   3.325  0.6084  0.0585  0.0037
   97MOL   C35035102   1.753   6.644   3.408 -0.0158  0.0120  0.7707
   97MOL   O35135103   1.875   6.593   3.362 -0.4396 -0.6527  0.3046
   97MOL   H35235104   1.365   6.650   2.947 -0.5777  2.1517  0.6857
   97MOL   H35335105   1.494   6.755   2.998  0.0926  0.0069 -0.3279
   97MOL   H35435106   1.506   6.460   3.100 -0.7027  0.2915  1.3179
   97MOL   H35535107   1.421   6.573   3.178 -0.4276  0.0709  0.3570
   97MOL   H35635108   1.617   6.742   3.165  1.3540  0.3523  2.1030
   97MOL   H35735109   1.711   6.607   3.130  0.0377  1.4599 -1.1412
   97MOL   H35835110   1.629   6.480   3.332  1.0512 -0.1157 -1.7402
   97MOL   H35935111   1.549   6.635   3.365  1.4708  0.4509  1.5499
   97MOL   H36035112   1.774   6.750   3.390 -1.8279  0.2942  0.1804
   97MOL   H36135113   1.730   6.637   3.514 -0.4240 -1.9019  0.5756
   97MOL   H36235114   1.941   6.645   3.406  1.2117 -1.8915 -0.6151
   98MOL     C135115   3.498   2.984   7.232  0.3126 -0.0517 -0.8898
   98MOL     O235116   3.599   2.915   7.261 -0.0723  0.3610  0.8182
   98MOL     C335117   3.390   2.930   7.152  0.1587 -0.0461  0.2121
   98MOL     C435118   3.443   2.871   7.026 -1.0246 -0.3402 -0.5009
   98MOL     C535119   3.330   2.791   6.959  0.3718 -0.3142  0.2813
   98MOL     C635120   3.369   2.748   6.817  0.3721  0.1518  0.7399
   98MOL     C735121   3.260   2.671   6.746  0.3145 -0.8697 -0.3609
   98MOL     O835122   3.271   2.667   6.610  0.1555 -0.5570  0.3962
   98MOL     H935123   3.310   3.000   7.131 -1.2170 -1.9985 -1.2793
   98MOL    H1035124   3.333   2.853   7.206  0.0545  0.6674  1.1332
   98MOL    H1135125   3.528   2.804   7.041  0.6308  1.5849 -0.9531
   98MOL    H1235126   3.470   2.954   6.960 -1.0929  1.0479  1.1793
   98MOL    H1335127   3.244   2.856   6.949  0.8482  0.1439 -0.9304
   98MOL    H1435128   3.285   2.709   7.015  0.3095 -1.2578 -1.1104
   98MOL    H1535129   3.463   2.695   6.830  1.8777  2.3503 -0.9136
   98MOL    H1635130   3.392   2.837   6.757  2.4003  1.8565  3.8855
   98MOL    H1735131   3.270   2.570   6.784  1.2521 -0.5231  0.3315
   98MOL    H1835132   3.164   2.715   6.775  2.0489  0.2982  3.9945
   98MOL    H1935133   3.478   3.087   7.262 -1.0426 -0.9048  1.2737
   98MOL    C2035134   3.198   2.581   6.543 -0.0163  0.3879  0.2038
   98MOL    O2135135   3.124   2.497   6.592  0.8074 -0.4854  0.1831
   98MOL    C2235136   3.186   2.619   6.396  0.6301 -0.1051  0.8960
   98MOL    C2335137   3.045   2.671   6.372 -0.1979 -0.2768  0.0502
   98MOL    C2435138   3.000   2.640   6.229  0.9069  0.2821  0.1303
   98MOL    C2535139   2.849   2.679   6.208 -0.0373 -0.0249  0.1666
   98MOL    C2635140   2.798   2.667   6.066 -0.1790  0.6022  0.6476
   98MOL    O2735141   2.657   2.645   6.067 -0.2018 -0.4231  0.4223
   98MOL    H2835142   3.201   2.532   6.332 -0.5322  0.9849 -0.9313
   98MOL    H2935143   3.258   2.696   6.370 -0.4393  0.2961 -0.9766
   98MOL    H3035144   3.040   2.779   6.391  0.1215  0.3760 -3.3697
   98MOL    H3135145   2.973   2.620   6.436  0.3359 -0.2216  0.7044
   98MOL    H3235146   3.014   2.533   6.215  2.3548  0.5004 -0.2585
   98MOL    H3335147   3.065   2.679   6.151 -0.9778  0.1247 -1.5269
   98MOL    H3435148   2.816   2.779   6.237  2.7000  0.6550  1.0587
   98MOL    H3535149   2.794   2.607   6.268  0.7904 -1.8533 -1.2447
   98MOL    H3635150   2.821   2.755   6.006  1.6433  0.2349  0.7816
   98MOL    H3735151   2.844   2.580   6.020 -1.9003 -1.6507  2.9822
   98MOL    C3835152   2.604   2.578   5.968  0.0462  0.0816 -0.3303
   98MOL    O3935153   2.664   2.546   5.867  0.6605 -0.0042 -0.9460
   98MOL    C4035154   2.455   2.545   5.999  0.1144 -0.2642 -0.2207
   98MOL    C4135155   2.382   2.481   5.876 -0.3223 -0.3971 -0.4079
   98MOL    C4235156   2.240   2.442   5.914 -0.8193  0.2461  0.0535
   98MOL    C4335157   2.162   2.407   5.789  0.3505  0.2906  0.4766
   98MOL    C4435158   2.026   2.350   5.817 -0.4765  0.2656 -0.5686
   98MOL    O4535159   1.963   2.322   5.688 -0.1875  0.4931  0.1306
   98MOL    H4635160   2.403   2.637   6.029  0.0364 -1.4329  3.4730
   98MOL    H4735161   2.435   2.477   6.082 -1.4192 -0.1972 -0.5147
   98MOL    H4835162   2.427   2.389   5.840 -3.1660 -1.3984 -1.4835
   98MOL    H4935163   2.371   2.550   5.792  0.2991  1.4697  1.0043
   98MOL    H5035164   2.192   2.514   5.981 -0.4856  0.4880  0.0333
   98MOL    H5135165   2.237   2.351   5.975  0.5042  0.7099  0.8368
   98MOL    H5235166   2.208   2.327   5.731 -2.9956  0.1949 -2.2524
   98MOL    H5335167   2.144   2.486   5.716 -1.6030 -2.1837 -1.8876
   98MOL    H5435168   2.040   2.261   5.878  1.2959  0.8128 -0.1269
   98MOL    H5535169   1.970   2.421   5.878 -0.7921  0.3820 -0.9977
   98MOL    C5635170   1.928   2.197   5.668 -0.2170 -0.2881  0.5183
   98MOL    O5735171   1.934   2.097   5.740  0.2288  0.7029  0.1894
   98MOL    C5835172   1.887   2.182   5.520 -0.9417  0.1438 -0.0842
   98MOL    C5935173   2.002   2.146   5.416 -0.4324  0.3489 -0.9311
   98MOL    C6035174   2.107   2.254   5.409  0.0778  0.4879  0.1821
   98MOL    C6135175   2.201   2.213   5.297 -0.8856 -0.8968 -0.5896
   98MOL    C6235176   2.335   2.294   5.298 -0.3778  0.6165 -0.5268
   98MOL    O6335177   2.306   2.432   5.277  0.1173  0.1353 -0.5818
   98MOL    H6435178   1.826   2.268   5.494  0.0850  0.7863 -0.3747
   98MOL    H6535179   1.824   2.093   5.518  0.7839 -1.1143  0.0059
   98MOL    H6635180   1.950   2.122   5.323 -1.5739 -0.7601 -0.0201
   98MOL    H6735181   2.044   2.054   5.455  2.3137  1.0847 -2.0520
   98MOL    H6835182   2.155   2.267   5.506 -0.7241  1.9980  0.4024
   98MOL    H6935183   2.068   2.355   5.396 -0.3517  0.4509  1.1379
   98MOL    H7035184   2.145   2.241   5.208 -2.5938  0.6729  0.9209
   98MOL    H7135185   2.207   2.104   5.296  1.8737 -0.7881  0.3082
   98MOL    H7235186   2.393   2.269   5.387  1.4364 -1.1862 -2.1575
   98MOL    H7335187   2.391   2.247   5.216  0.7067  0.3032  0.3910
   98MOL    C7435188   2.334   2.526   5.374  0.4023 -0.0353 -0.0285
   98MOL    O7535189   2.372   2.504   5.492 -0.8925  0.4258 -0.0752
   98MOL    C7635190   2.314   2.665   5.324 -0.0255  0.0523  0.0167
   98MOL    C7735191   2.417   2.719   5.218 -0.0239  0.5829  0.2309
   98MOL    C7835192   2.366   2.714   5.072 -0.9269  0.4741  0.0049
   98MOL    C7935193   2.471   2.757   4.964 -0.0666  0.4045  0.4290
   98MOL    C8035194   2.422   2.756   4.815  0.0964 -0.3832  0.5043
   98MOL    O8135195   2.520   2.752   4.713  0.3437  0.6425 -0.3375
   98MOL    H8235196   2.335   2.727   5.412 -1.8926  0.3944  0.2357
   98MOL    H8335197   2.207   2.682   5.315  0.2457  2.2231  0.6062
   98MOL    H8435198   2.510   2.663   5.226  0.9584  2.0632 -0.5284
   98MOL    H8535199   2.442   2.819   5.251 -2.3689  1.0587  0.6597
   98MOL    H8635200   2.282   2.784   5.070  0.6838  2.4630  0.0757
   98MOL    H8735201   2.314   2.620   5.056 -0.9085  0.4886 -0.1461
   98MOL    H8835202   2.557   2.691   4.975  0.3145  0.7008 -0.7378
   98MOL    H8935203   2.514   2.856   4.978 -0.8218  0.7781  0.1505
   98MOL    H9035204   2.353   2.672   4.816 -0.6362  0.1896 -0.6445
   98MOL    H9135205   2.356   2.833   4.775  0.2119 -0.2014  0.6620
   98MOL    C9235206   2.481   2.736   4.593 -0.7882  0.2836 -0.2172
   98MOL    O9335207   2.369   2.691   4.561 -0.2632 -0.5899 -0.6910
   98MOL    C9435208   2.591   2.789   4.494  0.2299 -0.0145 -0.9466
   98MOL    C9535209   2.586   2.727   4.352  0.1366  0.1602  0.1064
   98MOL    C9635210   2.634   2.579   4.335  0.0556 -0.0245  0.2604
   98MOL    C9735211   2.762   2.540   4.415  0.4483  0.4286 -0.3116
   98MOL    C9835212   2.822   2.406   4.376  0.0332  0.3620  0.5885
   98MOL    O9935213   2.745   2.302   4.424  0.2020  0.2215 -0.5083
   98MOL   H10035214   2.687   2.766   4.540 -0.6017  0.0290  0.8699
   98MOL   H10135215   2.581   2.896   4.477  3.3933  0.4740 -0.0529
   98MOL   H10235216   2.648   2.791   4.289  0.8478 -1.3922 -0.7796
   98MOL   H10335217   2.484   2.731   4.315  1.3360 -1.3134 -3.5263
   98MOL   H10435218   2.646   2.546   4.231 -0.3659  1.1528 -0.1676
   98MOL   H10535219   2.550   2.514   4.358  0.4600 -0.9671 -0.8577
   98MOL   H10635220   2.742   2.554   4.522 -0.4934  2.1552 -0.6978
   98MOL   H10735221   2.844   2.611   4.400  0.5456  0.5941  0.9371
   98MOL   H10835222   2.829   2.386   4.269  1.5392 -1.1951  0.9605
   98MOL   H10935223   2.924   2.399   4.413 -0.0454  2.2733  1.2505
   98MOL   C11035224   2.673   2.225   4.349  0.5455 -0.6570  0.2734
   98MOL   O11135225   2.671   2.224   4.226  0.2479 -0.1134 -0.4319
   98MOL   C11235226   2.581   2.126   4.436 -0.3392  0.2139  0.6791
   98MOL   C11335227   2.430   2.164   4.440 -0.2219  0.0504  0.2648
   98MOL   C11435228   2.346   2.082   4.346  0.0211  0.1473 -0.0807
   98MOL   C11535229   2.364   2.125   4.200 -0.5423  0.3519 -0.3106
   98MOL   C11635230   2.292   2.030   4.106 -0.0794 -1.0750 -0.5121
   98MOL   O11735231   2.156   2.011   4.138  0.1355  0.1663  0.5043
   98MOL   H11835232   2.624   2.116   4.536  0.5039  3.2518  0.6574
   98MOL   H11935233   2.593   2.026   4.392 -1.6978  0.4261 -0.1935
   98MOL   H12035234   2.421   2.270   4.420  0.7775  0.1262  0.2216
   98MOL   H12135235   2.395   2.157   4.543  0.9187  1.4281  0.7578
   98MOL   H12235236   2.246   2.098   4.386  0.6565  0.0527  1.5828
   98MOL   H12335237   2.373   1.977   4.361  0.2034  0.3199  0.8860
   98MOL   H12435238   2.469   2.112   4.174 -0.7281 -0.4671 -0.6618
   98MOL   H12535239   2.342   2.231   4.188  1.0382  0.9031  1.3876
   98MOL   H12635240   2.295   2.071   4.005 -0.2680  1.5220  0.4988
   98MOL   H12735241   2.332   1.930   4.090  3.0693 -0.0503  0.6415
   98MOL   C12835242   2.110   1.890   4.175 -0.1542  0.5913  0.1665
   98MOL   O12935243   2.179   1.794   4.206 -0.5070 -0.2771 -0.2676
   98MOL   C13035244   1.963   1.877   4.192 -0.1645 -0.1308  0.3818
   98MOL   C13135245   1.907   1.956   4.309 -0.2580 -0.2641  0.3804
   98MOL   C13235246   1.757   1.943   4.331 -0.5659  0.3827 -0.4791
   98MOL   C13335247   1.667   2.022   4.230  0.5200 -0.1863 -0.2872
   98MOL   C13435248   1.647   2.173   4.258 -0.3822  0.5821 -0.4571
   98MOL   O13535249   1.585   2.186   4.381  0.3051 -0.1228  0.3860
   98MOL   H13635250   1.925   1.775   4.198 -1.2776  0.3087  0.9184
   98MOL   H13735251   1.925   1.918   4.098  1.6645 -0.6716 -0.6135
   98MOL   H13835252   1.924   2.063   4.299 -0.3019 -0.2238  0.7307
   98MOL   H13935253   1.958   1.912   4.395 -2.3272  0.9926  2.3084
   98MOL   H14035254   1.742   1.980   4.433  0.4381  2.1245 -0.9446
   98MOL   H14135255   1.737   1.836   4.333  2.3016 -0.1858 -0.1998
   98MOL   H14235256   1.565   1.982   4.228  0.6712 -0.5536 -0.7484
   98MOL   H14335257   1.701   2.016   4.126  2.0963  0.5710  0.1796
   98MOL   H14435258   1.744   2.223   4.251  1.0587 -2.2685 -1.7488
   98MOL   H14535259   1.581   2.223   4.188 -1.2021 -0.7897 -0.6898
   98MOL   C14635260   1.579   2.308   4.428  0.1415 -0.0973 -0.4266
   98MOL   O14735261   1.626   2.406   4.369 -0.5567 -0.0470 -0.6048
   98MOL   C14835262   1.513   2.313   4.570 -0.3892 -0.7067 -0.0675
   98MOL   C14935263   1.613   2.333   4.684 -0.2406 -0.6168 -0.3683
   98MOL   C15035264   1.540   2.336   4.821  0.0549  0.6233 -0.3558
   98MOL   C15135265   1.631   2.369   4.945 -0.3464 -0.3859  0.6970
   98MOL   C15235266   1.546   2.408   5.067  0.2603  0.8953 -0.8529
   98MOL   O15335267   1.498   2.290   5.124 -0.4525 -0.4138  0.0245
   98MOL   H15435268   1.487   2.207   4.580 -1.2994 -0.3045  2.1657
   98MOL   H15535269   1.413   2.357   4.577 -0.6123 -1.1348 -0.5075
   98MOL   H15635270   1.647   2.435   4.662  0.5108 -1.2779 -2.3541
   98MOL   H15735271   1.695   2.261   4.676  1.2935  0.9642  0.5843
   98MOL   H15835272   1.504   2.234   4.836  0.3827  0.6175  0.4236
   98MOL   H15935273   1.455   2.404   4.814 -0.9897 -0.6913 -0.5545
   98MOL   H16035274   1.687   2.458   4.915 -0.7501 -1.0865 -2.2295
   98MOL   H16135275   1.700   2.287   4.966 -0.0186 -0.3871 -0.3669
   98MOL   H16235276   1.607   2.454   5.145  1.3702 -0.9628 -0.5887
   98MOL   H16335277   1.462   2.477   5.063  0.8221  1.4814 -2.8287
   98MOL   C16435278   1.559   2.235   5.226 -0.0790  0.1151 -0.1141
   98MOL   O16535279   1.674   2.247   5.267  0.2496 -0.1284 -0.0601
   98MOL   C16635280   1.462   2.132   5.284  0.1618  0.0988 -0.3788
   98MOL   C16735281   1.502   2.093   5.431 -0.3320  0.3634 -0.2305
   98MOL   C16835282   1.612   1.978   5.418 -0.2529  0.2259 -0.9867
   98MOL   C16935283   1.641   1.904   5.551  0.0306 -0.3598  0.3827
   98MOL   C17035284   1.756   1.795   5.538 -0.0657  0.5303 -0.0188
   98MOL   O17135285   1.777   1.731   5.665  0.3229  0.6705  0.5091
   98MOL   H17235286   1.441   2.043   5.224 -0.0954 -0.1598  0.0966
   98MOL   H17335287   1.359   2.170   5.288 -0.8514 -2.7668  2.4299
   98MOL   H17435288   1.413   2.052   5.478  0.0688 -1.2307 -0.8022
   98MOL   H17535289   1.548   2.178   5.481 -0.8616  0.2994  0.3584
   98MOL   H17635290   1.696   2.024   5.367  0.2642  0.5446  0.1208
   98MOL   H17735291   1.572   1.904   5.350  1.6945 -0.9404 -0.9051
   98MOL   H17835292   1.556   1.858   5.600 -1.5724  3.2408  1.1972
   98MOL   H17935293   1.665   1.979   5.626  0.8658 -1.7534  1.5203
   98MOL   H18035294   1.724   1.721   5.464 -1.3816  0.6748  0.3917
   98MOL   H18135295   1.841   1.847   5.495 -2.2041  0.5334 -4.5975
   98MOL   C18235296   1.898   1.695   5.716 -0.1684 -0.4208  0.1521
   98MOL   O18335297   2.007   1.727   5.670 -0.5653  0.0275 -0.2562
   98MOL   C18435298   1.879   1.608   5.840  0.5861 -0.3138  0.0665
   98MOL   C18535299   1.993   1.521   5.875 -0.1573 -0.3343 -0.3797
   98MOL   C18635300   2.009   1.389   5.794 -0.0486  0.1879  0.0117
   98MOL   C18735301   2.099   1.278   5.866 -0.9420 -0.0469 -0.8766
   98MOL   C18835302   2.138   1.157   5.786  0.6984  0.0432  0.1963
   98MOL   O18935303   2.205   1.188   5.665 -0.1965  0.3288 -0.0746
   98MOL   H19035304   1.790   1.545   5.843  0.0946  0.2121 -2.3178
   98MOL   H19135305   1.873   1.672   5.928  0.4907 -1.7733  1.1409
   98MOL   H19235306   1.974   1.486   5.977  1.3571  0.8347  0.3211
   98MOL   H19335307   2.092   1.566   5.889 -0.6456  0.8340 -0.6424
   98MOL   H19435308   2.055   1.402   5.696  2.1224 -0.8231  0.8608
   98MOL   H19535309   1.910   1.348   5.772  1.0837 -0.8672 -3.4811
   98MOL   H19635310   2.050   1.253   5.960  0.2035 -2.1740 -0.8083
   98MOL   H19735311   2.193   1.323   5.896 -2.5241  3.0538 -0.3671
   98MOL   H19835312   2.195   1.088   5.848  2.2018  1.7668  0.7758
   98MOL   H19935313   2.041   1.111   5.766  0.5285 -0.4287  2.0736
   98MOL   C20035314   2.186   1.109   5.563  0.4203  0.7785 -0.1297
   98MOL   O20135315   2.129   0.999   5.565 -0.1549  0.0546  0.5857
   98MOL   C20235316   2.253   1.168   5.436 -0.1665  0.1927  0.1912
   98MOL   C20335317   2.405   1.132   5.430  0.0915 -0.1300  0.0030
   98MOL   C20435318   2.432   0.994   5.373 -0.1171  0.1271 -0.3086
   98MOL   C20535319   2.581   0.952   5.389 -0.3443  0.0623  0.2454
   98MOL   C20635320   2.605   0.801   5.346 -0.3705 -0.9563  0.2976
   98MOL   O20735321   2.567   0.779   5.204 -0.1203  0.3374  0.0533
   98MOL   H20835322   2.230   1.274   5.437  1.2455  0.5421 -2.0128
   98MOL   H20935323   2.202   1.131   5.347  0.5004  1.8385 -0.8923
   98MOL   H21035324   2.441   1.127   5.533  2.0298  1.5792 -0.5628
   98MOL   H21135325   2.474   1.199   5.378  0.8180 -0.5934  0.3721
   98MOL   H21235326   2.410   0.987   5.266  2.1588 -0.7609 -0.7498
   98MOL   H21335327   2.368   0.922   5.424 -0.1129 -0.5048 -1.1891
   98MOL   H21435328   2.620   0.971   5.488  4.9340 -0.4521 -1.5657
   98MOL   H21535329   2.635   1.021   5.325  1.5508 -2.0679 -0.5121
   98MOL   H21635330   2.704   0.760   5.365 -0.1087 -0.1333  0.7513
   98MOL   H21735331   2.533   0.735   5.395 -2.5440 -1.0952 -2.9350
   98MOL   C21835332   2.639   0.717   5.116 -0.2164 -0.3444 -0.5019
   98MOL   O21935333   2.752   0.679   5.132 -0.0873 -0.5029  0.0090
   98MOL   C22035334   2.584   0.707   4.970  0.4748 -0.7200 -0.0785
   98MOL   C22135335   2.505   0.580   4.942 -0.9037 -0.1516  0.1510
   98MOL   C22235336   2.549   0.504   4.813 -0.0808 -0.5351  0.2668
   98MOL   C22335337   2.457   0.386   4.788 -0.6260  0.5809  0.1185
   98MOL   C22435338   2.470   0.324   4.646  0.2811  1.0288 -0.0706
   98MOL   O22535339   2.440   0.423   4.545 -0.0304  0.0589  0.2931
   98MOL   H22635340   2.667   0.722   4.902 -0.1519 -1.1820 -0.9530
   98MOL   H22735341   2.512   0.788   4.953  0.9602 -0.4833 -1.0220
   98MOL   H22835342   2.401   0.609   4.924 -0.5632  0.8809 -0.2314
   98MOL   H22935343   2.521   0.513   5.026 -0.7350  1.6000  1.5363
   98MOL   H23035344   2.654   0.476   4.822  0.8420  2.7862  0.6189
   98MOL   H23135345   2.534   0.564   4.723 -1.4770 -1.9690 -0.4807
   98MOL   H23235346   2.353   0.403   4.816 -1.6416 -2.3951 -1.5691
   98MOL   H23335347   2.491   0.301   4.847 -1.2452  1.7815  2.2837
   98MOL   H23435348   2.568   0.279   4.632  0.5796  0.9223  2.1942
   98MOL   H23535349   2.400   0.240   4.643  1.3937  0.0505  1.0620
   98MOL   C23635350   2.479   0.394   4.417  0.7093  0.4730 -0.3452
   98MOL   O23735351   2.529   0.284   4.389  0.0703  0.0806  0.3838
   98MOL   C23835352   2.442   0.504   4.316 -0.0335  0.1818  0.4141
   98MOL   C23935353   2.465   0.472   4.166  0.0522  0.2975 -0.0874
   98MOL   C24035354   2.611   0.481   4.123  0.2210 -0.3404 -0.4737
   98MOL   C24135355   2.629   0.457   3.971 -0.4811  0.0340 -0.0307
   98MOL   C24235356   2.756   0.494   3.907 -0.2675  0.4706 -0.6118
   98MOL   O24335357   2.773   0.637   3.904 -0.7933 -0.2440  0.0029
   98MOL   H24435358   2.493   0.596   4.344  2.1124  0.0513 -2.7685
   98MOL   H24535359   2.339   0.540   4.320  0.3571  1.1480  1.9978
   98MOL   H24635360   2.401   0.543   4.114 -2.7922 -0.3568  2.2991
   98MOL   H24735361   2.420   0.374   4.147  0.9755  0.1572 -1.6164
   98MOL   H24835362   2.667   0.405   4.178  1.5582  0.6999 -0.3807
   98MOL   H24935363   2.654   0.577   4.151  0.5514 -0.3840 -0.8194
   98MOL   H25035364   2.547   0.507   3.919  0.0065  0.5769 -0.2818
   98MOL   H25135365   2.609   0.351   3.951 -0.9269  0.1247 -0.0813
   98MOL   H25235366   2.842   0.452   3.959 -0.0133 -0.0104 -1.4237
   98MOL   H25335367   2.753   0.452   3.807 -1.9561 -0.3435 -0.2294
   98MOL   C25435368   2.703   0.705   3.816  0.1676  0.5267 -0.3840
   98MOL   O25535369   2.624   0.654   3.741  0.3014 -0.5887  0.5057
   98MOL   C25635370   2.740   0.854   3.809 -0.1258  0.0326 -0.7537
   98MOL   C25735371   2.885   0.880   3.744  0.5490  0.1623  0.0437
   98MOL   C25835372   2.891   0.830   3.595 -0.2698  0.4611  0.1687
   98MOL   C25935373   3.024   0.844   3.525 -0.6180  0.0825  0.1954
   98MOL   C26035374   3.019   0.817   3.378 -0.3237 -0.5179 -0.4456
   98MOL   O26135375   3.151   0.835   3.321  0.8348  0.1564  0.3391
   98MOL   H26235376   2.745   0.886   3.913  1.1618 -0.2638 -0.7162
   98MOL   H26335377   2.657   0.911   3.767 -1.1017 -1.4393 -0.8366
   98MOL   H26435378   2.949   0.811   3.799  1.3673 -1.5787 -2.9639
   98MOL   H26535379   2.929   0.979   3.749  0.8728 -0.0628  2.3199
   98MOL   H26635380   2.813   0.882   3.540 -0.0963 -0.3917 -0.9034
   98MOL   H26735381   2.865   0.725   3.584  0.2231  0.5857 -2.4566
   98MOL   H26835382   3.079   0.758   3.562  0.2114  1.2510  1.7470
   98MOL   H26935383   3.073   0.936   3.555  1.2226 -1.2547  1.3837
   98MOL   H27035384   2.999   0.710   3.372  0.0018 -0.6498  0.6533
   98MOL   H27135385   2.941   0.882   3.340 -0.1723  1.1277  1.9461
   98MOL   C27235386   3.168   0.828   3.190 -0.0948  0.0913 -0.3493
   98MOL   O27335387   3.076   0.832   3.105 -0.2235 -0.3357 -0.3376
   98MOL   C27435388   3.314   0.832   3.145  0.2455  0.7724  0.6762
   98MOL   C27535389   3.375   0.686   3.143 -0.3291 -0.6782  0.1669
   98MOL   C27635390   3.518   0.686   3.099  0.3272  1.2051 -0.4729
   98MOL   C27735391   3.578   0.543   3.120  0.1620 -0.2014 -0.7205
   98MOL   C27835392   3.725   0.530   3.090 -0.1646 -0.0207  0.2744
   98MOL   O27935393   3.785   0.626   3.177 -0.0756  0.5113 -0.3769
   98MOL   H28035394   3.377   0.889   3.214  1.2935  0.2536  0.1499
   98MOL   H28135395   3.320   0.873   3.044 -1.2244  0.7663  0.5726
   98MOL   H28235396   3.322   0.633   3.063 -1.3472  1.1644 -0.4205
   98MOL   H28335397   3.366   0.644   3.243 -2.4859 -0.7553 -0.0204
   98MOL   H28435398   3.572   0.750   3.169  1.3104 -0.6623  0.5379
   98MOL   H28535399   3.548   0.724   3.001 -0.2219  0.7607 -0.8165
   98MOL   H28635400   3.525   0.480   3.049 -1.4445 -0.8449  1.0015
   98MOL   H28735401   3.556   0.506   3.220  2.4745  0.4892  0.0605
   98MOL   H28835402   3.760   0.427   3.103 -2.8815 -0.9023  0.9955
   98MOL   H28935403   3.741   0.561   2.987  0.5969 -2.3044 -0.3466
   98MOL   C29035404   3.914   0.669   3.151  0.0369 -0.4022  0.3407
   98MOL   O29135405   4.001   0.617   3.077  0.2591  0.2517  0.7433
   98MOL   C29235406   3.942   0.796   3.232  0.4460 -0.3638  0.1927
   98MOL   C29335407   3.948   0.784   3.386  0.2130 -0.1971 -0.7833
   98MOL   C29435408   4.053   0.870   3.452 -0.8570 -0.5722 -0.4036
   98MOL   C29535409   4.018   1.019   3.442  0.2466  0.2669  0.5193
   98MOL   C29635410   4.053   1.096   3.567  0.1133 -0.3797  0.2918
   98MOL   O29735411   4.192   1.107   3.597  0.1941 -0.2416  0.6682
   98MOL   H29835412   3.860   0.867   3.219  0.8262  0.2715  1.1609
   98MOL   H29935413   4.021   0.853   3.185 -0.6454  0.9109 -0.1426
   98MOL   H30035414   3.964   0.680   3.416 -0.8429 -0.0374  0.3772
   98MOL   H30135415   3.850   0.804   3.430  0.6283  3.2535 -1.3164
   98MOL   H30235416   4.151   0.853   3.406 -0.9559 -0.5364 -0.6260
   98MOL   H30335417   4.056   0.844   3.558  0.7415 -1.8743 -0.7431
   98MOL   H30435418   3.912   1.042   3.430  0.3761 -0.0897 -1.6294
   98MOL   H30535419   4.049   1.066   3.349  1.6908  1.6692  1.6920
   98MOL   H30635420   4.016   1.196   3.546  0.5267 -0.5186 -1.0987
   98MOL   H30735421   4.003   1.054   3.655 -0.8853  2.7662  1.3044
   98MOL   C30835422   4.233   1.091   3.720  0.1028 -0.2607 -0.2186
   98MOL   O30935423   4.168   1.041   3.809  0.3231  0.5195  0.7949
   98MOL   C31035424   4.378   1.127   3.749 -0.4008  0.0477  0.0339
   98MOL   C31135425   4.404   1.258   3.822  0.0660  0.6530  0.4393
   98MOL   C31235426   4.389   1.373   3.721 -0.5600  0.2080  0.0780
   98MOL   C31335427   4.378   1.505   3.791 -0.3915  0.5202 -0.0027
   98MOL   C31435428   4.345   1.628   3.699 -0.6366  0.2750  0.0521
   98MOL   O31535429   4.462   1.654   3.614  0.0348  0.4659 -0.1159
   98MOL   H31635430   4.431   1.130   3.654 -2.9199  1.0814 -1.4024
   98MOL   H31735431   4.424   1.049   3.810  2.2255  0.4278 -1.3964
   98MOL   H31835432   4.506   1.252   3.858 -0.8340 -1.3211  2.8369
   98MOL   H31935433   4.334   1.250   3.905  0.7273 -1.6334  0.8027
   98MOL   H32035434   4.309   1.344   3.653 -1.0537 -1.0385  1.1612
   98MOL   H32135435   4.483   1.383   3.666  0.1730  3.1475  1.7361
   98MOL   H32235436   4.467   1.524   3.850 -0.7177  2.8304 -0.2141
   98MOL   H32335437   4.296   1.494   3.862 -2.6252  0.5972 -2.4952
   98MOL   H32435438   4.253   1.617   3.642  1.3282  0.9090 -3.3434
   98MOL   H32535439   4.333   1.720   3.757  1.5731  0.0269  0.9406
   98MOL   C32635440   4.577   1.702   3.666  0.8191 -0.1574  0.3105
   98MOL   O32735441   4.601   1.716   3.787 -0.2258 -0.5130  0.2441
   98MOL   C32835442   4.687   1.729   3.567 -0.4334  0.9890  0.4521
   98MOL   C32935443   4.678   1.644   3.435 -0.3062  0.1565 -0.3369
   98MOL   C33035444   4.590   1.706   3.318  0.2222 -0.2682 -0.0544
   98MOL   C33135445   4.554   1.593   3.225  0.1286 -0.1380  0.2237
   98MOL   C33235446   4.450   1.649   3.124 -0.2043 -0.4843 -0.4976
   98MOL   O33335447   4.438   1.553   3.022  0.5055  0.5072 -0.2666
   98MOL   H33435448   4.778   1.709   3.624 -1.9439  0.2916  2.6934
   98MOL   H33535449   4.691   1.834   3.537 -2.1049  0.2196 -2.6908
   98MOL   H33635450   4.632   1.551   3.468  1.4649 -0.6019 -0.0054
   98MOL   H33735451   4.773   1.606   3.400 -0.4015 -0.6361  0.2494
   98MOL   H33835452   4.650   1.775   3.260 -1.6303 -0.7822 -2.6802
   98MOL   H33935453   4.499   1.761   3.344 -0.2232  0.0564 -2.2551
   98MOL   H34035454   4.514   1.498   3.263  0.8314 -0.6674 -0.3600
   98MOL   H34135455   4.638   1.580   3.157  0.8310 -1.5136  1.3153
   98MOL   H34235456   4.352   1.662   3.170 -0.0028 -1.6691  0.2872
   98MOL   H34335457   4.484   1.746   3.087 -0.3256 -0.4480 -0.5132
   98MOL   C34435458   4.315   1.534   2.970 -0.9279  0.8263  0.5193
   98MOL   O34535459   4.217   1.610   2.972 -0.0251 -0.2585  0.1572
   98MOL   C34635460   4.298   1.394   2.913 -0.4090  0.9065 -0.2606
   98MOL   C34735461   4.383   1.356   2.795 -0.4451  0.3588  0.5801
   98MOL   C34835462   4.337   1.414   2.660 -0.3570 -0.1398  1.3015
   98MOL   C34935463   4.433   1.383   2.535  0.6115  0.3145 -0.4548
   98MOL   C35035464   4.376   1.424   2.401  0.2932 -0.9787 -0.0116
   98MOL   O35135465   4.485   1.422   2.304  0.1674 -0.7444 -0.7109
   98MOL   H35235466   4.194   1.380   2.883 -0.3109 -0.0502 -0.1905
   98MOL   H35335467   4.323   1.324   2.993 -1.5283 -0.8736 -1.4299
   98MOL   H35435468   4.384   1.247   2.785  1.7643  0.1573  2.4921
   98MOL   H35535469   4.491   1.369   2.792 -0.5076  0.6524 -0.4299
   98MOL   H35635470   4.339   1.523   2.673 -0.4836 -0.1412  1.3346
   98MOL   H35735471   4.233   1.393   2.637 -0.6937  0.6484  2.0254
   98MOL   H35835472   4.454   1.276   2.530  0.4577  0.2473  0.2944
   98MOL   H35935473   4.527   1.435   2.552 -0.5975  2.3953  0.1266
   98MOL   H36035474   4.305   1.349   2.365 -0.9381  1.1162 -2.0760
   98MOL   H36135475   4.316   1.515   2.399 -0.9522 -1.7858  0.0885
   98MOL   H36235476   4.449   1.421   2.217  0.8188  2.0939 -1.0489
   99MOL     C135477   2.041   6.896   3.453 -0.5151  0.6816  0.0917
   99MOL     O235478   2.034   6.781   3.499  1.0272 -0.1842 -0.1689
   99MOL     C335479   1.921   6.988   3.450 -0.5605  0.0474  0.7791
   99MOL     C435480   1.838   7.003   3.580 -0.1451  0.0773 -0.3495
   99MOL     C535481   1.912   7.079   3.691  0.4643 -0.9985  0.2672
   99MOL     C635482   1.845   7.066   3.825 -0.3668  0.7901 -0.1302
   99MOL     C735483   1.927   7.107   3.943  0.3906  0.8555  1.4848
   99MOL     O835484   1.843   7.103   4.051 -0.3769 -0.4067 -1.3089
   99MOL     H935485   1.862   6.961   3.363 -0.2686 -0.0049  0.5986
   99MOL    H1035486   1.948   7.091   3.428 -2.9405  0.8684  1.5077
   99MOL    H1135487   1.799   6.904   3.601  0.7525 -0.3378 -0.5868
   99MOL    H1235488   1.749   7.057   3.548 -0.0486  1.0757  1.0412
   99MOL    H1335489   1.920   7.182   3.657 -0.9705 -0.7999  0.4785
   99MOL    H1435490   2.009   7.032   3.703  1.3257  0.3427 -1.3128
   99MOL    H1535491   1.806   6.965   3.839  1.2274  0.1782  0.0513
   99MOL    H1635492   1.761   7.134   3.820 -0.5387  0.4494 -2.4579
   99MOL    H1735493   2.007   7.035   3.959 -0.9747 -0.4990  2.3276
   99MOL    H1835494   1.972   7.206   3.934  1.0054  0.4517 -0.0321
   99MOL    H1935495   2.129   6.936   3.402 -0.3180  0.7084  0.4479
   99MOL    C2035496   1.890   7.102   4.180 -0.0713 -0.0041  0.8061
   99MOL    O2135497   2.011   7.091   4.214  0.6558 -0.4941 -0.4579
   99MOL    C2235498   1.789   7.118   4.285  0.3283 -0.3884  0.1763
   99MOL    C2335499   1.687   7.001   4.289  0.1115  0.7996  0.4846
   99MOL    C2435500   1.724   6.896   4.402 -0.7312  0.0185 -0.3283
   99MOL    C2535501   1.675   6.751   4.361  0.5401 -0.3872  0.2268
   99MOL    C2635502   1.751   6.644   4.431 -0.4262  0.4583 -0.3594
   99MOL    O2735503   1.886   6.640   4.382  0.1330 -0.7579  0.6650
   99MOL    H2835504   1.743   7.215   4.269 -1.8937 -1.4657 -0.1227
   99MOL    H2935505   1.850   7.128   4.374  0.4902 -0.4102  0.0678
   99MOL    H3035506   1.675   6.945   4.197  0.1318 -0.7321  1.4056
   99MOL    H3135507   1.583   7.033   4.296 -0.4459  0.0789 -3.5940
   99MOL    H3235508   1.678   6.922   4.497  0.8331  2.6348 -0.2207
   99MOL    H3335509   1.831   6.894   4.420 -0.6897 -0.9605 -0.6512
   99MOL    H3435510   1.675   6.741   4.252 -5.3153  1.3034 -0.0698
   99MOL    H3535511   1.576   6.746   4.405 -0.4187  0.0390 -1.8436
   99MOL    H3635512   1.741   6.674   4.535 -1.3532  1.7354 -0.8001
   99MOL    H3735513   1.698   6.552   4.405 -0.0638  0.0917  0.1865
   99MOL    C3835514   1.917   6.559   4.282 -0.5463  0.0058 -0.6054
   99MOL    O3935515   1.840   6.487   4.220 -0.3618 -0.0072  0.5532
   99MOL    C4035516   2.062   6.569   4.253 -0.0988  0.7923 -0.5990
   99MOL    C4135517   2.105   6.709   4.214 -0.1229  0.0651  0.4505
   99MOL    C4235518   2.234   6.710   4.139  0.2920  0.1465  0.0573
   99MOL    C4335519   2.281   6.860   4.126  0.4992  0.1475 -0.0510
   99MOL    C4435520   2.277   6.920   3.977  0.1906  0.9124  1.2093
   99MOL    O4535521   2.357   6.833   3.890 -0.2768  0.5185  0.1510
   99MOL    H4635522   2.078   6.499   4.171  1.2428  2.3306 -1.7080
   99MOL    H4735523   2.127   6.525   4.329 -2.0337 -0.0816  0.5693
   99MOL    H4835524   2.121   6.763   4.307  2.5662  1.6071 -0.8461
   99MOL    H4935525   2.035   6.763   4.151  0.3734  1.2285  0.8984
   99MOL    H5035526   2.195   6.669   4.046 -0.4356 -2.2143  1.3692
   99MOL    H5135527   2.309   6.642   4.178  0.6110  1.0257  1.0315
   99MOL    H5235528   2.377   6.886   4.170 -0.4906  1.2968  1.4564
   99MOL    H5335529   2.213   6.930   4.176 -0.0022 -0.6084  0.3308
   99MOL    H5435530   2.173   6.916   3.943  0.4756  0.7321  0.3476
   99MOL    H5535531   2.309   7.024   3.968 -0.3057  0.9382 -0.3743
   99MOL    C5635532   2.348   6.828   3.759  0.3173 -0.1600 -0.1761
   99MOL    O5735533   2.262   6.882   3.692 -0.4802  0.0762  0.4507
   99MOL    C5835534   2.460   6.747   3.701 -0.2776  0.2022  0.2375
   99MOL    C5935535   2.428   6.687   3.558 -0.6527 -0.1411 -0.5314
   99MOL    C6035536   2.329   6.570   3.560 -0.0051  0.2564  0.2242
   99MOL    C6135537   2.283   6.526   3.420 -0.0230  0.2799 -0.0911
   99MOL    C6235538   2.179   6.413   3.421 -0.0362  0.1759 -0.3884
   99MOL    O6335539   2.213   6.303   3.507  0.7665 -0.3476 -0.6914
   99MOL    H6435540   2.486   6.670   3.774  2.4104 -0.6883 -1.5767
   99MOL    H6535541   2.527   6.831   3.683  0.4614 -0.6677 -1.1513
   99MOL    H6635542   2.518   6.654   3.506 -0.7714  0.1695 -0.9405
   99MOL    H6735543   2.395   6.770   3.495  0.8026  1.5311  0.8267
   99MOL    H6835544   2.247   6.604   3.622  0.1084  0.5780  0.2027
   99MOL    H6935545   2.378   6.489   3.614 -0.1274 -0.2398 -0.4126
   99MOL    H7035546   2.367   6.507   3.354 -0.9389 -2.1943 -0.5814
   99MOL    H7135547   2.232   6.611   3.375 -1.2267 -0.1213  0.5003
   99MOL    H7235548   2.078   6.441   3.451  0.8669  1.9339  1.1315
   99MOL    H7335549   2.158   6.378   3.320 -0.5105 -0.6878  0.0074
   99MOL    C7435550   2.148   6.184   3.487  0.2582  1.2683  0.8046
   99MOL    O7535551   2.076   6.152   3.395 -0.6387 -0.4107 -0.3930
   99MOL    C7635552   2.181   6.076   3.586 -0.8402 -0.8725  0.2004
   99MOL    C7735553   2.207   5.938   3.514  0.2277 -0.1721 -1.1654
   99MOL    C7835554   2.260   5.833   3.606  0.5800  0.0347  0.6549
   99MOL    C7935555   2.251   5.690   3.546  0.2077  0.5324 -0.0508
   99MOL    C8035556   2.295   5.587   3.648 -0.8235 -0.5934  0.0165
   99MOL    O8135557   2.436   5.581   3.664  0.6275 -0.1606 -0.2292
   99MOL    H8235558   2.085   6.068   3.637  0.7456  1.7157  3.8256
   99MOL    H8335559   2.251   6.098   3.667  2.6060 -1.1688 -2.5913
   99MOL    H8435560   2.273   5.943   3.427  0.1274  0.4323 -1.2095
   99MOL    H8535561   2.108   5.911   3.479  0.2446 -1.5381 -0.2134
   99MOL    H8635562   2.212   5.830   3.704  1.8397  0.0484  1.2873
   99MOL    H8735563   2.363   5.851   3.638  0.3140  2.6119  0.2016
   99MOL    H8835564   2.307   5.673   3.454  2.6398  0.0324  1.4874
   99MOL    H8935565   2.149   5.673   3.511  0.4092 -0.5360 -0.1316
   99MOL    H9035566   2.250   5.597   3.747 -3.7853 -1.8610 -1.1704
   99MOL    H9135567   2.256   5.485   3.646 -0.6813 -0.6338 -0.9360
   99MOL    C9235568   2.502   5.506   3.572 -0.0287  0.4267 -0.1615
   99MOL    O9335569   2.455   5.471   3.466  0.0509 -0.7104 -0.2326
   99MOL    C9435570   2.650   5.492   3.611  1.4417 -1.0505  0.2785
   99MOL    C9535571   2.731   5.618   3.623 -0.0897  0.3902 -0.4049
   99MOL    C9635572   2.804   5.640   3.755 -0.1876 -0.6345 -0.7422
   99MOL    C9735573   2.865   5.780   3.757 -0.4659 -0.4253 -0.4688
   99MOL    C9835574   2.941   5.815   3.888  0.2857  0.8648 -0.1112
   99MOL    O9935575   3.040   5.717   3.913 -0.2956  0.3685 -0.3231
   99MOL   H10035576   2.707   5.422   3.549  0.4016 -1.3420 -0.3633
   99MOL   H10135577   2.656   5.440   3.707 -0.8837 -2.3582 -0.2317
   99MOL   H10235578   2.667   5.704   3.602 -0.8165 -0.6957 -2.8464
   99MOL   H10335579   2.805   5.617   3.544 -0.0206  1.1227 -0.3543
   99MOL   H10435580   2.878   5.562   3.769  1.3735  1.4365  3.1536
   99MOL   H10535581   2.727   5.633   3.832  0.7219  2.5014  0.5056
   99MOL   H10635582   2.773   5.837   3.744 -0.2072  0.4650  1.4580
   99MOL   H10735583   2.929   5.813   3.676 -0.4941  0.2956 -0.1980
   99MOL   H10835584   2.978   5.917   3.875 -1.5218  1.3053 -2.1164
   99MOL   H10935585   2.866   5.808   3.967 -0.6307  1.7514 -0.8892
   99MOL   C11035586   3.169   5.750   3.911 -0.5100 -0.8257 -0.6797
   99MOL   O11135587   3.212   5.869   3.892  0.1222 -0.3016  0.2478
   99MOL   C11235588   3.267   5.640   3.952  0.1794 -0.5924  0.1172
   99MOL   C11335589   3.245   5.519   3.870 -0.4275 -0.3608  0.3279
   99MOL   C11435590   3.255   5.536   3.717  0.8725  0.8847  0.3448
   99MOL   C11535591   3.397   5.560   3.669 -0.0152 -0.1041  0.6133
   99MOL   C11635592   3.397   5.531   3.515  0.1057  0.3402 -0.4317
   99MOL   O11735593   3.517   5.572   3.454  0.1465 -0.3086  0.0447
   99MOL   H11835594   3.273   5.615   4.058  0.0432  0.4131  0.3635
   99MOL   H11935595   3.367   5.680   3.932 -0.2566  1.2393  1.4689
   99MOL   H12035596   3.142   5.492   3.892 -1.4503  1.9662 -1.3593
   99MOL   H12135597   3.318   5.443   3.900 -1.4290 -0.4102  2.6848
   99MOL   H12235598   3.195   5.620   3.683 -1.1212 -0.1391  1.2368
   99MOL   H12335599   3.206   5.453   3.667 -0.3939  1.9361 -0.1721
   99MOL   H12435600   3.468   5.500   3.725 -0.4724 -0.7623  0.4882
   99MOL   H12535601   3.434   5.661   3.691  0.1393 -0.2655  1.1060
   99MOL   H12635602   3.374   5.427   3.496  0.4378  0.1887 -0.0171
   99MOL   H12735603   3.302   5.565   3.472 -0.6801 -0.6292  0.5146
   99MOL   C12835604   3.637   5.499   3.478  0.9965 -0.2161 -0.2090
   99MOL   O12935605   3.645   5.399   3.554 -0.0062  0.6291  0.5434
   99MOL   C13035606   3.757   5.557   3.416  0.7065 -0.0301  0.7332
   99MOL   C13135607   3.804   5.672   3.505  0.6918 -0.0545 -0.3531
   99MOL   C13235608   3.925   5.758   3.450 -0.2825 -0.2472  0.3248
   99MOL   C13335609   3.959   5.870   3.544  0.5182 -0.3921 -0.0765
   99MOL   C13435610   4.020   6.003   3.490  0.3200 -0.4487  0.4880
   99MOL   O13535611   4.159   6.014   3.499 -0.6710  0.9249  0.1728
   99MOL   H13635612   3.743   5.573   3.309 -0.4058 -1.0391  0.7022
   99MOL   H13735613   3.837   5.484   3.406  0.1123 -0.3636 -1.9317
   99MOL   H13835614   3.817   5.644   3.610  0.8417 -3.2358 -1.1749
   99MOL   H13935615   3.725   5.748   3.506  0.3859 -0.3609  1.3071
   99MOL   H14035616   3.907   5.794   3.349  2.5467  0.8795  0.1655
   99MOL   H14135617   4.016   5.698   3.450 -0.3252 -0.3661 -1.7174
   99MOL   H14235618   4.010   5.827   3.630  0.3556  0.2045  0.3211
   99MOL   H14335619   3.872   5.917   3.590  0.7915  0.1020 -0.0637
   99MOL   H14435620   3.974   6.027   3.394  0.7415 -0.7015  0.2206
   99MOL   H14535621   3.979   6.084   3.549  1.0928 -1.8071  2.9872
   99MOL   C14635622   4.240   5.988   3.391  0.0599 -0.1840 -0.7213
   99MOL   O14735623   4.205   5.957   3.278 -0.4636 -0.2070 -0.1846
   99MOL   C14835624   4.384   6.029   3.427 -0.7929 -0.3865  1.1300
   99MOL   C14935625   4.489   6.026   3.313  0.2012 -0.0102 -1.0522
   99MOL   C15035626   4.494   6.165   3.258 -0.2788  0.2761  0.2461
   99MOL   C15135627   4.581   6.168   3.130  1.2314  0.1330  0.3037
   99MOL   C15235628   4.728   6.176   3.159  0.3497  0.7297  0.2787
   99MOL   O15335629   4.762   6.304   3.212 -0.0372 -0.2803  0.6216
   99MOL   H15435630   4.438   5.972   3.502  0.7567  0.2060  0.4816
   99MOL   H15535631   4.372   6.127   3.471 -0.0407  0.4301 -0.4359
   99MOL   H15635632   4.472   5.948   3.239 -3.0736 -1.2664  0.9283
   99MOL   H15735633   4.584   6.007   3.363 -0.4360  2.1076  1.0488
   99MOL   H15835634   4.530   6.246   3.322  0.9232  0.9818 -1.2681
   99MOL   H15935635   4.396   6.196   3.222 -0.9290 -0.6189  1.2455
   99MOL   H16035636   4.551   6.252   3.067 -1.9034 -0.8172  0.4515
   99MOL   H16135637   4.558   6.075   3.077 -0.3343  0.9763 -0.5325
   99MOL   H16235638   4.752   6.106   3.238 -1.8829 -0.6003 -0.1839
   99MOL   H16335639   4.790   6.151   3.072 -0.7679 -0.7638 -0.0934
   99MOL   C16435640   4.876   6.317   3.282  0.0435  0.0706  0.2431
   99MOL   O16535641   4.950   6.217   3.309  1.1274 -0.7507 -0.1536
   99MOL   C16635642   4.899   6.459   3.331 -0.2620  0.5769 -1.1631
   99MOL   C16735643   4.787   6.508   3.429 -0.1441  0.0428 -0.3017
   99MOL   C16835644   4.852   6.572   3.546  0.2080 -0.2268 -0.6761
   99MOL   C16935645   4.745   6.617   3.644 -0.2999  1.0845 -0.1312
   99MOL   C17035646   4.690   6.756   3.603 -0.3149 -0.4321  0.0278
   99MOL   O17135647   4.788   6.851   3.639  0.2914 -0.8451  0.1226
   99MOL   H17235648   4.911   6.528   3.248  0.2329  1.5444 -0.3027
   99MOL   H17335649   5.002   6.469   3.365 -0.3569 -0.9069 -0.3685
   99MOL   H17435650   4.714   6.434   3.461  1.3833 -0.6803  1.6404
   99MOL   H17535651   4.732   6.586   3.377  1.2358  1.9917  1.0722
   99MOL   H17635652   4.918   6.651   3.509  0.2807 -0.6804 -1.5260
   99MOL   H17735653   4.904   6.494   3.601  1.2855  0.1671 -1.1185
   99MOL   H17835654   4.784   6.621   3.745  2.3870 -1.0503 -1.0199
   99MOL   H17935655   4.672   6.538   3.660  0.7192 -0.1862 -1.5835
   99MOL   H18035656   4.653   6.760   3.500  2.9159  0.1490 -1.1616
   99MOL   H18135657   4.605   6.781   3.666  0.6738  1.3490  0.6996
   99MOL   C18235658   4.792   6.958   3.560 -0.2441 -0.3500  0.4630
   99MOL   O18335659   4.705   6.992   3.478  0.2748  0.2053 -0.2307
   99MOL   C18435660   4.917   7.047   3.580 -0.2847  0.4736 -0.2794
   99MOL   C18535661   4.895   7.191   3.539  0.4641  0.5488 -0.1881
   99MOL   C18635662   5.007   7.282   3.605  0.3951 -0.0480  0.4432
   99MOL   C18735663   5.141   7.310   3.519  0.0479  0.4472 -0.2436
   99MOL   C18835664   5.231   7.414   3.574 -0.0876  0.2075  0.2758
   99MOL   O18935665   5.341   7.455   3.488 -0.4466  0.4817 -0.1974
   99MOL   H19035666   5.009   7.013   3.532 -0.2403  0.5129 -0.2211
   99MOL   H19135667   4.945   7.050   3.685  2.9851  0.9705 -1.1021
   99MOL   H19235668   4.801   7.219   3.587 -1.1419 -0.8811 -2.4257
   99MOL   H19335669   4.891   7.214   3.433 -0.8884  0.7157 -0.1124
   99MOL   H19435670   5.030   7.267   3.710  2.9481  0.6795  0.0514
   99MOL   H19535671   4.964   7.382   3.617 -1.2334 -0.6524 -0.2606
   99MOL   H19635672   5.115   7.345   3.419 -0.5920  1.7748  0.3716
   99MOL   H19735673   5.193   7.219   3.490 -0.8154 -0.0014 -0.4017
   99MOL   H19835674   5.168   7.504   3.575 -1.4697 -0.7240 -0.9623
   99MOL   H19935675   5.261   7.384   3.674 -1.0670  1.9906  1.1406
   99MOL   C20035676   5.423   7.554   3.534  0.0483  0.1694 -0.1035
   99MOL   O20135677   5.407   7.634   3.627  0.0084 -0.0568 -0.0790
   99MOL   C20235678   5.552   7.538   3.455  0.4259 -0.3607 -0.9428
   99MOL   C20335679   5.606   7.676   3.419 -0.3943 -0.3618 -0.0215
   99MOL   C20435680   5.695   7.662   3.296  0.2685 -0.1486  0.0588
   99MOL   C20535681   5.773   7.787   3.278 -0.7197 -0.0281 -0.1487
   99MOL   C20635682   5.859   7.773   3.149  0.9059  0.2885 -0.1731
   99MOL   O20735683   5.967   7.677   3.167  0.8118 -0.3169  0.2702
   99MOL   H20835684   5.547   7.463   3.376  0.4718 -2.7695  1.2630
   99MOL   H20935685   5.612   7.487   3.531 -0.8101 -0.2640  0.1273
   99MOL   H21035686   5.663   7.725   3.498 -0.0218  1.3038 -1.2956
   99MOL   H21135687   5.527   7.751   3.410  2.4364  2.8685  1.0449
   99MOL   H21235688   5.630   7.636   3.212 -0.5620 -1.1999  1.0006
   99MOL   H21335689   5.768   7.586   3.322 -0.7656 -2.6290 -3.8184
   99MOL   H21435690   5.833   7.819   3.363 -1.2960 -1.4393  0.8168
   99MOL   H21535691   5.698   0.019   3.263 -0.0229  0.1739 -2.8161
   99MOL   H21635692   5.799   7.731   3.067 -0.5982  0.4863  0.7965
   99MOL   H21735693   5.897   0.026   3.119  1.1033  0.1686 -0.3069
   99MOL   C21835694   6.068   7.701   3.257  0.3166 -0.1492 -0.0559
   99MOL   O21935695   6.075   7.787   3.342 -0.8038 -0.2396 -0.1640
   99MOL   C22035696   6.182   7.593   3.243 -0.0352 -0.2583 -0.4195
   99MOL   C22135697   6.182   7.470   3.334  0.0589 -0.3601  0.6748
   99MOL   C22235698   6.298   7.375   3.296  0.5220  0.2984 -0.3616
   99MOL   C22335699   6.297   7.255   3.399  0.7082 -0.1344 -0.0039
   99MOL   C22435700   6.391   7.137   3.366  0.0811 -0.3773  0.5896
   99MOL   O22535701   6.525   7.176   3.415 -0.4407 -0.4073 -0.0432
   99MOL   H22635702   6.274   7.652   3.236  0.4792 -0.7915  1.4287
   99MOL   H22735703   6.168   7.554   3.142  2.2655  2.4551 -1.8796
   99MOL   H22835704   6.089   7.415   3.346  0.2131 -1.0142 -1.0351
   99MOL   H22935705   6.189   7.499   3.439  0.0372 -1.0865  0.8782
   99MOL   H23035706   6.395   7.425   3.301  0.9506 -0.6311  0.7680
   99MOL   H23135707   6.287   7.337   3.195 -2.4123  0.7114 -0.2284
   99MOL   H23235708   6.196   7.214   3.386  0.4232  0.6584 -0.3580
   99MOL   H23335709   6.312   7.277   3.504  1.5987 -1.7529  0.2108
   99MOL   H23435710   6.367   7.041   3.413  0.3936 -0.8952 -0.2933
   99MOL   H23535711   6.389   7.104   3.262 -0.5261 -2.6527  1.2929
   99MOL   C23635712   6.617   7.235   3.326  0.9011 -0.2320 -0.1561
   99MOL   O23735713   6.598   7.269   3.211 -0.3133  0.2128 -0.5091
   99MOL   C23835714   6.749   7.242   3.390  0.1544  0.2171 -0.0511
   99MOL   C23935715   6.825   7.374   3.374  0.7344  1.3132 -0.1935
   99MOL   C24035716   6.969   7.360   3.411  0.0031 -0.6113 -0.1252
   99MOL   C24135717   7.042   7.499   3.415  0.5805  0.5735  0.5210
   99MOL   C24235718   7.187   7.502   3.469 -0.3456  0.1238  0.1759
   99MOL   O24335719   7.193   7.445   3.599  0.2438  0.2252 -0.0021
   99MOL   H24435720   6.800   7.156   3.347  0.6536  0.0920  0.7972
   99MOL   H24535721   6.738   7.215   3.494 -0.7260  0.1815 -0.1476
   99MOL   H24635722   6.776   7.447   3.439  0.0687  0.3875  0.3479
   99MOL   H24735723   6.817   7.412   3.272 -0.2173  0.9895 -0.2429
   99MOL   H24835724   7.017   7.298   3.335 -0.9457  0.6961 -1.8245
   99MOL   H24935725   6.981   7.299   3.501  2.8236  2.3895  1.6235
   99MOL   H25035726   6.976   7.561   3.477 -1.5548 -1.9839  0.8799
   99MOL   H25135727   7.031   7.542   3.316  1.2432  0.0621  0.2273
   99MOL   H25235728   7.244   7.430   3.411  0.9163  1.6095 -0.4509
   99MOL   H25335729   7.238   7.598   3.469 -1.1552  0.5728  1.9573
   99MOL   C25435730   7.297   7.464   3.671 -0.5777  0.0741 -0.6290
   99MOL   O25535731   7.397   7.537   3.641  0.7060  0.0901 -0.3823
   99MOL   C25635732   7.287   7.396   3.804  0.0409  0.0237 -0.4723
   99MOL   C25735733   7.419   7.394   3.889 -0.7057  0.6230  0.3767
   99MOL   C25835734   7.426   7.269   3.988 -0.1973 -0.3887  0.5219
   99MOL   C25935735   7.500   7.150   3.924 -0.4849  0.1516  0.1776
   99MOL   C26035736   7.648   7.161   3.952  0.8404 -0.7360 -0.0766
   99MOL   O26135737   7.719   7.062   3.892 -0.7236  0.2555  0.2041
   99MOL   H26235738   7.252   7.298   3.773  0.3092 -0.3147  0.2802
   99MOL   H26335739   7.200   7.443   3.851  0.3852  1.9169 -1.6625
   99MOL   H26435740   7.425   7.491   3.938  1.7368 -0.2830  2.0403
   99MOL   H26535741   7.503   7.396   3.820 -0.9534  3.7873  0.1109
   99MOL   H26635742   7.327   7.239   4.023 -0.4797 -0.9269 -0.7075
   99MOL   H26735743   7.491   7.296   4.072 -1.1407  2.0577  0.5207
   99MOL   H26835744   7.480   7.147   3.817 -1.5694  1.0933  0.3357
   99MOL   H26935745   7.466   7.064   3.981 -1.8107 -0.3239 -1.3164
   99MOL   H27035746   7.682   7.256   3.910 -0.1208  0.9164  2.7809
   99MOL   H27135747   7.659   7.151   4.060  1.3565  1.7291  0.1289
   99MOL   C27235748   7.780   6.967   3.958 -0.4364  0.7444 -0.6537
   99MOL   O27335749   7.820   6.959   4.077 -0.4153  0.3868 -0.0469
   99MOL   C27435750   7.819   6.861   3.858 -0.5604  0.7072 -0.0121
   99MOL   C27535751   0.107   6.901   3.791 -0.1201  0.4695  0.3501
   99MOL   C27635752   0.133   6.804   3.672 -0.1700  0.2988 -0.9093
   99MOL   C27735753   0.285   6.797   3.640 -0.1136  0.8973 -0.5384
   99MOL   C27835754   0.340   6.936   3.602 -0.3922 -0.5687 -0.5074
   99MOL   O27935755   0.483   6.935   3.584  0.0150 -0.0470 -0.2990
   99MOL   H28035756   7.738   6.841   3.788 -1.5960 -0.3777  1.4874
   99MOL   H28135757   7.833   6.778   3.926  1.7106  0.2118 -1.0297
   99MOL   H28235758   0.194   6.910   3.856  0.6306 -0.9575 -0.4260
   99MOL   H28335759   0.092   7.001   3.751  0.8231  0.3395 -0.3533
   99MOL   H28435760   0.062   6.812   3.590 -0.6514 -1.1960 -0.6521
   99MOL   H28535761   0.104   6.710   3.719  1.2648  0.0207 -0.5549
   99MOL   H28635762   0.307   6.731   3.556 -1.9188  1.1296 -1.2151
   99MOL   H28735763   0.335   6.749   3.724 -1.6719  1.9519  1.0095
   99MOL   H28835764   0.293   6.983   3.516 -0.5860  1.3360  0.6217
   99MOL   H28935765   0.319   7.014   3.674  2.7662 -0.8212  0.7966
   99MOL   C29035766   0.552   7.044   3.542  0.0449  0.3165  0.1945
   99MOL   O29135767   0.502   7.157   3.536 -0.7088  0.1569  0.2798
   99MOL   C29235768   0.700   7.019   3.522 -0.0592  0.0334 -0.1394
   99MOL   C29335769   0.731   6.914   3.416  0.0254  0.7950  0.2646
   99MOL   C29435770   0.832   6.808   3.453 -0.6092  0.2372  0.4968
   99MOL   C29535771   0.784   6.696   3.542 -0.9712 -0.7290 -1.1434
   99MOL   C29635772   0.663   6.615   3.487  0.1374  0.3152  0.6440
   99MOL   O29735773   0.677   6.571   3.352 -0.5841  0.3444 -0.1812
   99MOL   H29835774   0.758   7.003   3.613 -1.1927  1.7179  0.8993
   99MOL   H29935775   0.746   7.103   3.470  0.2205 -1.2433 -2.0340
   99MOL   H30035776   0.772   6.980   3.339 -0.1544 -0.8408 -1.2602
   99MOL   H30135777   0.639   6.866   3.380 -0.8909  1.1265  2.1236
   99MOL   H30235778   0.908   6.870   3.501 -0.1379  0.8063 -0.9707
   99MOL   H30335779   0.887   6.772   3.366 -1.8644  0.3461 -0.3457
   99MOL   H30435780   0.749   6.744   3.633  0.9090  0.0966 -0.8361
   99MOL   H30535781   0.866   6.626   3.560  0.1223  0.5514 -1.1111
   99MOL   H30635782   0.632   6.545   3.564 -0.8544  0.0786  0.0502
   99MOL   H30735783   0.578   6.683   3.482 -0.4869 -0.2346  3.2860
   99MOL   C30835784   0.605   6.467   3.310 -0.0667 -0.1527  0.7868
   99MOL   O30935785   0.524   6.411   3.378 -0.4353 -0.1640  0.0013
   99MOL   C31035786   0.610   6.426   3.167  0.4168 -0.4555  0.3852
   99MOL   C31135787   0.483   6.468   3.092  0.9282 -0.2699  0.7246
   99MOL   C31235788   0.492   6.434   2.939 -0.5015 -1.5222  0.0583
   99MOL   C31335789   0.360   6.476   2.864  0.5669  0.0056  0.0676
   99MOL   C31435790   0.301   6.615   2.888 -0.1177 -0.1055 -0.8804
   99MOL   O31535791   0.239   6.632   3.018  0.2137 -0.2940 -0.4860
   99MOL   H31635792   0.642   6.325   3.144 -1.9318 -1.2295  0.3836
   99MOL   H31735793   0.682   6.496   3.124 -1.8064  1.3247 -0.5959
   99MOL   H31835794   0.464   6.575   3.105 -2.7243 -1.1750  3.7043
   99MOL   H31935795   0.396   6.418   3.134 -0.9326  1.4504 -0.9630
   99MOL   H32035796   0.507   6.326   2.941 -0.5435 -1.6309 -2.8276
   99MOL   H32135797   0.581   6.480   2.897 -1.7737  0.4299 -0.5506
   99MOL   H32235798   0.285   6.402   2.892  0.6405 -0.0912  0.0105
   99MOL   H32335799   0.383   6.472   2.758  1.2012  1.6658  0.1445
   99MOL   H32435800   0.379   6.689   2.867  2.6379 -2.0996  1.8138
   99MOL   H32535801   0.230   6.639   2.809 -1.3674 -0.2607  0.1879
   99MOL   C32635802   0.102   6.629   3.031  0.5348  0.1984  0.8320
   99MOL   O32735803   0.023   6.616   2.939 -0.1853  0.2724 -0.2721
   99MOL   C32835804   0.056   6.639   3.174  0.2315 -0.1105 -0.4426
   99MOL   C32935805   7.764   6.562   3.198 -0.3086  0.1281 -0.3858
   99MOL   C33035806   7.700   6.565   3.337  0.4561  0.1995 -0.3081
   99MOL   C33135807   7.789   6.501   3.448  0.0085 -0.1263 -0.7034
   99MOL   C33235808   7.750   6.536   3.589 -0.0135 -0.7159 -0.5339
   99MOL   O33335809   7.827   6.464   3.678 -0.4779 -0.4734  0.1339
   99MOL   H33435810   0.031   6.743   3.193  3.6559  0.5525  0.7489
   99MOL   H33535811   0.137   6.603   3.236  1.0490  0.4375 -1.1809
   99MOL   H33635812   7.780   6.456   3.180 -2.1736 -0.3766  0.7686
   99MOL   H33735813   7.697   6.585   3.115  1.6183 -0.5464 -2.1906
   99MOL   H33835814   7.615   6.497   3.343 -0.6405  1.7238  2.3928
   99MOL   H33935815   7.684   6.668   3.369  0.5456  0.0041  0.3785
   99MOL   H34035816   0.046   6.538   3.433  0.0355 -0.0367 -0.3108
   99MOL   H34135817   7.798   6.394   3.429  2.8918 -0.2769  1.2747
   99MOL   H34235818   7.780   6.641   3.598  0.4389 -0.9124  0.3338
   99MOL   H34335819   7.645   6.511   3.605  0.0695 -1.7604 -1.6049
   99MOL   C34435820   7.782   6.419   3.805  0.2953  0.5595  0.0617
   99MOL   O34535821   7.670   6.410   3.840 -0.3369 -0.1498 -0.5229
   99MOL   C34635822   0.053   6.377   3.893  0.4228  0.2901 -0.1157
   99MOL   C34735823   0.129   6.493   3.960  0.9965  0.7431  0.1252
   99MOL   C34835824   0.050   6.551   4.074  0.2229 -0.7891  0.0803
   99MOL   C34935825   0.122   6.662   4.159 -0.1091  0.3853 -0.0750
   99MOL   C35035826   0.056   6.718   4.282  0.0864  0.2633 -0.4036
   99MOL   O35135827   0.031   6.613   4.375  0.3696 -0.0780  0.0270
   99MOL   H35235828   0.110   6.310   3.828 -0.3841  1.3859 -1.9984
   99MOL   H35335829   0.015   6.312   3.972 -0.0571  0.1048 -0.4941
   99MOL   H35435830   0.143   6.568   3.882  1.3957 -0.7412 -1.2615
   99MOL   H35535831   0.230   6.456   3.982  0.3419 -1.1674 -0.0462
   99MOL   H35635832   7.841   6.477   4.135  1.3961 -0.7515  1.1858
   99MOL   H35735833   7.812   6.595   4.018  1.2547  0.3747 -0.5390
   99MOL   H35835834   0.128   6.742   4.085 -0.1018 -1.0181 -1.6068
   99MOL   H35935835   0.221   6.622   4.182  1.3776  3.9165  0.0737
   99MOL   H36035836   0.118   6.796   4.327 -0.6601  0.8575 -0.3736
   99MOL   H36135837   7.807   6.768   4.255 -0.3697 -0.3817 -0.0340
   99MOL   H36235838   0.102   6.553   4.387  1.8628  1.0713 -2.6664
  100MOL     C135839   4.230   4.458   7.814 -0.4266 -0.1192 -0.1429
  100MOL     O235840   4.286   4.478   0.075  0.5382 -0.4559 -0.2872
  100MOL     C335841   4.126   4.350   7.806  0.0641  0.1572  0.0801
  100MOL     C435842   4.131   4.252   0.077 -0.4743  0.4284  0.3849
  100MOL     C535843   4.236   4.138   0.066 -0.3517  0.5895  0.0805
  100MOL     C635844   4.220   4.026   0.177  0.3778  0.8336 -0.6567
  100MOL     C735845   4.250   3.883   0.123 -0.0832 -0.3252 -0.3421
  100MOL     O835846   4.198   3.787   0.209  0.3252 -0.1731  0.2413
  100MOL     H935847   4.144   4.297   7.713  0.1835  0.9883 -0.3733
  100MOL    H1035848   4.030   4.399   7.796  0.1986  0.3936 -0.0594
  100MOL    H1135849   4.034   4.203   0.069  0.5507 -1.4243 -0.9685
  100MOL    H1235850   4.141   4.303   0.173 -0.6966  0.8579  0.1849
  100MOL    H1335851   4.331   4.190   0.082 -0.8011  0.7662  2.3553
  100MOL    H1435852   4.230   4.100   7.809  1.7611  0.8243 -0.1531
  100MOL    H1535853   4.126   4.022   0.232  0.9707 -1.8290  0.2433
  100MOL    H1635854   4.293   4.037   0.257  0.9309 -2.6450 -0.5753
  100MOL    H1735855   4.198   3.868   0.028  0.8032  1.7193 -1.1747
  100MOL    H1835856   4.355   3.869   0.099  0.1956 -2.0791  1.7265
  100MOL    H1935857   4.246   4.510   7.719  1.1321 -1.3309 -0.5528
  100MOL    C2035858   4.257   3.663   0.218  0.0306  0.7827 -0.3079
  100MOL    O2135859   4.324   3.596   0.137  0.8878 -0.3823  0.4834
  100MOL    C2235860   4.235   3.607   0.353  0.9047 -1.0117  0.4782
  100MOL    C2335861   4.334   3.661   0.458  0.0103  0.7629  0.4142
  100MOL    C2435862   4.326   3.814   0.499 -0.2373 -0.1889 -0.0607
  100MOL    C2535863   4.460   3.860   0.565  0.5616 -0.2154  0.1981
  100MOL    C2635864   4.572   3.901   0.469  0.1164 -0.0890 -0.1553
  100MOL    O2735865   4.642   3.796   0.399 -0.0010 -0.5722 -0.0899
  100MOL    H2835866   4.257   3.500   0.351  0.4897 -1.1454  2.1114
  100MOL    H2935867   4.131   3.599   0.384  0.1900 -1.1116 -1.8227
  100MOL    H3035868   4.430   3.653   0.407 -0.2078 -0.2126  0.1435
  100MOL    H3135869   4.352   3.592   0.541  1.0171 -0.1488 -0.5515
  100MOL    H3235870   4.241   3.823   0.567  0.5527 -1.3985  1.1057
  100MOL    H3335871   4.305   3.878   0.413 -1.6920  1.7368  1.6853
  100MOL    H3435872   4.499   3.783   0.631  0.0102 -0.4333  0.2764
  100MOL    H3535873   4.435   3.948   0.624 -2.5578 -1.6878  1.1922
  100MOL    H3635874   4.527   3.980   0.408  0.4804  1.0743  1.0574
  100MOL    H3735875   4.651   3.953   0.522 -0.5139 -0.8483  1.5516
  100MOL    C3835876   4.632   3.768   0.265  0.2916  0.7604 -0.2382
  100MOL    O3935877   4.576   3.837   0.186 -0.1294  0.8917  0.2253
  100MOL    C4035878   4.701   3.640   0.225 -0.0024 -0.4438  0.6770
  100MOL    C4135879   4.848   3.656   0.165 -0.3082 -0.6302 -0.5889
  100MOL    C4235880   4.900   3.518   0.123  0.2196  0.5513 -0.4663
  100MOL    C4335881   5.017   3.540   0.023  0.4389 -0.0088 -1.3051
  100MOL    C4435882   5.044   3.409   7.800  0.1003 -0.2007 -0.2033
  100MOL    O4535883   4.957   3.380   7.700 -0.2117  0.2262 -0.4059
  100MOL    H4635884   4.648   3.577   0.153  0.5460 -0.2860  0.1363
  100MOL    H4735885   4.700   3.581   0.317  1.0153  0.3053  1.1846
  100MOL    H4835886   4.911   3.669   0.253 -0.8591 -0.7871 -0.1702
  100MOL    H4935887   4.852   3.727   0.082 -1.6515  0.7071  0.4861
  100MOL    H5035888   4.819   3.465   0.073 -0.3682  1.8030 -0.8718
  100MOL    H5135889   4.934   3.452   0.202  1.5151  0.5111 -1.0459
  100MOL    H5235890   5.096   3.590   0.078  0.5152  0.0448 -1.4633
  100MOL    H5335891   4.985   3.618   7.798  1.3900  1.4889 -0.0642
  100MOL    H5435892   5.142   3.426   7.755 -0.5898  2.3926 -0.8127
  100MOL    H5535893   5.049   3.327   0.028  0.4324 -0.9223 -1.0276
  100MOL    C5635894   4.924   3.247   7.676 -0.4318  0.3685  0.0014
  100MOL    O5735895   4.993   3.148   7.718  0.3428  0.1600 -0.1258
  100MOL    C5835896   4.795   3.221   7.596  0.0503  0.7861  0.7625
  100MOL    C5935897   4.668   3.279   7.663 -0.1832 -0.4533  0.2149
  100MOL    C6035898   4.634   3.242   7.805  0.6619  0.0141  0.1391
  100MOL    C6135899   4.492   3.283   0.003 -0.0667 -0.2746  0.0409
  100MOL    C6235900   4.468   3.311   0.154 -0.8136 -0.2059  0.8588
  100MOL    O6335901   4.503   3.193   0.227 -0.2540  0.0093 -0.2413
  100MOL    H6435902   4.775   3.114   7.591 -1.4185  1.1576 -2.9838
  100MOL    H6535903   4.799   3.252   7.492 -0.7064 -1.7263 -0.0342
  100MOL    H6635904   4.595   3.235   7.596  1.1465 -1.1444 -0.8217
  100MOL    H6735905   4.655   3.384   7.636 -0.0562 -1.0541 -2.2821
  100MOL    H6835906   4.704   3.289   0.030  1.2753  1.4348 -1.4264
  100MOL    H6935907   4.639   3.133   7.811  0.7325  0.0909  1.8717
  100MOL    H7035908   4.411   3.216   7.818 -1.2517  0.3230  1.8321
  100MOL    H7135909   4.461   3.373   7.794  0.2507 -1.3651 -2.0621
  100MOL    H7235910   4.537   3.389   0.187 -0.8547  0.3802 -0.4337
  100MOL    H7335911   4.368   3.345   0.181 -0.5561  1.7846 -0.5742
  100MOL    C7435912   4.503   3.208   0.359 -0.5362 -0.0451  0.2498
  100MOL    O7535913   4.449   3.297   0.425 -0.1649  0.3517  0.1014
  100MOL    C7635914   4.576   3.093   0.429 -0.1641 -0.0718 -0.1387
  100MOL    C7735915   4.488   3.001   0.512 -0.0105 -0.5624 -0.3530
  100MOL    C7835916   4.584   2.896   0.571  0.3167 -0.1398  0.0047
  100MOL    C7935917   4.518   2.821   0.688  0.4532  0.5282  0.6345
  100MOL    C8035918   4.607   2.771   0.801 -0.1134  0.3547  0.2892
  100MOL    O8135919   4.684   2.879   0.859 -0.0395  0.5389  0.3661
  100MOL    H8235920   4.649   3.127   0.501 -0.9427 -0.0871  0.6664
  100MOL    H8335921   4.627   3.040   0.348  2.2963  1.8660  0.0815
  100MOL    H8435922   4.410   2.966   0.444 -0.4713  1.4163 -0.8597
  100MOL    H8535923   4.444   3.064   0.589  0.4548  0.0125 -0.5578
  100MOL    H8635924   4.670   2.952   0.607 -0.7761  0.9749  0.9010
  100MOL    H8735925   4.623   2.820   0.504  0.3073 -0.1818  0.0461
  100MOL    H8835926   4.467   2.734   0.645  2.0768  0.2044 -0.7053
  100MOL    H8935927   4.441   2.883   0.733 -0.9850 -1.9197  1.7010
  100MOL    H9035928   4.558   2.701   0.869 -0.0406 -0.9926 -1.0404
  100MOL    H9135929   4.686   2.708   0.760  0.2079  0.5472  0.6040
  100MOL    C9235930   4.636   2.961   0.955  1.0206  0.0923 -0.4520
  100MOL    O9335931   4.526   2.955   1.004  0.5069 -0.0257 -0.0755
  100MOL    C9435932   4.730   3.081   0.987 -0.0650  0.1849  0.3355
  100MOL    C9535933   4.726   3.185   0.874 -0.2692  0.0264 -0.7025
  100MOL    C9635934   4.608   3.279   0.869 -0.2570 -0.1705 -0.4852
  100MOL    C9735935   4.616   3.365   0.747 -0.1346 -0.0199  1.1303
  100MOL    C9835936   4.502   3.456   0.707  0.6538  0.1175  0.2830
  100MOL    O9935937   4.475   3.555   0.808  0.5989  0.1581  0.1419
  100MOL   H10035938   4.827   3.031   0.996 -0.2965  0.0490  2.2161
  100MOL   H10135939   4.697   3.118   1.084  1.3603  2.4661 -0.0220
  100MOL   H10235940   4.752   3.146   0.775  0.3649 -1.5812  0.0842
  100MOL   H10335941   4.817   3.243   0.892 -0.3728 -0.0405  0.0375
  100MOL   H10435942   4.603   3.341   0.959 -1.3076  0.0572 -0.6886
  100MOL   H10535943   4.515   3.224   0.854  0.2699 -0.2045 -3.8492
  100MOL   H10635944   4.643   3.299   0.664  1.0097  0.3297  1.2162
  100MOL   H10735945   4.702   3.431   0.756 -1.8293  2.3539  0.4499
  100MOL   H10835946   4.550   3.518   0.631  0.6959 -1.3580 -0.9246
  100MOL   H10935947   4.418   3.402   0.664  1.4078 -0.8630  0.0420
  100MOL   C11035948   4.357   3.550   0.877  0.3891 -0.3881  1.1683
  100MOL   O11135949   4.262   3.471   0.872  0.3939 -0.4699  0.1358
  100MOL   C11235950   4.360   3.647   0.992 -0.0889 -0.3589  1.2330
  100MOL   C11335951   4.229   3.702   1.054  0.6613  0.4959 -0.2297
  100MOL   C11435952   4.137   3.600   1.137 -0.0910 -0.1968 -0.3879
  100MOL   C11535953   3.992   3.646   1.167 -0.3491  0.4831 -0.1997
  100MOL   C11635954   3.919   3.553   1.267 -0.4294 -0.3741 -0.4190
  100MOL   O11735955   3.902   3.429   1.196 -0.4779 -0.7049  0.3638
  100MOL   H11835956   4.415   3.732   0.952 -0.8679 -1.0681 -1.4893
  100MOL   H11935957   4.415   3.604   1.076  1.2170 -0.5607  0.3003
  100MOL   H12035958   4.173   3.740   0.969  0.7605  2.3160  0.4980
  100MOL   H12135959   4.256   3.785   1.120  0.4904 -0.2614  0.8079
  100MOL   H12235960   4.189   3.586   1.231 -1.7159  0.2285  0.6037
  100MOL   H12335961   4.140   3.498   1.099 -1.9679 -0.6502  0.6012
  100MOL   H12435962   3.923   3.662   1.085  1.4948 -0.8928 -2.0553
  100MOL   H12535963   4.002   3.741   1.221 -1.5073  0.7421 -0.4369
  100MOL   H12635964   3.982   3.534   1.354 -2.4224 -1.7619  0.7697
  100MOL   H12735965   3.826   3.600   1.300  0.3503  0.6917  0.3220
  100MOL   C12835966   3.858   3.318   1.256 -0.2338 -0.0092  0.6040
  100MOL   O12935967   3.832   3.311   1.371 -0.0864 -0.5111  0.0097
  100MOL   C13035968   3.844   3.203   1.166 -0.7706  0.3011  0.5584
  100MOL   C13135969   3.963   3.109   1.161 -0.8768  0.2693  0.7778
  100MOL   C13235970   4.096   3.155   1.097  0.6351 -0.5933 -0.1375
  100MOL   C13335971   4.208   3.050   1.084  0.1777 -0.4465 -0.2902
  100MOL   C13435972   4.186   2.925   0.999 -0.4587 -0.3453  0.2462
  100MOL   O13535973   4.194   2.954   0.861 -0.2021 -0.4143 -0.2984
  100MOL   H13635974   3.809   3.235   1.068 -0.9826 -2.6196 -0.3618
  100MOL   H13735975   3.758   3.152   1.209 -2.5983  0.4137 -2.8310
  100MOL   H13835976   3.926   3.021   1.107  2.5104 -2.4903  2.7400
  100MOL   H13935977   3.990   3.073   1.261  3.0179  1.1750  0.1095
  100MOL   H14035978   4.133   3.242   1.153  0.0049 -1.2082  1.2478
  100MOL   H14135979   4.092   3.200   0.998 -0.4961 -1.0396 -0.2932
  100MOL   H14235980   4.208   3.008   1.185 -2.0604 -1.2384 -0.5941
  100MOL   H14335981   4.305   3.098   1.071  1.3923 -2.7249  0.0737
  100MOL   H14435982   4.258   2.844   1.015  0.5853  0.7722  1.4043
  100MOL   H14535983   4.086   2.889   1.024 -1.1787  1.0535 -0.5868
  100MOL   C14635984   4.083   2.978   0.786  0.5119  0.2193  0.1454
  100MOL   O14735985   3.967   2.962   0.823 -0.2248 -0.1117  0.3781
  100MOL   C14835986   4.115   3.005   0.642 -0.0519 -0.0252 -0.2963
  100MOL   C14935987   4.110   2.884   0.558 -0.1592 -0.1406 -0.1123
  100MOL   C15035988   3.972   2.819   0.540 -0.0010 -0.5753  0.2200
  100MOL   C15135989   3.957   2.687   0.460  0.0621 -0.1740  0.6036
  100MOL   C15235990   4.003   2.703   0.314  0.4090 -0.0892  0.1780
  100MOL   O15335991   3.973   2.578   0.243  0.1990 -0.0669 -0.1061
  100MOL   H15435992   4.208   3.062   0.632 -0.1077  0.0623 -0.3212
  100MOL   H15535993   4.038   3.069   0.598 -0.8959 -1.2047 -0.5532
  100MOL   H15635994   4.181   2.809   0.593  0.4992  0.0414 -1.0222
  100MOL   H15735995   4.155   2.902   0.460 -1.3938 -0.7565 -0.8069
  100MOL   H15835996   3.897   2.891   0.506 -2.2164 -1.2776  3.4497
  100MOL   H15935997   3.952   2.786   0.641 -0.5148  1.3357  0.7668
  100MOL   H16035998   3.860   2.639   0.474 -1.2383  1.6870 -1.5445
  100MOL   H16135999   4.037   2.626   0.502 -0.0874  0.2906  1.5638
  100MOL   H16236000   3.943   2.781   0.267 -0.1787  1.2705  3.0347
  100MOL   H16336001   4.108   2.734   0.313 -0.3481  2.6876  0.7511
  100MOL   C16436002   3.953   2.583   0.107 -0.2049 -0.4614 -0.3803
  100MOL   O16536003   3.957   2.681   0.040 -0.0444 -0.3284  0.0904
  100MOL   C16636004   3.918   2.447   0.049 -0.2364 -0.2660  0.7806
  100MOL   C16736005   3.764   2.428   0.012  0.1466 -0.3966  0.0119
  100MOL   C16836006   3.670   2.417   0.132  0.6919  0.2405 -0.2107
  100MOL   C16936007   3.530   2.388   0.080  0.0536 -0.4096 -0.0274
  100MOL   C17036008   3.418   2.392   0.185 -0.6495  0.5799  0.1515
  100MOL   O17136009   3.472   2.353   0.310  0.3456 -0.1409  0.8958
  100MOL   H17236010   3.975   2.376   0.109  0.9090 -0.5197 -0.6034
  100MOL   H17336011   3.973   2.451   7.800  1.2159  1.6510  1.6827
  100MOL   H17436012   3.763   2.336   7.797  1.5393  0.7563 -1.8532
  100MOL   H17536013   3.739   2.514   7.795  1.3423 -1.2798 -1.7683
  100MOL   H17636014   3.682   2.512   0.185  1.0193 -1.0266  2.0804
  100MOL   H17736015   3.694   2.340   0.206  0.1793 -1.3255 -1.6612
  100MOL   H17836016   3.523   2.290   0.032  1.7553 -0.6035  0.0869
  100MOL   H17936017   3.502   2.455   7.844 -0.0187  0.1995  0.5023
  100MOL   H18036018   3.384   2.494   0.196 -0.5274  0.5976  0.3493
  100MOL   H18136019   3.335   2.322   0.171 -0.8697  0.6194  1.2391
  100MOL   C18236020   3.398   2.360   0.426 -0.4486  0.1003  0.9279
  100MOL   O18336021   3.278   2.387   0.431  0.0120 -0.4662  0.7097
  100MOL   C18436022   3.483   2.323   0.545 -0.0456  0.0209  0.3247
  100MOL   C18536023   3.404   2.323   0.686  0.0896 -0.2324 -0.6307
  100MOL   C18636024   3.302   2.215   0.714  0.2444 -0.0800  0.3059
  100MOL   C18736025   3.209   2.246   0.834  0.4191  0.2373 -0.1975
  100MOL   C18836026   3.074   2.168   0.841  0.2617 -1.0239  0.6854
  100MOL   O18936027   3.108   2.031   0.871 -0.6073  0.5040  0.4738
  100MOL   H19036028   3.571   2.387   0.544 -0.1124  0.1152  0.3510
  100MOL   H19136029   3.533   2.228   0.528 -1.1210 -1.0129  2.6656
  100MOL   H19236030   3.346   2.415   0.690  0.5869  0.0381  0.5934
  100MOL   H19336031   3.467   2.316   0.775  1.1954  0.8286 -1.3132
  100MOL   H19436032   3.360   2.125   0.734 -0.0984  0.4499  3.9592
  100MOL   H19536033   3.250   2.189   0.622 -0.6660 -1.8545  1.3010
  100MOL   H19636034   3.166   2.344   0.815 -2.1504 -0.4988  1.5293
  100MOL   H19736035   3.273   2.253   0.922  0.8065  0.1838 -0.4752
  100MOL   H19836036   3.014   2.202   0.926 -0.4172 -1.0351  0.2062
  100MOL   H19936037   3.017   2.188   0.751  0.2192  1.1876  1.1760
  100MOL   C20036038   3.100   1.991   0.992 -0.3343 -0.7125  0.2825
  100MOL   O20136039   3.092   2.056   1.097  0.1409 -0.1332 -0.5630
  100MOL   C20236040   3.095   1.837   0.998 -0.5825  0.1833 -0.5591
  100MOL   C20336041   2.954   1.783   0.988 -0.0931  0.3146 -0.3909
  100MOL   C20436042   2.864   1.810   1.111 -0.2236  0.9571 -0.4185
  100MOL   C20536043   2.734   1.733   1.090  0.4134  0.0912 -0.5198
  100MOL   C20636044   2.614   1.766   1.187 -0.3294 -0.2907  0.1482
  100MOL   O20736045   2.656   1.769   1.328 -0.0507 -0.9255 -0.2739
  100MOL   H20836046   3.148   1.803   1.088  1.0451  1.8592 -0.8380
  100MOL   H20936047   3.163   1.795   0.924 -0.0183  0.1498 -0.0302
  100MOL   H21036048   2.956   1.674   0.982 -2.4935  0.0712  2.1033
  100MOL   H21136049   2.914   1.825   0.896 -1.9304  0.3758  0.4149
  100MOL   H21236050   2.840   1.914   1.131 -0.0844  0.9662 -0.3007
  100MOL   H21336051   2.918   1.788   1.204 -0.4172  0.4600 -0.4230
  100MOL   H21436052   2.754   1.626   1.087 -1.0235 -0.4101  4.2066
  100MOL   H21536053   2.702   1.748   0.987  1.1790 -1.3330 -0.9811
  100MOL   H21636054   2.552   1.850   1.154 -0.6583 -0.6845 -0.2497
  100MOL   H21736055   2.542   1.684   1.176 -1.7374  0.7182  1.5325
  100MOL   C21836056   2.623   1.686   1.421  0.3658  0.1260  0.8832
  100MOL   O21936057   2.550   1.590   1.402  0.1759  0.3911 -0.0559
  100MOL   C22036058   2.682   1.710   1.556 -0.2801 -0.5816 -0.3443
  100MOL   C22136059   2.599   1.802   1.644  0.8845 -0.8254  0.3890
  100MOL   C22236060   2.600   1.952   1.609  0.1879 -0.3011 -0.6683
  100MOL   C22336061   2.483   2.026   1.676  1.0323  0.2037  0.2917
  100MOL   C22436062   2.481   2.186   1.673 -0.0551 -0.4119 -0.1678
  100MOL   O22536063   2.487   2.217   1.534 -0.5684 -0.5550 -0.4594
  100MOL   H22636064   2.783   1.748   1.545 -0.1327 -0.0638  2.3764
  100MOL   H22736065   2.675   1.610   1.599  1.1755 -1.4250 -2.0267
  100MOL   H22836066   2.629   1.793   1.748  0.1759 -0.3913  0.6322
  100MOL   H22936067   2.497   1.764   1.650  2.0064 -4.0578 -0.2342
  100MOL   H23036068   2.603   1.966   1.501  2.3174 -1.3847 -0.7747
  100MOL   H23136069   2.695   1.995   1.642  0.1649  0.1495 -1.1805
  100MOL   H23236070   2.490   2.005   1.782  2.1526 -1.3625 -0.0845
  100MOL   H23336071   2.386   1.995   1.637  0.7274  2.1637 -0.5954
  100MOL   H23436072   2.410   2.238   1.737 -2.4592 -1.3896 -1.9577
  100MOL   H23536073   2.577   2.213   1.718  0.3393 -1.4110 -0.3950
  100MOL   C23636074   2.399   2.303   1.479  0.6499 -0.1374 -0.2345
  100MOL   O23736075   2.289   2.332   1.531 -0.4515  0.4198 -0.6056
  100MOL   C23836076   2.445   2.345   1.337  0.4776  0.0236  0.7308
  100MOL   C23936077   2.364   2.463   1.276 -0.5538 -0.1679  0.2677
  100MOL   C24036078   2.217   2.435   1.237  0.0797 -0.7353  0.1825
  100MOL   C24136079   2.165   2.559   1.165  0.2242 -0.5107 -0.1245
  100MOL   C24236080   2.011   2.556   1.132  0.5496 -0.3288  0.1586
  100MOL   O24336081   1.922   2.531   1.238 -0.9142 -0.1082 -0.2175
  100MOL   H24436082   2.440   2.258   1.271 -0.0898 -0.0183  0.8248
  100MOL   H24536083   2.550   2.371   1.348  0.1878  1.6828 -0.1912
  100MOL   H24636084   2.418   2.501   1.190  1.0987 -1.7116  0.5903
  100MOL   H24736085   2.379   2.543   1.349  0.4961  0.2593 -0.3979
  100MOL   H24836086   2.159   2.414   1.327 -0.7786  0.7525 -0.0158
  100MOL   H24936087   2.204   2.352   1.168  2.5304 -1.9421  1.1127
  100MOL   H25036088   2.209   2.584   1.068  2.9395  3.2117  1.9645
  100MOL   H25136089   2.188   2.642   1.231 -0.4041 -0.1221 -0.3927
  100MOL   H25236090   1.984   2.651   1.085 -1.2183 -1.5981 -1.4482
  100MOL   H25336091   1.986   2.478   1.060  0.7076  0.1782 -0.4567
  100MOL   C25436092   1.891   2.624   1.331  0.0093  0.2002  0.0215
  100MOL   O25536093   1.929   2.741   1.337 -0.0797 -0.2593  0.2764
  100MOL   C25636094   1.804   2.562   1.442  0.7537 -0.3216  0.1305
  100MOL   C25736095   1.879   2.464   1.533 -0.5535  0.1664 -0.4240
  100MOL   C25836096   1.801   2.398   1.648 -0.7063 -0.2446 -0.0101
  100MOL   C25936097   1.719   2.504   1.722 -0.6359  0.6680  0.6392
  100MOL   C26036098   1.665   2.451   1.860  0.5616  0.0602 -0.0647
  100MOL   O26136099   1.568   2.531   1.924 -0.2066 -0.5880  0.2227
  100MOL   H26236100   1.718   2.514   1.395  0.3126  0.5566  0.0295
  100MOL   H26336101   1.775   2.648   1.502  0.4421  0.1240 -0.6476
  100MOL   H26436102   1.959   2.520   1.582  0.0947 -1.9363  0.9838
  100MOL   H26536103   1.914   2.378   1.475 -2.5680  1.4548 -3.7190
  100MOL   H26636104   1.873   2.350   1.713  0.8331  2.2028  0.1380
  100MOL   H26736105   1.731   2.321   1.614 -2.8994  1.8146 -0.2925
  100MOL   H26836106   1.642   2.550   1.659 -0.3008  2.8477  1.7451
  100MOL   H26936107   1.785   2.591   1.735 -1.1405  1.2802 -0.7593
  100MOL   H27036108   1.624   2.352   1.841 -0.9149  0.3673  1.5444
  100MOL   H27136109   1.751   2.430   1.924  1.9266  1.3295 -1.4090
  100MOL   C27236110   1.557   2.540   2.063 -0.7303  0.0654 -0.8750
  100MOL   O27336111   1.629   2.484   2.146 -0.0964  0.0509 -0.1660
  100MOL   C27436112   1.437   2.619   2.105 -0.5244  0.2819  0.7119
  100MOL   C27536113   1.363   2.562   2.227  0.0408 -0.0427 -0.0063
  100MOL   C27636114   1.247   2.659   2.274 -0.4193 -0.1782  0.3107
  100MOL   C27736115   1.144   2.704   2.170  0.0773 -0.1546 -0.6271
  100MOL   C27836116   1.039   2.804   2.226  0.3131 -0.4663 -0.0734
  100MOL   O27936117   0.966   2.870   2.128  0.0070 -0.7005  0.0530
  100MOL   H28036118   1.373   2.634   2.019  1.7100  0.8229 -0.9030
  100MOL   H28136119   1.475   2.719   2.127 -1.4183  1.2347 -1.8826
  100MOL   H28236120   1.427   2.557   2.315 -0.2998  0.1201  0.2542
  100MOL   H28336121   1.317   2.463   2.218  1.1425 -0.7125  1.4395
  100MOL   H28436122   1.282   2.751   2.322  1.0952 -1.1596  1.1441
  100MOL   H28536123   1.204   2.609   2.361  0.4195 -0.0803  0.7972
  100MOL   H28636124   1.100   2.619   2.116  1.3672  0.8263 -3.3318
  100MOL   H28736125   1.194   2.760   2.091 -0.5681  0.0121 -0.9185
  100MOL   H28836126   0.967   2.746   2.283  1.5862 -1.7331  0.2603
  100MOL   H28936127   1.084   2.878   2.292  0.0077 -2.5932  2.6157
  100MOL   C29036128   1.017   2.961   2.034  0.1102  1.1572 -0.8811
  100MOL   O29136129   1.134   2.997   2.017 -0.0317 -0.4444  0.1250
  100MOL   C29236130   0.903   3.022   1.945 -0.3433 -0.4871 -0.3844
  100MOL   C29336131   0.890   2.960   1.806  0.4113  0.1901 -0.2393
  100MOL   C29436132   0.802   2.828   1.795 -0.7013  0.4037 -0.3217
  100MOL   C29536133   0.759   2.803   1.654 -0.1249  0.7811  0.2017
  100MOL   C29636134   0.679   2.670   1.647  0.3143  0.4563  0.3095
  100MOL   O29736135   0.540   2.697   1.678  0.0955 -0.9030  0.0566
  100MOL   H29836136   0.924   3.129   1.943 -0.0216 -0.5662 -2.9558
  100MOL   H29936137   0.809   3.011   1.998 -0.6884  1.4016 -0.5643
  100MOL   H30036138   0.995   2.948   1.780  1.1379  3.0602  1.0717
  100MOL   H30136139   0.842   3.029   1.736 -0.4785  0.5829  0.7347
  100MOL   H30236140   0.713   2.834   1.857  0.0208  0.4533  0.7215
  100MOL   H30336141   0.866   2.748   1.832 -2.0837 -0.7314 -0.3780
  100MOL   H30436142   0.848   2.797   1.592 -0.2507  2.3327 -0.1473
  100MOL   H30536143   0.692   2.882   1.623 -1.5544 -0.6085 -0.3288
  100MOL   H30636144   0.686   2.630   1.545  0.5324  1.4995 -0.0881
  100MOL   H30736145   0.726   2.605   1.721  0.8790 -0.3179 -0.7134
  100MOL   C30836146   0.471   2.584   1.706 -1.1254 -0.2103 -0.0690
  100MOL   O30936147   0.513   2.472   1.727 -0.6816 -0.3808  0.1674
  100MOL   C31036148   0.324   2.618   1.723 -0.2848  0.3040  0.8872
  100MOL   C31136149   0.282   2.613   1.870  0.2653  0.0323  0.0434
  100MOL   C31236150   0.134   2.629   1.890  0.5478 -0.6186  0.7885
  100MOL   C31336151   0.103   2.625   2.044  0.1454 -0.3921 -0.0149
  100MOL   C31436152   7.815   2.589   2.081  1.0798 -0.1854  0.2680
  100MOL   O31536153   7.800   2.611   2.223  0.0742 -0.2385 -0.0051
  100MOL   H31636154   0.261   2.546   1.671 -1.2927  2.2565 -0.6369
  100MOL   H31736155   0.300   2.711   1.673 -1.6161  0.5685  1.9822
  100MOL   H31836156   0.335   2.690   1.927  1.3312 -1.8780  1.6953
  100MOL   H31936157   0.310   2.521   1.922  0.2343  0.5525  1.0016
  100MOL   H32036158   0.079   2.541   1.856  1.7477 -2.0273  2.4206
  100MOL   H32136159   0.102   2.727   1.855  2.5808 -0.6713 -1.3469
  100MOL   H32236160   0.145   2.718   2.081 -0.3986  0.3543 -1.2629
  100MOL   H32336161   0.158   2.542   2.090  1.2933 -0.8522 -2.1371
  100MOL   H32436162   7.731   2.635   2.029 -0.3767 -1.0897  1.7682
  100MOL   H32536163   7.794   2.484   2.064  0.4787 -0.0511  0.1556
  100MOL   C32636164   7.727   2.728   2.264  0.2637  0.2138  0.3227
  100MOL   O32736165   7.671   2.809   2.195  0.4142 -0.0601  0.4553
  100MOL   C32836166   7.726   2.738   2.417  0.5446  0.5869 -0.4720
  100MOL   C32936167   7.661   2.858   2.491 -0.1871  0.0550  0.7056
  100MOL   C33036168   7.677   2.853   2.647 -0.0816  0.1630  0.0645
  100MOL   C33136169   7.617   2.975   2.716  0.4526  0.1416  0.1891
  100MOL   C33236170   7.563   2.961   2.856  0.1551  0.2213 -0.3309
  100MOL   O33336171   7.660   2.895   2.944 -0.5840  0.2368 -0.8971
  100MOL   H33436172   7.832   2.726   2.438  0.3911 -2.5612 -1.2380
  100MOL   H33536173   7.686   2.644   2.456 -0.7745  1.3535  0.0304
  100MOL   H33636174   7.554   2.848   2.470  0.0200  1.2795 -1.1142
  100MOL   H33736175   7.692   2.959   2.465  1.2045 -0.3890  0.5864
  100MOL   H33836176   7.773   2.815   2.681  0.2686  0.8282 -0.1781
  100MOL   H33936177   7.617   2.765   2.670 -1.1726  1.5449  2.7638
  100MOL   H34036178   7.551   3.034   2.653  1.8921  1.0596 -0.4985
  100MOL   H34136179   7.702   3.044   2.721 -0.0464  0.8790 -1.1635
  100MOL   H34236180   7.544   3.056   2.907 -3.2497 -0.8250  0.4790
  100MOL   H34336181   7.470   2.906   2.841  0.5887 -0.3327 -0.9859
  100MOL   C34436182   7.616   2.783   3.011  0.0499 -0.1973 -0.2356
  100MOL   O34536183   7.517   2.717   2.977 -0.0275  0.6575 -0.1594
  100MOL   C34636184   7.702   2.739   3.120  0.0811  0.0561 -0.6326
  100MOL   C34736185   7.828   2.662   3.069 -0.1833  0.2872 -0.7740
  100MOL   C34836186   7.801   2.516   3.054 -0.0442 -0.1260  0.0242
  100MOL   C34936187   0.078   2.426   3.059 -0.6219  0.2187  0.0684
  100MOL   C35036188   0.055   2.276   3.024 -0.1344  0.3095  0.7712
  100MOL   O35136189   0.040   2.259   2.881 -0.4197 -0.8121  0.1780
  100MOL   H35236190   7.631   2.685   3.183 -0.2972  0.4467 -0.7240
  100MOL   H35336191   7.738   2.832   3.164 -0.1194 -0.2609  0.2282
  100MOL   H35436192   0.052   2.681   3.152 -1.4013  0.2398  0.2605
  100MOL   H35536193   0.030   2.709   2.983 -0.3395 -0.4922 -1.2868
  100MOL   H35636194   7.749   2.500   2.960 -0.0751 -2.6313  0.4193
  100MOL   H35736195   7.728   2.485   3.130 -1.8774 -0.5682 -1.8743
  100MOL   H35836196   0.124   2.426   3.158  3.9046  0.9569 -1.8987
  100MOL   H35936197   0.154   2.467   2.993 -0.9930 -1.2859 -1.3222
  100MOL   H36036198   0.147   2.225   3.050 -0.2451  1.3113  3.2522
  100MOL   H36136199   7.815   2.226   3.072  0.9983 -1.9996  0.4118
  100MOL   H36236200   0.119   2.288   2.838  0.1229  0.7933  2.1768
  101MOL     C136201   1.265   1.195   1.650 -0.3165 -0.3598  0.3106
  101MOL     O236202   1.338   1.223   1.555  0.2957  0.6734  0.0241
  101MOL     C336203   1.217   1.048   1.673 -0.2245 -0.9047 -0.0273
  101MOL     C436204   1.225   0.948   1.549 -0.4591 -0.0172 -0.4477
  101MOL     C536205   1.124   0.984   1.441  0.1938 -0.2321  0.2137
  101MOL     C636206   1.143   0.918   1.306  0.2644 -0.3305 -0.0973
  101MOL     C736207   1.061   0.990   1.192 -0.1532 -0.5846  0.0889
  101MOL     O836208   1.106   0.952   1.060  0.4120  0.3285 -0.0833
  101MOL     H936209   1.110   1.056   1.697 -0.1621  0.3923 -0.1290
  101MOL    H1036210   1.269   1.000   1.755 -0.5697 -0.5302  0.4193
  101MOL    H1136211   1.201   0.849   1.590 -2.5636 -0.3866 -2.4603
  101MOL    H1236212   1.323   0.941   1.501 -0.4310  2.5250 -0.8036
  101MOL    H1336213   1.141   1.090   1.424  0.6469  0.0013  2.0093
  101MOL    H1436214   1.017   0.977   1.463 -0.0768 -0.7390 -1.1555
  101MOL    H1536215   1.121   0.811   1.312  2.7688 -0.8645 -0.2000
  101MOL    H1636216   1.245   0.921   1.270  0.6816  0.5388  1.1385
  101MOL    H1736217   0.956   0.964   1.205 -0.6854  0.3443 -2.1998
  101MOL    H1836218   1.065   1.098   1.205 -1.3504 -0.4407 -0.6708
  101MOL    H1936219   1.244   1.270   1.727  1.2388  0.2093  0.1912
  101MOL    C2036220   1.017   0.948   0.961  0.6278  0.0763 -0.3835
  101MOL    O2136221   0.909   1.009   0.965  0.0542 -0.3492  0.2456
  101MOL    C2236222   1.052   0.863   0.839  0.5173  0.1617  0.1001
  101MOL    C2336223   1.010   0.712   0.857  0.0658 -0.4002  0.2552
  101MOL    C2436224   1.063   0.626   0.738 -0.2190  0.1809 -1.2194
  101MOL    C2536225   1.019   0.477   0.731  0.7442 -0.0808  0.1589
  101MOL    C2636226   1.082   0.422   0.607 -0.0988  0.0632  0.0560
  101MOL    O2736227   1.032   0.294   0.585  0.0481 -0.1974  0.1516
  101MOL    H2836228   1.160   0.867   0.830  0.4811 -0.8443 -0.9633
  101MOL    H2936229   1.006   0.907   0.751 -1.5927  1.0702  1.6032
  101MOL    H3036230   0.907   0.701   0.891 -0.3263  0.9737 -0.4436
  101MOL    H3136231   1.064   0.679   0.945 -0.0572  1.2337  0.9648
  101MOL    H3236232   1.172   0.630   0.744 -0.1935  0.5195 -1.8882
  101MOL    H3336233   1.027   0.669   0.645  1.2979  0.0726 -1.8765
  101MOL    H3436234   0.913   0.479   0.703  0.9317  2.0434 -0.4809
  101MOL    H3536235   1.036   0.414   0.818 -0.9604 -3.3273 -1.7679
  101MOL    H3636236   1.057   0.482   0.519  1.8497  0.9592  0.0826
  101MOL    H3736237   1.190   0.420   0.619  0.0327 -1.8649 -1.2525
  101MOL    C3836238   1.071   0.221   0.473  0.2962  0.6383  0.1798
  101MOL    O3936239   1.162   0.263   0.400  0.2958 -0.0065  0.1035
  101MOL    C4036240   0.985   0.103   0.432 -0.2054 -0.2481  0.0485
  101MOL    C4136241   0.949   7.842   0.539 -1.5242  0.6223 -1.0415
  101MOL    C4236242   1.053   7.767   0.617  0.0664  0.0346 -0.8176
  101MOL    C4336243   1.142   7.667   0.549  0.2783  0.1571  0.6040
  101MOL    C4436244   1.057   7.551   0.510 -0.0426  0.6322 -0.3857
  101MOL    O4536245   1.150   7.458   0.446  0.5306 -0.1180  0.3244
  101MOL    H4636246   1.038   0.047   0.355  0.1264  0.2774 -0.1067
  101MOL    H4736247   0.890   0.130   0.386 -0.6169  1.1487  1.6573
  101MOL    H4836248   0.886   7.769   0.489 -0.7282  0.5068 -1.8733
  101MOL    H4936249   0.887   0.043   0.617 -1.9315  0.0223 -1.0150
  101MOL    H5036250   1.021   7.723   0.712 -1.3646 -0.0661 -1.3267
  101MOL    H5136251   1.122   0.002   0.646  1.0891 -1.1602  0.0602
  101MOL    H5236252   1.230   7.632   0.603  1.6628  1.2469 -0.9142
  101MOL    H5336253   1.183   7.712   0.459 -2.6110  1.2739 -0.1881
  101MOL    H5436254   1.024   7.501   0.602 -1.0592 -2.2779 -2.2470
  101MOL    H5536255   0.977   7.584   0.444  0.2277 -0.9099 -1.5102
  101MOL    C5636256   1.137   7.426   0.318 -0.1189  0.8126  0.5715
  101MOL    O5736257   1.035   7.462   0.260  0.0221 -0.1456  0.0693
  101MOL    C5836258   1.256   7.361   0.254 -0.2294 -0.0120  0.7431
  101MOL    C5936259   1.247   7.313   0.108  0.0639 -0.0972 -0.3130
  101MOL    C6036260   1.155   7.192   0.084  0.1684  0.6095  0.2749
  101MOL    C6136261   1.202   7.110   7.810 -0.4858  0.1883 -0.2617
  101MOL    C6236262   1.119   6.981   7.788 -0.4994  0.4342  0.0019
  101MOL    O6336263   1.141   6.885   0.054 -0.3643  0.1884 -0.1904
  101MOL    H6436264   1.284   7.280   0.322 -1.8830 -1.6588 -0.4484
  101MOL    H6536265   1.331   7.439   0.260  0.7127 -0.7518 -0.8979
  101MOL    H6636266   1.349   7.290   0.080 -0.1427 -0.2714 -0.9287
  101MOL    H6736267   1.196   7.393   0.056 -0.0648  0.1410  0.1706
  101MOL    H6836268   1.057   7.233   0.064  0.0558 -0.7008 -2.1779
  101MOL    H6936269   1.154   7.118   0.164  0.0015  0.3090 -0.0005
  101MOL    H7036270   1.303   7.071   7.823 -1.0151 -0.8934  0.6583
  101MOL    H7136271   1.204   7.179   7.726  0.9700  0.8807  0.3242
  101MOL    H7236272   1.014   7.010   7.797 -0.3896  1.3912 -1.5519
  101MOL    H7336273   1.143   6.936   7.692 -0.7643  1.1315 -0.3994
  101MOL    C7436274   1.036   6.811   0.104  0.4253  0.2727 -0.1872
  101MOL    O7536275   0.914   6.835   0.082  0.0669  0.8444  0.3470
  101MOL    C7636276   1.082   6.685   0.180  0.2330 -0.3930 -0.9626
  101MOL    C7736277   1.150   6.585   0.090 -0.2204  0.4722 -0.1647
  101MOL    C7836278   1.068   6.523   7.816 -0.2405 -0.7893  0.3156
  101MOL    C7936279   1.155   6.422   7.743  0.8967  0.6541  0.0383
  101MOL    C8036280   1.099   6.378   7.606  0.4510 -0.0536  0.2453
  101MOL    O8136281   1.063   6.488   7.528  0.3810  0.2625  0.2387
  101MOL    H8236282   1.000   6.636   0.234  0.8097  0.0815  0.3614
  101MOL    H8336283   1.150   6.716   0.259 -0.3596  1.6746 -1.2400
  101MOL    H8436284   1.181   6.505   0.158  1.1515  2.9652  2.2303
  101MOL    H8536285   1.241   6.624   0.045 -0.6423  1.1282 -0.4665
  101MOL    H8636286   1.050   6.601   7.743 -1.6987 -2.2102 -0.8974
  101MOL    H8736287   0.976   6.470   7.843 -0.4054 -1.7795 -2.0638
  101MOL    H8836288   1.168   6.337   7.810  2.1123  2.7232  2.4960
  101MOL    H8936289   1.250   6.469   7.719  0.9774  1.7332  2.3842
  101MOL    H9036290   1.169   6.316   7.549 -2.0394 -1.8959 -0.8977
  101MOL    H9136291   1.006   6.324   7.623 -0.4584  1.1585 -0.8120
  101MOL    C9236292   1.034   6.471   7.402 -0.5414 -0.6726 -0.2153
  101MOL    O9336293   1.006   6.363   7.350  0.6166  0.3695  0.0860
  101MOL    C9436294   1.020   6.604   7.318 -0.0482  0.2983  0.0336
  101MOL    C9536295   0.988   6.728   7.410 -0.3885  0.1578  0.0526
  101MOL    C9636296   0.846   6.723   7.478 -0.1576 -0.5257  0.1958
  101MOL    C9736297   0.808   6.855   7.550 -0.1043 -0.0690 -0.0828
  101MOL    C9836298   0.782   6.975   7.462 -0.1966  0.2494 -0.7354
  101MOL    O9936299   0.684   6.951   7.367 -0.1985  0.1784 -0.0531
  101MOL   H10036300   0.942   6.589   7.244  1.7776 -2.6075 -1.3796
  101MOL   H10136301   1.107   6.623   7.254 -1.1831  1.5177 -1.1908
  101MOL   H10236302   0.985   6.815   7.344  2.8140  1.6611  1.7736
  101MOL   H10336303   1.065   6.751   7.483  1.0168 -1.3923 -0.9079
  101MOL   H10436304   0.864   6.654   7.561  0.2611 -1.1551 -0.4140
  101MOL   H10536305   0.766   6.687   7.414  0.7961 -0.4380 -1.0739
  101MOL   H10636306   0.876   6.898   7.624  2.4211 -1.9767 -1.2197
  101MOL   H10736307   0.716   6.838   7.606  1.3284 -0.4514  2.2465
  101MOL   H10836308   0.747   7.059   7.523 -2.6444 -0.5944 -0.9475
  101MOL   H10936309   0.869   7.008   7.404  0.6064  2.5147  1.6172
  101MOL   C11036310   0.555   6.973   7.396 -0.2804 -0.0150 -0.7645
  101MOL   O11136311   0.510   7.034   7.495 -0.1751  0.5053  0.0783
  101MOL   C11236312   0.476   6.916   7.283 -0.7028  1.0383 -0.6511
  101MOL   C11336313   0.462   6.765   7.293  0.1779  0.2312 -0.0995
  101MOL   C11436314   0.429   6.712   7.156  0.0447 -0.0485 -0.2354
  101MOL   C11536315   0.310   6.766   7.090 -0.5803 -0.2898 -0.1279
  101MOL   C11636316   0.290   6.713   6.949  0.4511  0.4157 -0.1565
  101MOL   O11736317   0.379   6.787   6.862 -0.3844 -0.8420  0.3819
  101MOL   H11836318   0.532   6.946   7.194 -0.3774  1.2539 -0.3757
  101MOL   H11936319   0.381   6.970   7.274  0.1399  2.7350  0.4590
  101MOL   H12036320   0.376   6.750   7.359 -0.0458 -1.2784 -0.7043
  101MOL   H12136321   0.552   6.716   7.329 -0.5366 -1.1976 -0.1966
  101MOL   H12236322   0.399   6.608   7.149  0.2974  0.0480 -3.3304
  101MOL   H12336323   0.524   6.730   7.106  0.2633 -0.0499  0.1806
  101MOL   H12436324   0.319   6.875   7.081  0.4944 -0.5136 -2.0182
  101MOL   H12536325   0.220   6.746   7.148 -1.4461 -0.0216 -1.3446
  101MOL   H12636326   0.318   6.608   6.945  1.9825  0.7349  1.5405
  101MOL   H12736327   0.190   6.719   6.905  0.1265  1.8583  0.7474
  101MOL   C12836328   0.375   6.760   6.729 -0.6576  0.2637  0.1369
  101MOL   O12936329   0.322   6.663   6.676 -0.3230  0.6911  0.4111
  101MOL   C13036330   0.457   6.861   6.650  0.1223  0.6916 -0.4536
  101MOL   C13136331   0.425   7.012   6.670  0.0083  0.0843  0.2214
  101MOL   C13236332   0.284   7.059   6.614 -0.3480  0.1645 -0.4477
  101MOL   C13336333   0.163   6.994   6.681  0.1227 -0.1578 -0.4011
  101MOL   C13436334   0.037   7.082   6.655 -0.0280  0.5155  0.1948
  101MOL   O13536335   7.776   7.015   6.716 -0.4253  0.1544  0.0670
  101MOL   H13636336   0.457   6.833   6.545 -1.4787 -1.9803  0.2021
  101MOL   H13736337   0.562   6.848   6.675  0.0160  0.4841 -0.1171
  101MOL   H13836338   0.501   7.068   6.616 -0.3395 -0.1132 -0.4864
  101MOL   H13936339   0.437   7.038   6.775  0.1554 -1.7963  0.6877
  101MOL   H14036340   0.267   7.038   6.509 -1.4069  1.9622 -0.6573
  101MOL   H14136341   0.282   7.168   6.626  0.6101  0.2015 -0.6254
  101MOL   H14236342   0.184   6.991   6.788  0.1493 -0.4736 -0.4132
  101MOL   H14336343   0.147   6.888   6.659 -1.1441  0.2493 -1.4137
  101MOL   H14436344   0.056   7.182   6.696  1.7116 -0.5244  2.0347
  101MOL   H14536345   0.007   7.083   6.550 -1.3407  1.7489  0.5588
  101MOL   C14636346   7.697   7.087   6.801  0.6009 -0.2361  0.1512
  101MOL   O14736347   7.713   7.205   6.833 -0.1705  0.1038  0.2661
  101MOL   C14836348   7.579   7.009   6.849 -0.1507  0.5620 -0.3308
  101MOL   C14936349   7.468   6.980   6.748  0.6617  0.1584  0.2592
  101MOL   C15036350   7.371   6.881   6.817  0.1077 -0.4447 -0.0094
  101MOL   C15136351   7.362   6.740   6.772  0.1486 -0.1623 -0.7622
  101MOL   C15236352   7.284   6.727   6.643 -0.0087 -0.2102  0.5351
  101MOL   O15336353   7.333   6.613   6.579 -0.2852 -0.6338  0.2744
  101MOL   H15436354   7.557   7.062   6.942  1.5479 -1.4380  1.2698
  101MOL   H15536355   7.618   6.913   6.882 -1.6909  0.2908  0.7591
  101MOL   H15636356   7.498   6.947   6.648  0.6314  0.5008  0.1343
  101MOL   H15736357   7.411   7.072   6.731 -1.6826 -0.7006  3.1161
  101MOL   H15836358   7.270   6.920   6.808  1.1088  2.4628  0.9564
  101MOL   H15936359   7.374   6.889   6.925 -1.1076  3.0791 -0.1881
  101MOL   H16036360   7.317   6.678   6.850  0.7426  0.5595  0.1594
  101MOL   H16136361   7.467   6.716   6.755  0.6768  1.5206  0.0567
  101MOL   H16236362   7.179   6.709   6.664 -0.5148  0.0292 -1.6077
  101MOL   H16336363   7.275   6.811   6.574 -1.0461 -0.1211  0.7789
  101MOL   C16436364   7.322   6.594   6.450 -0.9828 -1.3029 -0.3558
  101MOL   O16536365   7.260   6.674   6.373 -0.0487  0.3679  0.2624
  101MOL   C16636366   7.384   6.460   6.395  0.4449  0.2049  0.2835
  101MOL   C16736367   7.439   6.463   6.252 -0.0347  0.0609  0.6181
  101MOL   C16836368   7.328   6.474   6.146  0.1786 -0.4531  0.6616
  101MOL   C16936369   7.224   6.361   6.151 -0.5187  0.2024  0.0251
  101MOL   C17036370   7.167   6.332   6.012 -0.2952  0.6983  0.2226
  101MOL   O17136371   7.104   6.444   5.959  0.0447  0.3789  0.4626
  101MOL   H17236372   7.310   6.381   6.407  0.4561  0.2559  0.6887
  101MOL   H17336373   7.450   6.415   6.469  1.4669  0.4476 -0.4678
  101MOL   H17436374   7.497   6.374   6.229 -0.5415 -0.8371  2.6622
  101MOL   H17536375   7.510   6.544   6.243  0.2282 -0.4935 -2.5807
  101MOL   H17636376   7.373   6.466   6.047  0.2483 -1.1505  0.7477
  101MOL   H17736377   7.270   6.565   6.162 -0.2082 -0.5555 -0.1259
  101MOL   H17836378   7.148   6.392   6.223 -0.2790 -0.6581  0.6556
  101MOL   H17936379   7.279   6.275   6.188  2.0960  1.8742  0.1046
  101MOL   H18036380   7.244   6.311   5.938  1.1393  4.3209  0.5712
  101MOL   H18136381   7.089   6.256   6.009 -1.7344  2.1277  0.5544
  101MOL   C18236382   6.986   6.478   5.998  0.7131 -0.3717  0.2397
  101MOL   O18336383   6.905   6.414   6.064  0.1836  0.0979  0.4227
  101MOL   C18436384   6.954   6.627   5.960  0.2359  0.0562  0.3532
  101MOL   C18536385   7.007   6.729   6.056 -0.8109  0.0713  0.0596
  101MOL   C18636386   6.906   6.747   6.172  0.1961  0.3948  0.1655
  101MOL   C18736387   6.947   6.853   6.274 -0.3601  0.2558  0.0947
  101MOL   C18836388   6.829   6.854   6.374  0.4975  0.7113  0.3223
  101MOL   O18936389   6.822   6.970   6.462  0.5955  0.1602  0.5927
  101MOL   H19036390   6.852   6.643   5.925  1.2243  1.7503 -1.9308
  101MOL   H19136391   7.004   6.646   5.865 -0.8989 -1.2449 -0.5197
  101MOL   H19236392   7.001   6.826   6.007 -1.7040  0.6843  1.3496
  101MOL   H19336393   7.111   6.712   6.086  0.6292  0.8980 -4.1360
  101MOL   H19436394   6.904   6.648   6.216 -0.4843 -0.1121 -0.9774
  101MOL   H19536395   6.809   6.765   6.127 -0.3548 -1.7062  0.4893
  101MOL   H19636396   6.957   6.950   6.226  1.5645  0.4631  0.8943
  101MOL   H19736397   7.042   6.829   6.321  0.7721  0.0762 -2.2489
  101MOL   H19836398   6.727   6.844   6.338  0.5968 -1.4241  0.5492
  101MOL   H19936399   6.835   6.770   6.443  0.0353 -0.5807 -1.1799
  101MOL   C20036400   6.901   6.968   6.577 -0.2191 -0.2120 -0.0696
  101MOL   O20136401   6.977   6.878   6.609 -0.1321  0.4907 -0.1890
  101MOL   C20236402   6.897   7.097   6.649 -0.3390 -0.2860 -0.3412
  101MOL   C20336403   7.035   7.175   6.646 -0.4138 -0.5252 -0.0869
  101MOL   C20436404   7.044   7.294   6.733  1.1163 -0.6134  0.3736
  101MOL   C20536405   7.163   7.382   6.693 -1.2466 -0.3938  0.7037
  101MOL   C20636406   7.146   7.528   6.742 -0.3513  0.3026 -0.7621
  101MOL   O20736407   7.143   7.536   6.884 -0.4120 -0.3662 -0.4983
  101MOL   H20836408   6.880   7.071   6.753  1.9953 -2.4719 -0.4480
  101MOL   H20936409   6.804   7.150   6.627  0.1859  0.5039 -0.6792
  101MOL   H21036410   7.060   7.206   6.545 -1.3978  1.6429  0.3024
  101MOL   H21136411   7.115   7.104   6.665 -0.0544  0.1341  0.9269
  101MOL   H21236412   7.057   7.262   6.836  2.2434  2.0759  1.1003
  101MOL   H21336413   6.955   7.356   6.721  2.4359  1.8691  2.8506
  101MOL   H21436414   7.180   7.390   6.585  0.0997  1.5515  1.0400
  101MOL   H21536415   7.256   7.335   6.724 -2.2348 -1.7876  1.6296
  101MOL   H21636416   7.230   7.584   6.702  1.0144 -0.4937  0.9301
  101MOL   H21736417   7.058   7.574   6.698  0.4716  0.5750 -2.1377
  101MOL   C21836418   7.257   7.554   6.959  0.6481  0.0349  0.7740
  101MOL   O21936419   7.366   7.541   6.917  0.4293 -0.3302  0.1665
  101MOL   C22036420   7.218   7.582   7.106 -0.4080  0.4647  0.2066
  101MOL   C22136421   7.180   7.727   7.125  0.1340 -0.5181  0.9199
  101MOL   C22236422   7.305   7.824   7.137  0.5276  0.2507 -0.4905
  101MOL   C22336423   7.417   7.782   7.235 -0.2798  0.7745 -0.0273
  101MOL   C22436424   7.524   0.045   7.251  0.1195 -0.1062  0.3247
  101MOL   O22536425   7.646   7.825   7.266 -1.0451  0.1549  0.6352
  101MOL   H22636426   7.294   7.536   7.169  1.4669 -0.4372 -2.6241
  101MOL   H22736427   7.133   7.517   7.127 -0.7014  1.2491  1.5046
  101MOL   H22836428   7.112   7.735   7.209  0.4760 -0.7537  1.2179
  101MOL   H22936429   7.118   7.755   7.039  0.1799 -2.5422  0.2056
  101MOL   H23036430   7.271   0.081   7.158  1.3959  0.2894  0.7390
  101MOL   H23136431   7.358   7.832   7.042  0.3830  0.9462 -0.5196
  101MOL   H23236432   7.466   7.696   7.190 -2.3435  0.4125 -1.6421
  101MOL   H23336433   7.375   7.757   7.333  0.7453  1.5689  0.6281
  101MOL   H23436434   7.520   0.113   7.166  0.4546 -0.4236  0.0557
  101MOL   H23536435   7.511   0.108   7.339 -1.6602 -1.7832  1.2963
  101MOL   C23636436   7.762   0.042   7.251  0.1518 -0.9575 -0.2073
  101MOL   O23736437   7.785   0.157   7.227 -0.0857 -0.3322  0.3655
  101MOL   C23836438   0.037   7.795   7.288 -0.1308  0.5743 -0.2182
  101MOL   C23936439   0.015   7.648   7.272 -0.0083 -0.4890  0.4430
  101MOL   C24036440   0.002   7.609   7.124  0.1892  0.1042 -0.1482
  101MOL   C24136441   7.822   7.462   7.105  0.2198 -0.2001  0.1994
  101MOL   C24236442   0.094   7.366   7.123  0.2620  0.4810  0.2331
  101MOL   O24336443   0.048   7.235   7.133 -0.4316 -0.4921  0.2440
  101MOL   H24436444   0.044   7.809   7.396 -3.0060 -1.9118  0.3792
  101MOL   H24536445   0.129   7.830   7.242 -0.1884 -1.1510 -1.6894
  101MOL   H24636446   7.777   7.602   7.327  0.4039 -0.8285  0.7757
  101MOL   H24736447   0.105   7.601   7.310  0.4706  0.3210  0.3386
  101MOL   H24836448   0.085   7.650   7.067  1.9244  0.2405  2.3708
  101MOL   H24936449   7.760   7.657   7.079  0.5051  0.7582 -0.0694
  101MOL   H25036450   7.792   7.456   7.000 -0.8664 -0.7092  0.5338
  101MOL   H25136451   7.737   7.442   7.170 -0.3783  0.8670 -0.2302
  101MOL   H25236452   0.158   7.381   7.036  1.2094  0.2106  0.8709
  101MOL   H25336453   0.151   7.391   7.213  2.5391  1.0541 -1.3174
  101MOL   C25436454   0.124   7.131   7.103 -0.3044 -0.8750 -0.2749
  101MOL   O25536455   0.241   7.143   7.060  0.5175 -0.2937  0.2127
  101MOL   C25636456   0.059   6.990   7.113  0.4553 -0.1722  0.2713
  101MOL   C25736457   0.031   6.955   7.261  0.2975 -0.4765 -0.9665
  101MOL   C25836458   7.793   6.829   7.280 -0.2201 -0.0321  0.1992
  101MOL   C25936459   7.761   6.780   7.420  0.2507  0.7318  0.6984
  101MOL   C26036460   7.646   6.855   7.498 -0.8024 -0.2089  0.2064
  101MOL   O26136461   7.633   6.804   7.630 -0.3552  0.6530 -0.4977
  101MOL   H26236462   0.123   6.917   7.064  0.1989 -0.3848  0.2524
  101MOL   H26336463   7.810   6.998   7.057  1.0763 -0.7172 -0.8431
  101MOL   H26436464   7.815   7.023   7.321 -0.4129  0.1022 -2.3120
  101MOL   H26536465   0.124   6.963   7.319  0.0701  0.8775 -0.7763
  101MOL   H26636466   7.837   6.747   7.224  2.5840  1.6953 -0.2288
  101MOL   H26736467   7.697   6.846   7.232 -0.3879 -1.3250  0.0742
  101MOL   H26836468   0.009   6.785   7.478  0.5531 -1.3948  0.4354
  101MOL   H26936469   7.732   6.675   7.419 -0.3173  0.8899 -0.3833
  101MOL   H27036470   7.663   6.963   7.497  0.2779 -0.3750 -0.1378
  101MOL   H27136471   7.555   6.848   7.438 -1.6735  0.8895  1.3701
  101MOL   C27236472   7.518   6.734   7.663 -0.3643 -0.1601 -0.2233
  101MOL   O27336473   7.416   6.745   7.607  0.6861  0.0111  0.3707
  101MOL   C27436474   7.539   6.647   7.788 -0.5074 -0.2638  0.5442
  101MOL   C27536475   7.408   6.579   7.834 -0.1459  0.5592  0.5171
  101MOL   C27636476   7.293   6.674   0.036 -0.6086  0.3962  0.6055
  101MOL   C27736477   7.199   6.614   0.136  0.1594  0.2089 -0.1867
  101MOL   C27836478   7.080   6.706   0.170 -0.2864 -0.2993 -1.0423
  101MOL   O27936479   6.964   6.695   0.081  0.0613  0.0104  0.2570
  101MOL   H28036480   7.578   6.699   0.031  3.3415 -1.2636 -0.5110
  101MOL   H28136481   7.615   6.578   7.753 -0.6246 -0.5225  0.7968
  101MOL   H28236482   7.417   6.504   0.069 -1.4395  0.1952  0.3328
  101MOL   H28336483   7.365   6.514   7.758  2.4057 -2.2293  1.3582
  101MOL   H28436484   7.233   6.703   7.794 -1.2652  0.0090  0.9284
  101MOL   H28536485   7.347   6.761   0.074  1.9141 -0.7780 -0.1559
  101MOL   H28636486   7.248   6.597   0.231 -1.6768 -1.3093  0.5247
  101MOL   H28736487   7.152   6.525   0.095  1.0159 -0.3698  0.0959
  101MOL   H28836488   7.047   6.708   0.274 -0.3403 -0.5175 -1.0540
  101MOL   H28936489   7.119   6.807   0.164 -0.6099 -0.1545 -0.7294
  101MOL   C29036490   6.879   6.790   0.079  0.6259 -0.7699 -0.4176
  101MOL   O29136491   6.867   6.882   0.156  0.0001 -0.3449  0.3018
  101MOL   C29236492   6.792   6.783   7.803 -0.5130  0.4259 -0.1546
  101MOL   C29336493   6.649   6.741   7.827  0.7980 -0.2711  0.8179
  101MOL   C29436494   6.559   6.853   0.037  0.1050 -0.1005  0.5766
  101MOL   C29536495   6.406   6.819   0.031 -0.3539  0.0248  0.2106
  101MOL   C29636496   6.322   6.932   0.102 -0.2772 -0.4173  0.1237
  101MOL   O29736497   6.329   7.059   0.031 -0.5411  0.5581  0.1198
  101MOL   H29836498   6.838   6.713   7.734  1.8207 -0.3514  2.1009
  101MOL   H29936499   6.796   6.871   7.739 -1.3980 -2.2822 -4.0805
  101MOL   H30036500   6.652   6.650   0.042 -0.3579 -1.8682 -1.5200
  101MOL   H30136501   6.617   6.710   7.728 -0.1205  0.4297  0.8922
  101MOL   H30236502   6.576   6.945   7.825  0.0391 -0.3946  0.0830
  101MOL   H30336503   6.591   6.894   0.133 -0.6438  0.5596  0.5606
  101MOL   H30436504   6.385   6.727   0.085 -0.2765 -0.7184 -1.0191
  101MOL   H30536505   6.385   6.817   7.768 -0.6349  1.7377  0.2226
  101MOL   H30636506   6.220   6.904   0.130  0.9625 -2.1786  2.9979
  101MOL   H30736507   6.360   6.954   0.202 -3.3021 -0.6887  1.4136
  101MOL   C30836508   6.250   7.166   0.077  0.1124  0.3860 -0.2385
  101MOL   O30936509   6.194   7.167   0.187  0.0758  0.0655 -0.7929
  101MOL   C31036510   6.241   7.282   7.813  0.5462  0.3244 -0.3214
  101MOL   C31136511   6.100   7.272   7.750 -0.1496 -0.0917 -0.1765
  101MOL   C31236512   6.094   7.356   7.617  0.7016 -0.2834  0.7742
  101MOL   C31336513   5.962   7.355   7.536  0.3995 -0.2710  0.2019
  101MOL   C31436514   5.976   7.423   7.399  0.7390 -0.1986  0.0839
  101MOL   O31536515   6.036   7.551   7.407  0.0024  0.0696 -0.0164
  101MOL   H31636516   6.321   7.264   7.742  0.2790 -1.0640 -0.2791
  101MOL   H31736517   6.253   7.377   0.021  0.0173  0.2334 -0.0282
  101MOL   H31836518   6.030   7.314   7.822 -0.1232 -0.3603  0.0062
  101MOL   H31936519   6.063   7.172   7.730 -0.7719  0.2353 -0.6481
  101MOL   H32036520   6.170   7.307   7.556  0.6640 -0.9529  1.2610
  101MOL   H32136521   6.110   7.463   7.630 -1.8223  0.3686 -1.1713
  101MOL   H32236522   5.875   7.400   7.583  0.8742 -0.3494  1.1791
  101MOL   H32336523   5.927   7.253   7.521  0.5910 -0.6111  1.9435
  101MOL   H32436524   6.027   7.357   7.330 -0.9519 -3.0703  1.4873
  101MOL   H32536525   5.878   7.430   7.353  0.6076  0.9821  0.5089
  101MOL   C32636526   5.971   7.661   7.451 -0.5328 -0.4209 -0.6458
  101MOL   O32736527   5.849   7.666   7.460 -0.4386 -0.0116  0.2150
  101MOL   C32836528   6.061   7.782   7.475  0.1248 -0.2851  0.0954
  101MOL   C32936529   6.141   7.824   7.351 -0.1066  0.5582  0.9092
  101MOL   C33036530   6.227   0.111   7.361  0.3304  0.2047 -0.1152
  101MOL   C33136531   6.286   0.151   7.222 -0.9371 -0.1141 -0.7377
  101MOL   C33236532   6.350   0.287   7.218  0.5450 -0.0048  0.0892
  101MOL   O33336533   6.471   0.301   7.295 -0.3259  0.1182  0.3151
  101MOL   H33436534   6.130   7.763   7.557 -1.6353  1.2301  1.9623
  101MOL   H33536535   5.994   0.021   7.498 -0.1757 -0.8047  1.1093
  101MOL   H33636536   6.075   7.836   7.266  3.8509  0.6945 -2.2877
  101MOL   H33736537   6.203   7.738   7.329 -0.8132 -0.4923  2.9455
  101MOL   H33836538   6.299   0.097   7.441 -2.0504  0.8017  2.1768
  101MOL   H33936539   6.162   0.196   7.382 -0.6873 -0.5157 -0.2883
  101MOL   H34036540   6.198   0.146   7.158 -2.6345 -0.9982  1.5738
  101MOL   H34136541   6.345   0.067   7.183 -0.4494 -0.4223  0.6199
  101MOL   H34236542   6.373   0.307   7.114 -3.2347 -0.3759 -0.8773
  101MOL   H34336543   6.273   0.362   7.240  1.0988  0.1568  1.5378
  101MOL   C34436544   6.514   0.419   7.339 -0.1864 -0.3900 -0.2301
  101MOL   O34536545   6.460   0.530   7.321 -0.4026  0.4426 -0.2098
  101MOL   C34636546   6.649   0.418   7.412 -0.0409  0.0134 -0.7340
  101MOL   C34736547   6.623   0.380   7.558  1.1864 -0.5092  0.7842
  101MOL   C34836548   6.554   0.484   7.644 -0.0565 -0.0869 -0.1695
  101MOL   C34936549   6.564   0.468   7.790  0.4279 -0.4235 -0.7999
  101MOL   C35036550   6.477   0.571   0.025  0.4579  1.3691  0.0367
  101MOL   O35136551   6.482   0.546   0.164 -0.0814 -0.6852  0.3109
  101MOL   H35236552   6.709   0.507   7.394 -1.2813  0.5416 -2.3060
  101MOL   H35336553   6.697   0.337   7.356  0.5197  1.1623 -1.9156
  101MOL   H35436554   6.712   0.349   7.613 -1.1778 -0.0649  5.0888
  101MOL   H35536555   6.555   0.294   7.565  2.8296 -2.0328 -1.2654
  101MOL   H35636556   6.453   0.507   7.610 -0.6811 -2.0824  0.2396
  101MOL   H35736557   6.606   0.580   7.637 -1.5082  0.7100 -0.2979
  101MOL   H35836558   6.667   0.473   7.824  0.3268  1.3408 -0.7071
  101MOL   H35936559   6.533   0.368   7.820  2.6759 -0.5356  1.2721
  101MOL   H36036560   6.499   0.675   0.003  2.6989  0.7057 -1.0830
  101MOL   H36136561   6.372   0.571   7.840  0.8484  0.5289 -1.4094
  101MOL   H36236562   6.425   0.611   0.202  0.2518  0.6926 -1.4652
  102MOL     C136563   7.116   6.927   3.810  0.1889 -0.4365 -0.6477
  102MOL     O236564   7.084   6.991   3.705  0.1580 -0.3291  0.0934
  102MOL     C336565   7.047   6.797   3.864 -0.0887 -0.6572 -0.3323
  102MOL     C436566   6.957   6.732   3.762 -0.0004  0.5149 -0.1505
  102MOL     C536567   7.045   6.656   3.658  0.2931  0.3985  0.1232
  102MOL     C636568   6.968   6.567   3.572  0.0326  0.2401  0.3270
  102MOL     C736569   6.937   6.425   3.628 -0.3708  0.7782 -0.1089
  102MOL     O836570   6.856   6.452   3.740  0.3670 -0.0734  0.1381
  102MOL     H936571   6.987   6.834   3.948  0.6273  0.4909 -0.3181
  102MOL    H1036572   7.111   6.733   3.925  0.2560 -0.5311 -0.5640
  102MOL    H1136573   6.887   6.806   3.725  0.7199  3.0579  3.3706
  102MOL    H1236574   6.900   6.660   3.821 -0.8074  0.2913 -1.1874
  102MOL    H1336575   7.126   6.602   3.707  0.8749  0.7792 -0.4063
  102MOL    H1436576   7.089   6.736   3.598 -0.8192 -0.1120 -1.3998
  102MOL    H1536577   7.011   6.554   3.472  1.9706  0.3448  1.1254
  102MOL    H1636578   6.877   6.625   3.563  0.4293  1.0945  1.6856
  102MOL    H1736579   6.895   6.350   3.562 -0.3147 -1.0056  1.8523
  102MOL    H1836580   7.032   6.381   3.661 -0.6930 -0.2157 -0.5011
  102MOL    H1936581   7.196   6.953   3.879  0.6114 -1.0898 -0.8888
  102MOL    C2036582   6.763   6.357   3.776  0.0664  0.7567  0.4796
  102MOL    O2136583   6.725   6.259   3.709  0.4685 -0.3010 -0.1172
  102MOL    C2236584   6.694   6.386   3.911  0.2844  0.7534 -0.2776
  102MOL    C2336585   6.578   6.290   3.957 -0.0713  0.5130 -0.3524
  102MOL    C2436586   6.611   6.139   3.971 -0.5430  0.6733 -0.6776
  102MOL    C2536587   6.731   6.121   4.070  0.1918  0.0464  0.1113
  102MOL    C2636588   6.739   5.974   4.127 -0.0177 -0.4801  0.3355
  102MOL    O2736589   6.709   5.879   4.022 -0.2132  0.6419 -0.8770
  102MOL    H2836590   6.664   6.490   3.902  0.4390  0.6805 -1.6350
  102MOL    H2936591   6.768   6.388   3.991 -0.4198 -1.2804  0.4464
  102MOL    H3036592   6.497   6.291   3.884  1.6975 -0.7356 -2.4017
  102MOL    H3136593   6.526   6.324   4.047  0.3400  0.8274 -0.2340
  102MOL    H3236594   6.636   6.102   3.872  4.9251 -1.5695  1.3451
  102MOL    H3336595   6.523   6.082   3.999  0.2455  0.5569  1.7110
  102MOL    H3436596   6.711   6.186   4.154  0.8347 -0.9185  1.0265
  102MOL    H3536597   6.821   6.152   4.018  2.5038 -1.6104  2.9722
  102MOL    H3636598   6.834   5.973   4.181  0.1969 -0.3362 -0.0438
  102MOL    H3736599   6.655   5.963   4.196 -0.1257 -0.9960  0.1244
  102MOL    C3836600   6.802   5.807   3.969 -0.4091  0.5319 -0.8346
  102MOL    O3936601   6.920   5.814   3.999 -0.0136  0.1211 -0.0828
  102MOL    C4036602   6.750   5.727   3.845 -0.2949  0.5741  0.5159
  102MOL    C4136603   6.674   5.815   3.745  0.0118  0.3339  0.2402
  102MOL    C4236604   6.772   5.907   3.678 -0.5380 -0.1894 -0.5186
  102MOL    C4336605   6.887   5.837   3.587  0.2464 -0.1726 -0.1504
  102MOL    C4436606   6.991   5.946   3.549  0.5911  0.1193  0.2332
  102MOL    O4536607   6.922   6.050   3.473  0.3526 -0.6095 -0.6894
  102MOL    H4636608   6.695   5.646   3.891 -1.3614  1.5229  0.9271
  102MOL    H4736609   6.841   5.690   3.797 -1.0524 -1.1530  0.3857
  102MOL    H4836610   6.597   5.877   3.790  1.7368  1.2202  2.0641
  102MOL    H4936611   6.627   5.748   3.673  1.1795  0.0874 -0.3200
  102MOL    H5036612   6.813   5.976   3.752 -1.7597  1.0124 -0.9454
  102MOL    H5136613   6.720   5.979   3.615 -3.0219 -2.1598 -0.8221
  102MOL    H5236614   6.841   5.811   3.492  1.7762  1.6724 -1.4248
  102MOL    H5336615   6.938   5.751   3.630  0.5155  0.5653  1.0509
  102MOL    H5436616   7.040   5.993   3.634  3.4169  0.1575 -1.3405
  102MOL    H5536617   7.070   5.908   3.484 -0.8603 -1.0597 -0.8865
  102MOL    C5636618   6.997   6.127   3.388  0.2148 -0.4200  0.2142
  102MOL    O5736619   7.122   6.144   3.379  0.2042 -0.0229  0.5303
  102MOL    C5836620   6.898   6.191   3.285  0.0976 -0.2994  0.3403
  102MOL    C5936621   6.961   6.286   3.169 -0.6969  0.3919  0.4458
  102MOL    C6036622   6.844   6.341   3.078  0.4254  0.5822  0.1016
  102MOL    C6136623   6.875   6.430   2.953 -0.5270  0.6440  0.2841
  102MOL    C6236624   6.917   6.571   2.995  0.0106 -0.2632  0.1230
  102MOL    O6336625   7.057   6.583   3.018  0.2303 -0.2046 -0.6894
  102MOL    H6436626   6.829   6.252   3.343  0.6697  0.8074 -0.1097
  102MOL    H6536627   6.834   6.115   3.241 -0.6177  0.2210  0.4714
  102MOL    H6636628   7.037   6.235   3.111 -1.1234 -0.2739  0.4722
  102MOL    H6736629   7.020   6.369   3.209  0.2249 -1.1851  2.4112
  102MOL    H6836630   6.767   6.394   3.134  0.0404  0.1715 -0.0329
  102MOL    H6936631   6.785   6.254   3.049  0.8750  0.4038 -0.2808
  102MOL    H7036632   6.779   6.441   2.902  0.2434 -0.7146 -1.4845
  102MOL    H7136633   6.946   6.384   2.884  0.4985  0.0313  1.7371
  102MOL    H7236634   6.895   6.640   2.913  1.1901 -0.9470 -0.7894
  102MOL    H7336635   6.853   6.625   3.065 -0.4921  1.7592 -1.8184
  102MOL    C7436636   7.105   6.613   3.137 -0.9052  0.0836 -0.7774
  102MOL    O7536637   7.031   6.636   3.233 -0.3154 -0.3226 -0.2248
  102MOL    C7636638   7.252   6.616   3.150 -1.2514 -0.2034  0.1903
  102MOL    C7736639   7.310   6.558   3.287 -0.7050 -0.6463  0.4290
  102MOL    C7836640   7.333   6.666   3.395 -0.6149 -0.0371  0.9440
  102MOL    C7936641   7.369   6.596   3.521 -0.2783  1.3237 -0.4528
  102MOL    C8036642   7.411   6.703   3.622  0.0205 -0.3534 -0.4125
  102MOL    O8136643   7.448   6.642   3.747 -0.1593 -0.2704  0.0616
  102MOL    H8236644   7.296   6.714   3.136  0.6231 -1.2590 -1.6804
  102MOL    H8336645   7.293   6.564   3.063 -0.0669  0.5911  0.2570
  102MOL    H8436646   7.403   6.509   3.258 -0.6168  0.9189 -2.1413
  102MOL    H8536647   7.251   6.475   3.326 -0.2352 -1.5008 -0.6721
  102MOL    H8636648   7.242   6.725   3.407 -0.8589 -0.6270  2.1009
  102MOL    H8736649   7.409   6.740   3.371 -0.8794  0.6089  2.0712
  102MOL    H8836650   7.449   6.523   3.505  0.4043  1.4716  2.0417
  102MOL    H8936651   7.287   6.539   3.565 -0.0231  2.7257  1.8956
  102MOL    H9036652   7.498   6.761   3.590 -0.5817  1.9205  1.8469
  102MOL    H9136653   7.325   6.770   3.631  1.0150  0.7544  1.1602
  102MOL    C9236654   7.452   6.715   3.860 -0.9380  0.9952 -0.2946
  102MOL    O9336655   7.446   6.840   3.869  0.3486 -0.1973 -0.4254
  102MOL    C9436656   7.496   6.625   3.983 -0.1203 -0.0543 -0.5336
  102MOL    C9536657   7.479   6.689   4.124 -0.0280 -0.3824  0.1623
  102MOL    C9636658   7.498   6.594   4.238  0.4556 -0.4207  0.2376
  102MOL    C9736659   7.470   6.647   4.378  0.4110 -0.3966  0.1743
  102MOL    C9836660   7.495   6.546   4.492 -0.0826  0.3507 -0.2078
  102MOL    O9936661   7.497   6.615   4.611 -0.3250 -0.2808  0.3199
  102MOL   H10036662   7.601   6.602   3.964 -0.5884 -0.9391 -2.1362
  102MOL   H10136663   7.435   6.535   3.972 -3.0641  1.9579 -1.3567
  102MOL   H10236664   7.375   6.723   4.121  0.6194  1.7362  0.7819
  102MOL   H10336665   7.535   6.782   4.133 -0.6259 -0.0951  1.0349
  102MOL   H10436666   7.603   6.564   4.230  0.7895  0.6317  0.5414
  102MOL   H10536667   7.438   6.507   4.213 -0.6146  0.4215 -0.1371
  102MOL   H10636668   7.364   6.671   4.382  0.3628 -0.6595  0.5070
  102MOL   H10736669   7.535   6.732   4.402  0.8309 -0.5020 -0.5875
  102MOL   H10836670   7.426   6.462   4.489 -0.5795  0.7862 -1.2758
  102MOL   H10936671   7.593   6.497   4.492 -0.2568  0.0031  0.0639
  102MOL   C11036672   7.445   6.568   4.720 -0.2782 -0.5322 -0.4351
  102MOL   O11136673   7.403   6.455   4.734  0.1508  0.5010  0.6521
  102MOL   C11236674   7.424   6.670   4.833  0.7456 -0.3892  0.3899
  102MOL   C11336675   7.346   6.616   4.957  0.1119 -0.9376  0.3388
  102MOL   C11436676   7.425   6.524   5.049  0.1351 -0.1611 -0.6966
  102MOL   C11536677   7.350   6.427   5.151  0.0162 -0.4310 -0.4316
  102MOL   C11636678   7.448   6.346   5.233  0.1260 -0.1214 -0.1162
  102MOL   O11736679   7.515   6.260   5.147 -0.4178  0.4255  0.2268
  102MOL   H11836680   7.363   6.748   4.786 -2.3145 -0.4514  4.0355
  102MOL   H11936681   7.514   6.721   4.867  0.2168 -0.7764  2.4013
  102MOL   H12036682   7.258   6.568   4.915 -0.6406 -1.6909  2.6950
  102MOL   H12136683   7.302   6.695   5.018 -0.2175  0.3005 -1.4705
  102MOL   H12236684   7.499   6.586   5.100  0.8014 -0.6433 -1.0653
  102MOL   H12336685   7.476   6.459   4.977  1.4820  1.2804 -1.0693
  102MOL   H12436686   7.285   6.369   5.085 -1.6220  1.1724 -0.2585
  102MOL   H12536687   7.285   6.494   5.207  0.2299 -0.1717 -0.4958
  102MOL   H12636688   7.518   6.414   5.280  2.6026 -2.8938  0.3484
  102MOL   H12736689   7.396   6.291   5.311  0.5629  0.3889  0.5395
  102MOL   C12836690   7.642   6.290   5.115 -0.7532 -0.3775 -0.6076
  102MOL   O12936691   7.711   6.388   5.156  0.5999 -0.3138 -0.2271
  102MOL   C13036692   7.708   6.193   5.019  0.2691 -0.8607 -0.5331
  102MOL   C13136693   7.622   6.144   4.898  1.0440 -0.6125  0.4893
  102MOL   C13236694   7.715   6.156   4.767 -0.0824 -0.4061 -0.0622
  102MOL   C13336695   7.655   6.092   4.639 -0.2496 -0.4174 -0.3608
  102MOL   C13436696   7.505   6.118   4.621  0.2217  0.4005 -0.7001
  102MOL   O13536697   7.415   6.032   4.686  0.2109 -0.1829  0.8061
  102MOL   H13636698   7.753   6.113   5.077  1.5113  0.7781  0.8216
  102MOL   H13736699   7.785   6.261   4.982 -1.1764  0.8815 -0.4502
  102MOL   H13836700   7.522   6.187   4.898  0.6405 -1.4755 -2.1460
  102MOL   H13936701   7.611   6.037   4.920  0.9237 -0.7276 -0.1289
  102MOL   H14036702   7.813   6.119   4.797 -0.2082 -1.1906 -0.6158
  102MOL   H14136703   7.735   6.261   4.749 -0.3762 -0.0975  1.3293
  102MOL   H14236704   7.686   5.988   4.636 -2.0939 -1.0130  0.7994
  102MOL   H14336705   7.707   6.140   4.555 -2.0411 -0.6682 -1.6380
  102MOL   H14436706   7.479   6.209   4.674  0.5992 -0.7525  1.5428
  102MOL   H14536707   7.479   6.119   4.515 -1.0399 -2.1023 -0.4528
  102MOL   C14636708   7.363   5.932   4.613 -0.0428  0.5782 -0.0892
  102MOL   O14736709   7.374   5.902   4.496  0.1897  0.7744 -0.3622
  102MOL   C14836710   7.266   5.844   4.689 -0.2357  0.3862  0.3934
  102MOL   C14936711   7.332   5.755   4.797  0.1602 -0.4836 -0.1818
  102MOL   C15036712   7.414   5.629   4.750 -0.5303 -0.2889  0.4404
  102MOL   C15136713   7.492   5.554   4.863  0.4148 -0.4233 -0.2759
  102MOL   C15236714   7.568   5.430   4.813  0.3928 -0.2222  0.2407
  102MOL   O15336715   7.652   5.373   4.916 -0.5451  0.4254  0.0172
  102MOL   H15436716   7.214   5.768   4.629  1.5728  0.4547 -1.3102
  102MOL   H15536717   7.193   5.913   4.732 -2.3205  0.2640 -2.7468
  102MOL   H15636718   7.254   5.717   4.863  0.5844 -1.3373 -0.1595
  102MOL   H15736719   7.399   5.812   4.862  0.1521  0.0160 -0.6133
  102MOL   H15836720   7.487   5.647   4.671 -1.0995 -0.7224 -0.1881
  102MOL   H15936721   7.341   5.567   4.698 -0.4496 -1.1979  1.3911
  102MOL   H16036722   7.425   5.522   4.943  0.5410 -0.1526 -0.0572
  102MOL   H16136723   7.562   5.624   4.910 -1.1193  0.7738  0.2556
  102MOL   H16236724   7.498   5.358   4.772  0.2281 -0.3667  0.7811
  102MOL   H16336725   7.630   5.459   4.728 -0.7380 -0.4955 -0.6906
  102MOL   C16436726   7.589   5.301   5.003  0.0427 -0.6561  0.5730
  102MOL   O16536727   7.472   5.281   5.026  0.1876 -0.2398 -0.3453
  102MOL   C16636728   7.688   5.242   5.104  0.5551 -0.4614  0.6854
  102MOL   C16736729   7.638   5.157   5.221 -0.2740 -0.4207  0.2126
  102MOL   C16836730   7.741   5.095   5.314 -0.3526  0.6681  0.0038
  102MOL   C16936731   7.810   4.974   5.253  0.0371  0.0254 -0.0605
  102MOL   C17036732   0.067   4.910   5.350 -0.4785  0.4455 -0.1738
  102MOL   O17136733   0.139   4.807   5.288 -0.0864  0.2640 -0.2920
  102MOL   H17236734   7.750   5.320   5.148 -0.9961  0.6399  0.9562
  102MOL   H17336735   7.759   5.178   5.051  1.3952  1.6529 -0.8033
  102MOL   H17436736   7.565   5.082   5.191 -0.6001 -0.9416  2.2463
  102MOL   H17536737   7.590   5.223   5.294  1.6730  0.3787  0.7902
  102MOL   H17636738   7.690   5.059   5.403 -1.6970 -2.5139 -1.9248
  102MOL   H17736739   7.813   5.167   5.351  2.3655 -0.6279 -2.5789
  102MOL   H17836740   0.019   4.998   5.161  1.0050  0.0230  0.4912
  102MOL   H17936741   7.740   4.902   5.210  0.6778 -0.5264 -0.2057
  102MOL   H18036742   0.135   4.986   5.388  0.7467 -1.2527  1.0772
  102MOL   H18136743   0.010   4.873   5.435 -1.1076  0.3673 -0.6249
  102MOL   C18236744   0.273   4.798   5.310 -0.2036 -0.0571  0.2736
  102MOL   O18336745   0.345   4.882   5.361  0.0106  0.2060 -0.0692
  102MOL   C18436746   0.327   4.665   5.262  0.0544 -0.0012  0.2071
  102MOL   C18536747   0.481   4.649   5.247 -0.2171  0.6423 -0.6118
  102MOL   C18636748   0.554   4.648   5.381 -0.1266  0.1550 -0.4212
  102MOL   C18736749   0.707   4.650   5.379 -0.4016 -0.4026  0.5300
  102MOL   C18836750   0.768   4.681   5.516  0.0310  0.0834 -0.3268
  102MOL   O18936751   0.746   4.574   5.598  0.4136  0.0147  0.4788
  102MOL   H19036752   0.292   4.648   5.160  0.2802 -0.6208  0.2285
  102MOL   H19136753   0.292   4.587   5.330  2.2377 -0.0590  1.3087
  102MOL   H19236754   0.509   4.733   5.184  0.8710  1.7092  1.2720
  102MOL   H19336755   0.497   4.563   5.182  1.3623  0.1885  0.3649
  102MOL   H19436756   0.523   4.558   5.434  1.4434 -0.0323  0.2359
  102MOL   H19536757   0.521   4.728   5.448  2.0588 -0.6726  1.7302
  102MOL   H19636758   0.719   4.737   5.315 -0.0898 -0.9192 -0.1190
  102MOL   H19736759   0.759   4.569   5.329  1.5008 -0.8137  3.0767
  102MOL   H19836760   0.874   4.707   5.520  0.2406 -0.6686 -0.8178
  102MOL   H19936761   0.718   4.772   5.550  0.6673  0.4009 -0.2404
  102MOL   C20036762   0.845   4.499   5.642 -0.1508  0.6113  0.4137
  102MOL   O20136763   0.952   4.492   5.584  0.5178  0.1395  0.7515
  102MOL   C20236764   0.797   4.400   5.750 -0.1526  0.0658 -0.4655
  102MOL   C20336765   0.895   4.383   5.873  0.3980 -0.1619 -0.2855
  102MOL   C20436766   0.892   4.494   5.976 -0.7106  0.2995 -0.2263
  102MOL   C20536767   0.981   4.477   6.104 -0.1923 -0.1377 -0.5854
  102MOL   C20636768   1.014   4.608   6.173  0.1712 -0.1173  0.6219
  102MOL   O20736769   0.898   4.677   6.228 -0.0897  0.3153 -0.1019
  102MOL   H20836770   0.771   4.310   5.695  0.9336 -0.5483  0.0112
  102MOL   H20936771   0.702   4.439   5.788  0.5656 -0.3772  1.8365
  102MOL   H21036772   0.994   4.377   5.828  1.6256  0.0191  2.3075
  102MOL   H21136773   0.871   4.284   5.913  0.4074 -0.4876 -1.0622
  102MOL   H21236774   0.787   4.500   6.005 -0.8204 -0.2312 -0.5054
  102MOL   H21336775   0.904   4.587   5.921  1.8123 -0.3616 -0.8881
  102MOL   H21436776   1.066   4.415   6.079 -0.0754  0.0392 -0.6281
  102MOL   H21536777   0.926   4.419   6.179  0.4048 -0.1542 -0.1537
  102MOL   H21636778   1.077   4.587   6.260  0.6966 -0.7031  0.1045
  102MOL   H21736779   1.069   4.680   6.112 -1.9576  0.6903 -0.3610
  102MOL   C21836780   0.913   4.795   6.287 -0.6057  0.2518  0.1736
  102MOL   O21936781   1.024   4.855   6.296  0.1014 -0.9536 -0.0357
  102MOL   C22036782   0.789   4.848   6.355 -1.0408 -0.2585  0.4439
  102MOL   C22136783   0.771   4.803   6.504 -0.4279  0.5247  0.5257
  102MOL   C22236784   0.885   4.832   6.604 -0.2133  0.0806 -0.1934
  102MOL   C22336785   0.850   4.819   6.748 -0.7549 -0.3602 -0.1711
  102MOL   C22436786   0.952   4.863   6.851 -0.4338  0.1862 -0.0497
  102MOL   O22536787   0.991   4.994   6.824  0.4085 -0.3184 -0.3636
  102MOL   H22636788   0.702   4.810   6.302 -3.0282  1.8503  2.1011
  102MOL   H22736789   0.784   4.957   6.348  3.3774  0.1222  1.3726
  102MOL   H22836790   0.747   4.697   6.511  0.8417  0.2758  1.3362
  102MOL   H22936791   0.674   4.842   6.533 -0.9808 -0.1810 -0.3424
  102MOL   H23036792   0.925   4.933   6.590  0.2095  0.1552  1.4223
  102MOL   H23136793   0.974   4.773   6.583  0.4631  0.5209  1.3420
  102MOL   H23236794   0.823   4.716   6.770  0.3930 -0.6226  0.0513
  102MOL   H23336795   0.761   4.879   6.768 -0.9133 -0.6566  0.0067
  102MOL   H23436796   0.910   4.866   6.952  1.1513 -0.3930  0.6446
  102MOL   H23536797   1.040   4.799   6.847 -0.4744  0.0947  0.4207
  102MOL   C23636798   1.073   5.049   6.919  0.2142 -0.1007 -0.4433
  102MOL   O23736799   1.110   4.995   7.024  0.5195 -0.3787  0.2595
  102MOL   C23836800   1.123   5.192   6.889 -0.0911 -0.5920 -0.1122
  102MOL   C23936801   1.061   5.255   6.761  0.4946  0.0255 -0.7461
  102MOL   C24036802   0.922   5.308   6.792  0.0073  0.6695 -0.0264
  102MOL   C24136803   0.854   5.379   6.677 -0.2561  0.3160  0.2323
  102MOL   C24236804   0.821   5.287   6.556 -0.7174  0.2125 -0.0612
  102MOL   O24336805   0.737   5.181   6.598  0.5211  0.0758 -0.1434
  102MOL   H24436806   1.232   5.197   6.882 -0.1412 -0.0713 -0.5736
  102MOL   H24536807   1.103   5.267   6.965 -0.8404  0.4064 -1.2684
  102MOL   H24636808   1.064   5.181   6.681  1.4331  0.3587 -1.0315
  102MOL   H24736809   1.136   5.331   6.737 -1.9564  2.3129 -1.4076
  102MOL   H24836810   0.937   5.390   6.862 -0.3352  1.1860 -0.5545
  102MOL   H24936811   0.860   5.237   6.847  2.3582 -1.1757  0.3630
  102MOL   H25036812   0.906   5.465   6.635  0.7110 -0.6448 -0.5601
  102MOL   H25136813   0.768   5.441   6.705 -1.0938 -0.8101  0.1846
  102MOL   H25236814   0.771   5.349   6.483 -1.6738 -0.1276  0.2912
  102MOL   H25336815   0.910   5.244   6.510 -0.2269 -0.7122  1.6788
  102MOL   C25436816   0.609   5.207   6.637 -0.4988  0.1546  0.0668
  102MOL   O25536817   0.546   5.307   6.616  0.6249  0.3086  0.4124
  102MOL   C25636818   0.555   5.091   6.722 -0.5215 -0.5290 -0.1427
  102MOL   C25736819   0.616   5.094   6.868  0.2958 -0.5388  0.3161
  102MOL   C25836820   0.565   5.221   6.945  0.0344 -0.1643 -0.2780
  102MOL   C25936821   0.420   5.212   6.988 -0.2493  0.4476 -0.3178
  102MOL   C26036822   0.372   5.325   7.080 -0.7778 -0.0969 -0.3672
  102MOL   O26136823   0.385   5.447   7.012 -0.3867  0.6710  0.5715
  102MOL   H26236824   0.570   4.998   6.668 -1.8245  0.0328 -1.5008
  102MOL   H26336825   0.449   5.117   6.721 -0.3223  0.2757 -1.4790
  102MOL   H26436826   0.724   5.083   6.871  0.5784  1.9262  0.7549
  102MOL   H26536827   0.570   5.000   6.898 -0.4520 -0.4907 -0.6537
  102MOL   H26636828   0.579   5.312   6.887  1.8146 -0.3562 -0.1819
  102MOL   H26736829   0.626   5.231   7.034 -1.8556 -0.6179  1.1065
  102MOL   H26836830   0.399   5.113   7.028  0.2574  0.5935  0.3249
  102MOL   H26936831   0.354   5.217   6.902 -0.9846  1.4993  0.2869
  102MOL   H27036832   0.268   5.316   7.111 -0.2883  0.2171  1.4146
  102MOL   H27136833   0.430   5.316   7.172 -0.9270  2.3577  0.0242
  102MOL   C27236834   0.364   5.557   7.078 -0.2976 -0.2119  0.6251
  102MOL   O27336835   0.340   5.573   7.197  0.8522  0.2316 -0.1628
  102MOL   C27436836   0.380   5.676   6.987  0.0935  0.7251 -0.1406
  102MOL   C27536837   0.263   5.709   6.893  0.2888 -0.7718 -0.4209
  102MOL   C27636838   0.127   5.745   6.958 -0.1776  1.3493  0.0642
  102MOL   C27736839   0.003   5.722   6.873 -0.4006  0.4531  0.1657
  102MOL   C27836840   7.716   5.718   6.959 -0.1404  0.1774 -0.4183
  102MOL   O27936841   7.595   5.699   6.878  0.1536 -0.3253 -1.0700
  102MOL   H28036842   0.469   5.664   6.925 -0.0389  1.4423 -0.4768
  102MOL   H28136843   0.391   5.763   7.051 -1.2321 -1.2551  2.8941
  102MOL   H28236844   0.255   5.622   6.828 -1.0771 -0.6978 -0.3640
  102MOL   H28336845   0.292   5.800   6.840 -0.8808  0.0507  0.3050
  102MOL   H28436846   0.139   5.849   6.986  2.6010  0.8836  0.7847
  102MOL   H28536847   0.116   5.679   7.044  0.4257 -0.8943 -1.5102
  102MOL   H28636848   0.012   5.623   6.827 -2.6404 -0.8396  2.3738
  102MOL   H28736849   7.836   5.799   6.797 -0.0822 -0.8731 -1.2572
  102MOL   H28836850   7.708   5.633   7.027 -0.7235  0.1409 -0.5307
  102MOL   H28936851   7.709   5.802   7.027 -0.4798  0.7729 -1.1786
  102MOL   C29036852   7.520   5.805   6.858  0.0557 -0.2500  0.3606
  102MOL   O29136853   7.541   5.922   6.895  0.2886 -0.3874 -0.4250
  102MOL   C29236854   7.391   5.778   6.780  0.1740 -0.2221  0.5619
  102MOL   C29336855   7.400   5.796   6.627 -0.5668  0.4398  0.3125
  102MOL   C29436856   7.515   5.718   6.556 -0.2402  0.1561 -0.1003
  102MOL   C29536857   7.498   5.559   6.560 -0.1150 -0.2422  0.1086
  102MOL   C29636858   7.578   5.493   6.443  0.0732  0.5243 -0.5015
  102MOL   O29736859   7.519   5.367   6.419  0.2396  0.3720 -0.7624
  102MOL   H29836860   7.309   5.841   6.813  0.3979 -0.3954  1.4644
  102MOL   H29936861   7.357   5.677   6.807  0.8127 -0.7348 -0.5144
  102MOL   H30036862   7.400   5.901   6.599  0.1138  0.2870 -0.2683
  102MOL   H30136863   7.309   5.752   6.587 -0.0705  0.1535 -0.5059
  102MOL   H30236864   7.611   5.755   6.590 -0.8564  1.8062 -0.1108
  102MOL   H30336865   7.543   5.740   6.453 -0.8016  0.1558 -0.2531
  102MOL   H30436866   7.392   5.533   6.556 -0.2558  0.1509  1.0221
  102MOL   H30536867   7.535   5.522   6.655  0.0421 -0.4975 -0.0518
  102MOL   H30636868   7.567   5.558   6.356  1.3056  2.1996  0.5652
  102MOL   H30736869   7.682   5.471   6.468 -0.4590 -2.2940 -0.6017
  102MOL   C30836870   7.401   5.360   6.350  0.1102 -0.7424  0.3067
  102MOL   O30936871   7.339   5.455   6.309  0.4226 -0.0197 -0.5078
  102MOL   C31036872   7.350   5.215   6.332  0.4406 -0.0485 -0.2634
  102MOL   C31136873   7.353   5.126   6.464 -0.4012  0.7694  0.1484
  102MOL   C31236874   7.230   5.144   6.551 -0.2497 -0.6062  0.1317
  102MOL   C31336875   7.229   5.058   6.677 -0.1157 -0.1510 -0.4635
  102MOL   C31436876   7.113   5.096   6.782 -0.2809  0.2835 -0.1752
  102MOL   O31536877   7.152   5.214   6.849  0.1958  0.2588 -0.2009
  102MOL   H31636878   7.400   5.169   6.246  2.4507  4.3274 -1.5463
  102MOL   H31736879   7.247   5.225   6.299  0.3223  1.1932  0.4574
  102MOL   H31836880   7.436   5.152   6.529 -1.2439  0.2361  1.4444
  102MOL   H31936881   7.367   5.020   6.445  3.2040  1.6145 -2.4774
  102MOL   H32036882   7.144   5.110   6.494  0.8620 -0.1125 -1.8911
  102MOL   H32136883   7.223   5.251   6.572 -2.6977 -0.5886 -0.6102
  102MOL   H32236884   7.325   5.063   6.730  0.5251 -0.8974 -1.5308
  102MOL   H32336885   7.221   4.957   6.636 -1.2050  0.8104 -2.7026
  102MOL   H32436886   7.023   5.123   6.727  1.0530  2.5445 -1.3021
  102MOL   H32536887   7.083   5.006   6.837 -1.5811 -0.1270 -1.5337
  102MOL   C32636888   7.211   5.209   6.967 -0.3852  0.0912 -0.1243
  102MOL   O32736889   7.231   5.110   7.035 -0.3425 -0.1182 -0.1124
  102MOL   C32836890   7.255   5.342   7.006  0.2205 -0.9549  0.5665
  102MOL   C32936891   7.409   5.372   6.995 -0.4293 -0.1013 -0.3555
  102MOL   C33036892   7.486   5.305   6.878 -0.3865  0.3763 -0.1859
  102MOL   C33136893   7.631   5.352   6.866  0.0477  0.5267  0.6536
  102MOL   C33236894   7.688   5.299   6.729  0.1628 -0.0245 -0.2367
  102MOL   O33336895   7.801   5.368   6.685  0.4324 -0.0468  0.3045
  102MOL   H33436896   7.213   5.371   7.102  0.5125 -0.1540  0.4569
  102MOL   H33536897   7.190   5.404   6.945 -0.3126 -1.6003  0.4770
  102MOL   H33636898   7.452   5.332   7.087 -1.7313 -0.0398  0.3036
  102MOL   H33736899   7.428   5.479   6.993  1.2699 -0.4077 -0.8531
  102MOL   H33836900   7.428   5.335   6.791 -0.2507  0.8195 -0.1233
  102MOL   H33936901   7.489   5.196   6.881 -0.9179  0.3232 -1.4429
  102MOL   H34036902   7.700   5.330   6.948 -0.2479  0.8586  0.9924
  102MOL   H34136903   7.627   5.461   6.868  1.0479  0.5873 -0.1019
  102MOL   H34236904   7.697   5.191   6.738  0.2488  0.1790  2.5172
  102MOL   H34336905   7.615   5.313   6.649  0.2804 -2.0481 -0.7216
  102MOL   C34436906   0.084   5.320   6.709  0.3126  0.5026  0.4167
  102MOL   O34536907   0.111   5.219   6.777  0.6935  0.2516  0.1058
  102MOL   C34636908   0.196   5.409   6.643  0.2053 -0.1010  0.1311
  102MOL   C34736909   0.227   5.380   6.486  0.0626  1.0633  0.3927
  102MOL   C34836910   0.120   5.431   6.388 -0.7841 -0.4655 -0.2038
  102MOL   C34936911   0.139   5.581   6.361 -0.1930 -0.1471  0.2104
  102MOL   C35036912   0.032   5.646   6.270 -0.4745  0.3176 -0.1331
  102MOL   O35136913   0.027   5.570   6.150 -0.1497 -0.0979 -0.2354
  102MOL   H35236914   0.290   5.393   6.697 -1.3930  0.3304  3.1646
  102MOL   H35336915   0.175   5.514   6.663 -1.5169 -0.5531  0.7845
  102MOL   H35436916   0.235   5.272   6.469  0.6947  1.1021  0.4343
  102MOL   H35536917   0.324   5.421   6.460  0.9700 -1.1216  0.2043
  102MOL   H35636918   0.016   5.423   6.420 -0.9938  3.8571  0.5450
  102MOL   H35736919   0.135   5.366   6.302  0.0743 -1.8627  0.9853
  102MOL   H35836920   0.237   5.610   6.323 -0.7289  1.0610 -0.2615
  102MOL   H35936921   0.133   5.641   6.452  1.2544 -0.1961  0.3603
  102MOL   H36036922   7.782   5.633   6.323 -0.1645  1.6166  0.7612
  102MOL   H36136923   0.048   5.752   6.253 -0.0325  0.0719 -1.2836
  102MOL   H36236924   7.821   5.490   6.153 -0.9685  0.4720  2.1799
  103MOL     C136925   4.643   2.879   5.313  0.3719  0.1202  0.5984
  103MOL     O236926   4.640   2.759   5.334 -0.6459 -0.4766 -0.3361
  103MOL     C336927   4.555   2.976   5.397  0.3383  0.1052 -0.0934
  103MOL     C436928   4.455   2.904   5.484 -0.4724  0.0861 -0.3044
  103MOL     C536929   4.324   2.987   5.503  0.0275 -0.4086 -0.0956
  103MOL     C636930   4.241   2.940   5.624 -0.2843  0.0355 -0.1277
  103MOL     C736931   4.154   2.817   5.590  0.2969 -0.0870 -0.6727
  103MOL     O836932   4.087   2.771   5.711  0.5694 -0.3456  0.3064
  103MOL     H936933   4.500   3.034   5.322 -1.4149  1.0160  1.8424
  103MOL    H1036934   4.616   3.042   5.458 -1.9367  0.6501  1.6806
  103MOL    H1136935   4.502   2.875   5.578 -0.3504 -0.3747 -0.5081
  103MOL    H1236936   4.420   2.811   5.440 -0.1209  1.0730 -2.7877
  103MOL    H1336937   4.263   2.993   5.413  2.3179 -2.8640 -1.9025
  103MOL    H1436938   4.359   3.090   5.513 -0.0446 -0.0646 -2.9958
  103MOL    H1536939   4.186   3.026   5.661 -1.6776 -0.9947  0.2526
  103MOL    H1636940   4.309   2.908   5.704  0.3543 -0.1127 -0.7281
  103MOL    H1736941   4.076   2.843   5.519  1.7073  0.7837 -1.9352
  103MOL    H1836942   4.208   2.735   5.543  0.1153  0.5167 -1.9558
  103MOL    H1936943   4.707   2.934   5.243 -1.2964  1.1247 -0.1536
  103MOL    C2036944   4.105   2.643   5.753 -0.0079 -0.2099  0.0939
  103MOL    O2136945   4.175   2.559   5.697  0.0655 -0.2912 -0.4552
  103MOL    C2236946   4.032   2.617   5.885  0.0623 -0.4896  0.5173
  103MOL    C2336947   4.126   2.616   6.008  0.0611  0.7463 -0.3362
  103MOL    C2436948   4.035   2.608   6.132 -0.4207 -0.2454  0.3240
  103MOL    C2536949   4.104   2.652   6.257 -0.0861 -0.0929 -0.0374
  103MOL    C2636950   4.189   2.536   6.324  0.3020 -0.5119 -1.0670
  103MOL    O2736951   4.309   2.517   6.247 -0.2725  0.3901 -0.2013
  103MOL    H2836952   3.988   2.518   5.872 -1.8285 -0.2986  4.6387
  103MOL    H2936953   3.953   2.692   5.896 -0.9357 -1.3686 -0.4326
  103MOL    H3036954   4.187   2.706   6.016  1.1844  0.1284 -1.7874
  103MOL    H3136955   4.190   2.533   5.981 -1.4519 -0.6857  0.4166
  103MOL    H3236956   4.003   2.504   6.144  3.9657 -2.0941 -2.7673
  103MOL    H3336957   3.963   2.686   6.108  1.6664  0.8547 -2.6638
  103MOL    H3436958   4.036   2.696   6.330 -0.3691  0.4206 -0.6043
  103MOL    H3536959   4.174   2.734   6.245  0.8063 -0.6283  1.4465
  103MOL    H3636960   4.197   2.577   6.425  0.9356 -1.7728 -0.5870
  103MOL    H3736961   4.125   2.449   6.333  0.9984 -1.1716 -2.3909
  103MOL    C3836962   4.427   2.489   6.313  0.5755 -0.6221 -0.1286
  103MOL    O3936963   4.427   2.459   6.432  0.4142  0.5625  0.6552
  103MOL    C4036964   4.543   2.455   6.220  0.1349  0.2786 -0.0008
  103MOL    C4136965   4.594   2.311   6.255 -0.0107  0.4632  0.2046
  103MOL    C4236966   4.696   2.264   6.151 -0.0442  0.6691 -0.0243
  103MOL    C4336967   4.759   2.133   6.189  0.4539 -0.3671 -0.8082
  103MOL    C4436968   4.855   2.096   6.075  0.4337  0.4094  0.3463
  103MOL    O4536969   4.905   1.960   6.105  0.5365 -0.1561  0.2719
  103MOL    H4636970   4.631   2.518   6.237  1.8610 -1.1048 -3.3461
  103MOL    H4736971   4.512   2.447   6.116  1.0502 -0.7085 -0.2071
  103MOL    H4836972   4.510   2.243   6.269 -0.7892  1.8913  2.8638
  103MOL    H4936973   4.623   2.327   6.358 -1.9278  2.0725  0.5427
  103MOL    H5036974   4.772   2.342   6.143  1.9354 -0.9490  2.3144
  103MOL    H5136975   4.659   2.254   6.049  1.3849  1.3196 -0.6230
  103MOL    H5236976   4.684   2.055   6.203  0.5799 -0.3266  0.1621
  103MOL    H5336977   4.811   2.138   6.285  0.2368 -1.3773 -0.6326
  103MOL    H5436978   4.803   2.091   5.979  1.5477  1.3680 -0.3229
  103MOL    H5536979   4.936   2.168   6.065  1.7964 -1.1576 -0.1839
  103MOL    C5636980   5.017   1.934   6.163  0.6619  0.1025  1.1254
  103MOL    O5736981   5.106   2.010   6.183  0.0271  0.2852 -0.1549
  103MOL    C5836982   5.017   1.793   6.238  0.2608 -1.1230  0.5789
  103MOL    C5936983   4.898   1.767   6.333 -0.3749  0.1799 -0.0877
  103MOL    C6036984   4.899   1.854   6.465 -0.7044  0.5032 -0.5052
  103MOL    C6136985   5.029   1.850   6.544 -0.8101 -0.7630  1.0296
  103MOL    C6236986   5.017   1.923   6.674  0.0000 -0.2621 -0.2100
  103MOL    O6336987   4.918   1.858   6.756  0.5829  0.0178 -1.0322
  103MOL    H6436988   5.117   1.785   6.281 -0.7192 -0.4368  3.0644
  103MOL    H6536989   5.011   1.714   6.162 -0.2003 -0.3408 -0.2061
  103MOL    H6636990   4.890   1.661   6.355  0.1997 -0.3862 -2.5063
  103MOL    H6736991   4.809   1.798   6.279 -0.2833 -1.3162 -1.1156
  103MOL    H6836992   4.814   1.832   6.530  0.8910  0.1759  1.5251
  103MOL    H6936993   4.881   1.957   6.433  0.6548  0.6754 -0.7376
  103MOL    H7036994   5.114   1.884   6.485 -2.3584 -0.8761 -1.3134
  103MOL    H7136995   5.044   1.747   6.573 -0.0081 -0.9437 -0.0005
  103MOL    H7236996   5.115   1.916   6.721 -1.2142  0.7393  2.5418
  103MOL    H7336997   4.989   2.028   6.660 -0.3914 -0.4406 -0.7874
  103MOL    C7436998   4.907   1.907   6.884 -0.1822 -0.1150  0.3369
  103MOL    O7536999   4.969   2.006   6.917  0.2019 -0.1155 -1.0022
  103MOL    C7637000   4.808   1.840   6.967 -0.5245 -0.2573  0.6822
  103MOL    C7737001   4.662   1.868   6.928  1.0721 -0.4930 -0.3788
  103MOL    C7837002   4.552   1.827   7.021  0.1697 -0.0063 -0.5086
  103MOL    C7937003   4.541   1.677   7.021  0.3795  0.8485 -0.0970
  103MOL    C8037004   4.411   1.629   7.075 -0.2378 -0.2256 -0.5666
  103MOL    O8137005   4.408   1.631   7.218 -0.9507 -0.5168  0.2217
  103MOL    H8237006   4.824   1.875   7.069 -1.3678 -0.0901  0.7643
  103MOL    H8337007   4.830   1.733   6.965  2.1053  0.2706 -2.3225
  103MOL    H8437008   4.642   1.844   6.824  0.2006 -0.0351 -0.3218
  103MOL    H8537009   4.661   1.977   6.933  0.8441 -0.4312 -1.7853
  103MOL    H8637010   4.454   1.870   7.003 -0.7190 -1.3352  1.0580
  103MOL    H8737011   4.577   1.857   7.123 -1.5969  2.6287 -0.7923
  103MOL    H8837012   4.627   1.636   7.075  1.8668  2.2068 -1.3806
  103MOL    H8937013   4.556   1.645   6.918  0.9044  3.6866 -0.9688
  103MOL    H9037014   4.332   1.680   7.020  2.2115  1.6985 -2.4529
  103MOL    H9137015   4.394   1.522   7.060 -1.4159 -0.4204  1.9778
  103MOL    C9237016   4.335   1.729   7.272 -0.4056  0.6580 -1.1906
  103MOL    O9337017   4.269   1.812   7.211  1.0164  0.0038  0.5723
  103MOL    C9437018   4.332   1.712   7.424 -0.3797  0.0561 -0.5769
  103MOL    C9537019   4.337   1.852   7.497  0.1380  0.0565 -0.4041
  103MOL    C9637020   4.483   1.914   7.503 -0.5931  0.1793  0.1811
  103MOL    C9737021   4.565   1.888   7.639  0.4418  0.2952 -0.2053
  103MOL    C9837022   4.699   1.961   7.640 -0.1755  0.5975 -0.3169
  103MOL    O9937023   4.783   1.912   7.533  0.0406 -0.0249  0.2017
  103MOL   H10037024   4.404   1.643   7.467  0.2322  1.3081  0.4615
  103MOL   H10137025   4.239   1.660   7.446 -0.0364 -0.7134 -0.9347
  103MOL   H10237026   4.305   1.848   7.601 -0.1761 -1.0437 -0.5449
  103MOL   H10337027   4.265   1.918   7.449 -0.0417 -0.5106 -0.9187
  103MOL   H10437028   4.481   2.022   7.484  0.2266 -0.1672 -2.0600
  103MOL   H10537029   4.551   1.881   7.424  0.8266  2.9032  0.1828
  103MOL   H10637030   4.576   1.781   7.658  0.8118 -0.3470 -3.7550
  103MOL   H10737031   4.503   1.930   7.718 -0.9457 -0.0608 -1.1058
  103MOL   H10837032   4.679   2.068   7.630 -0.0940  0.8597  2.1488
  103MOL   H10937033   4.746   1.942   7.736 -1.9780 -0.5118  0.3550
  103MOL   C11037034   4.891   1.984   7.491  0.0731 -0.0188 -0.6861
  103MOL   O11137035   4.949   2.073   7.551  0.0882 -0.1616  0.3102
  103MOL   C11237036   4.952   1.934   7.361  0.1574 -0.8139 -0.7610
  103MOL   C11337037   5.070   1.845   7.385 -0.1892 -0.0489 -0.0519
  103MOL   C11437038   5.165   1.837   7.264  0.3472 -0.2722  0.3179
  103MOL   C11537039   5.127   1.744   7.153 -0.4268 -0.8261 -0.2178
  103MOL   C11637040   5.209   1.765   7.030  0.2568  0.1127  0.2306
  103MOL   O11737041   5.202   1.650   6.940 -0.8461 -0.8801 -0.2515
  103MOL   H11837042   4.973   2.021   7.299 -0.7228  0.2162  0.3522
  103MOL   H11937043   4.871   1.882   7.309 -0.5676 -0.5499  0.0780
  103MOL   H12037044   5.028   1.748   7.415 -0.3621  0.2091  0.5597
  103MOL   H12137045   5.130   1.886   7.466 -2.0261  2.6252  0.0256
  103MOL   H12237046   5.268   1.817   7.295  0.5423  0.5163  0.2040
  103MOL   H12337047   5.183   1.934   7.216 -1.1151 -1.3762 -2.5431
  103MOL   H12437048   5.022   1.760   7.129 -0.0880 -0.0603 -1.2292
  103MOL   H12537049   5.142   1.639   7.179  0.1343 -1.0092 -1.2295
  103MOL   H12637050   5.188   1.857   6.977  0.8158 -0.2593 -0.6602
  103MOL   H12737051   5.313   1.759   7.064  0.1770 -0.3962  0.3986
  103MOL   C12837052   5.266   1.664   6.824  0.0892 -0.7283  0.1051
  103MOL   O12937053   5.338   1.762   6.790  0.0282  0.2615  0.8727
  103MOL   C13037054   5.239   1.544   6.739  0.2925 -0.2672  0.5345
  103MOL   C13137055   5.337   1.525   6.621  0.0025  0.0995 -0.1011
  103MOL   C13237056   5.317   1.618   6.503 -0.8484  0.1088 -0.7182
  103MOL   C13337057   5.409   1.592   6.378  0.1088  0.0070 -0.6519
  103MOL   C13437058   5.384   1.682   6.251  0.6371 -0.2211 -0.1623
  103MOL   O13537059   5.380   1.822   6.274 -0.2144 -0.0145 -0.4980
  103MOL   H13637060   5.141   1.570   6.700  0.9457  1.4463 -0.0112
  103MOL   H13737061   5.235   1.460   6.808  3.1706  1.3554  2.7973
  103MOL   H13837062   5.331   1.423   6.584  1.2614 -0.6335  1.6402
  103MOL   H13937063   5.442   1.521   6.652  0.3884  1.7666 -1.0834
  103MOL   H14037064   5.307   1.721   6.537  0.5894 -0.3075  1.0542
  103MOL   H14137065   5.220   1.590   6.461 -1.1648 -1.5966  1.0757
  103MOL   H14237066   5.406   1.486   6.349 -1.9621 -0.2566  0.4287
  103MOL   H14337067   5.504   1.622   6.422 -0.2778 -1.6744  1.4016
  103MOL   H14437068   5.434   1.643   6.163  1.9709 -2.0023  1.3429
  103MOL   H14537069   5.285   1.654   6.217  0.2650  1.5457 -0.6232
  103MOL   C14637070   5.503   1.881   6.272 -0.3840  0.5099  0.6540
  103MOL   O14737071   5.612   1.838   6.226  0.4617  0.4828  0.1442
  103MOL   C14837072   5.506   2.023   6.310  0.3493  0.5765  0.3943
  103MOL   C14937073   5.444   2.054   6.444  0.0113  0.3586  0.3280
  103MOL   C15037074   5.515   1.996   6.575 -0.1725  0.0759 -0.0472
  103MOL   C15137075   5.663   2.018   6.582  0.0970 -0.3585  0.6604
  103MOL   C15237076   5.693   2.167   6.611  0.6646  0.2200  0.1878
  103MOL   O15337077   5.828   2.182   6.583  0.5162  0.6536  0.1264
  103MOL   H15437078   5.452   2.074   6.230 -1.4051 -1.7439  0.0723
  103MOL   H15537079   5.609   2.058   6.297  0.1054  1.3660  0.5811
  103MOL   H15637080   5.337   2.033   6.444 -0.3203  1.9327  1.9012
  103MOL   H15737081   5.445   2.161   6.464  0.0956 -0.0001  2.3823
  103MOL   H15837082   5.496   1.889   6.589  1.4464 -0.2324 -0.0594
  103MOL   H15937083   5.466   2.049   6.656 -0.5262  0.4903 -0.5317
  103MOL   H16037084   5.713   1.978   6.493 -0.3221 -0.6866  0.5727
  103MOL   H16137085   5.705   1.953   6.658 -0.5001 -2.5638 -0.8498
  103MOL   H16237086   5.636   2.241   6.555  0.5158 -0.7837 -0.9979
  103MOL   H16337087   5.669   2.189   6.715  0.4262  0.8652 -0.0032
  103MOL   C16437088   5.912   2.233   6.678  0.1500  0.4861  0.4578
  103MOL   O16537089   5.881   2.269   6.789 -0.1468  0.1409 -0.1906
  103MOL   C16637090   6.050   2.242   6.625  0.3387  0.0776 -0.0064
  103MOL   C16737091   6.154   2.197   6.736  0.0094  0.5203  0.0579
  103MOL   C16837092   6.301   2.223   6.699  0.0791 -0.4578 -0.3994
  103MOL   C16937093   6.359   2.201   6.552  0.3059 -0.2215 -0.2453
  103MOL   C17037094   6.513   2.217   6.566  0.2064 -0.2683  0.0822
  103MOL   O17137095   6.588   2.104   6.623 -0.3147 -0.0853  0.0323
  103MOL   H17237096   6.064   2.347   6.602 -1.1166  0.5309  1.0883
  103MOL   H17337097   6.067   2.176   6.540  0.1018 -0.4826  0.3740
  103MOL   H17437098   6.132   2.097   6.773 -1.6316  0.8393 -0.0257
  103MOL   H17537099   6.135   2.248   6.830 -0.1145 -0.6890  0.6987
  103MOL   H17637100   6.347   2.150   6.766 -0.1257  0.5622  0.8701
  103MOL   H17737101   6.325   2.328   6.714  0.7583 -0.6605 -0.0472
  103MOL   H17837102   6.319   2.285   6.495  0.2877 -0.9305 -1.2958
  103MOL   H17937103   6.320   2.109   6.508 -0.4766  0.0237 -0.0701
  103MOL   H18037104   6.554   2.227   6.465  1.7597 -0.3332  0.6883
  103MOL   H18137105   6.531   2.318   6.603 -0.0879 -0.0128 -0.4582
  103MOL   C18237106   6.628   2.116   6.747  0.4877 -0.9726  0.2042
  103MOL   O18337107   6.623   2.223   6.813 -0.2903  0.0177  0.3823
  103MOL   C18437108   6.687   1.987   6.800 -0.7166  0.3228 -0.4540
  103MOL   C18537109   6.602   1.923   6.917 -0.4613  0.0510  0.3860
  103MOL   C18637110   6.467   1.869   6.872 -0.2228  0.0080 -0.5198
  103MOL   C18737111   6.394   1.804   6.991 -0.0409 -0.1551 -0.2236
  103MOL   C18837112   6.270   1.727   6.940 -0.3593  0.1259 -0.7329
  103MOL   O18937113   6.311   1.608   6.869 -0.2661  0.1411  0.6127
  103MOL   H19037114   6.788   2.005   6.837 -1.7824  1.8033  1.8630
  103MOL   H19137115   6.693   1.914   6.719 -0.2742  0.6917 -0.7511
  103MOL   H19237116   6.590   1.996   6.997  0.7901 -1.0865  1.6297
  103MOL   H19337117   6.663   1.843   6.957  0.6199  0.8733  0.4058
  103MOL   H19437118   6.486   1.798   6.791 -0.9208  0.3676 -0.9934
  103MOL   H19537119   6.408   1.949   6.829 -0.9487 -0.2583 -0.0268
  103MOL   H19637120   6.375   1.868   7.077  0.8575 -1.7882  1.1957
  103MOL   H19737121   6.451   1.717   7.025  1.0338 -1.2806 -4.5468
  103MOL   H19837122   6.196   1.708   7.018 -1.5803 -0.2669 -1.9753
  103MOL   H19937123   6.219   1.793   6.871 -0.5695  0.8117  0.0745
  103MOL   C20037124   6.292   1.491   6.935 -1.0848 -0.0485 -0.2653
  103MOL   O20137125   6.273   1.477   7.056  0.4078 -0.2214 -0.2903
  103MOL   C20237126   6.311   1.366   6.846 -0.1334  0.0637 -0.1728
  103MOL   C20337127   6.320   1.225   6.910  0.5730 -0.3523  0.2789
  103MOL   C20437128   6.188   1.152   6.964 -0.0473  0.0937 -0.4694
  103MOL   C20537129   6.118   1.064   6.855 -0.2057 -0.0091  0.7892
  103MOL   C20637130   5.984   1.002   6.905  0.0074  0.9027  0.4464
  103MOL   O20737131   5.932   0.938   6.780 -0.1824 -0.1363 -0.8082
  103MOL   H20837132   6.409   1.383   6.802  1.1910  0.0934  2.6896
  103MOL   H20937133   6.238   1.375   6.766 -0.0649  1.5933 -0.0830
  103MOL   H21037134   6.390   1.232   6.993  0.3373  0.2129  0.4299
  103MOL   H21137135   6.364   1.151   6.843 -2.2912 -1.4339 -0.5169
  103MOL   H21237136   6.128   1.229   7.011  0.6069  0.7995 -0.7704
  103MOL   H21337137   6.211   1.077   7.040  1.1617 -0.0040 -0.9049
  103MOL   H21437138   6.182   0.987   6.812 -2.3369 -0.9944 -0.6880
  103MOL   H21537139   6.089   1.134   6.777 -1.2691 -2.6172 -1.2265
  103MOL   H21637140   6.010   0.929   6.982 -1.0353  0.6348  0.5421
  103MOL   H21737141   5.931   1.089   6.942 -1.5370  0.7819 -1.4061
  103MOL   C21837142   5.979   0.812   6.755  0.0704  0.4850  0.5525
  103MOL   O21937143   6.066   0.756   6.822  0.4653 -0.3591 -0.0103
  103MOL   C22037144   5.926   0.741   6.631  0.2270  0.0745 -0.1911
  103MOL   C22137145   5.792   0.666   6.650  0.6668 -0.1335 -0.7565
  103MOL   C22237146   5.675   0.743   6.709  0.4697 -0.5984  0.0682
  103MOL   C22337147   5.610   0.830   6.603 -0.3775 -0.3191 -0.3800
  103MOL   C22437148   5.549   0.960   6.658  0.5739  0.7877 -0.4946
  103MOL   O22537149   5.651   1.046   6.704 -0.2081 -0.1032  0.7525
  103MOL   H22637150   6.002   0.680   6.583  0.7348  0.0781  0.5903
  103MOL   H22737151   5.905   0.811   6.551 -0.5671  1.6145  1.3258
  103MOL   H22837152   5.817   0.577   6.708  1.4710  1.3843  1.2589
  103MOL   H22937153   5.763   0.631   6.551  1.2196 -0.9154 -0.6524
  103MOL   H23037154   5.714   0.810   6.786  0.0504  1.1051 -1.1768
  103MOL   H23137155   5.609   0.670   6.755  0.6563 -1.2226 -0.6485
  103MOL   H23237156   5.533   0.761   6.568 -0.2324 -0.5183 -0.3145
  103MOL   H23337157   5.677   0.854   6.520 -0.1130 -1.2207 -0.4425
  103MOL   H23437158   5.498   1.009   6.575 -1.0478 -0.3959 -0.2053
  103MOL   H23537159   5.466   0.940   6.725  0.6171 -0.8509 -0.9074
  103MOL   C23637160   5.655   1.175   6.683 -0.0460  0.5751 -0.2746
  103MOL   O23737161   5.569   1.242   6.624  0.5001 -0.0958 -0.0746
  103MOL   C23837162   5.768   1.242   6.771  0.7957  0.1157  0.5653
  103MOL   C23937163   5.746   1.392   6.802 -0.1569  0.7916 -0.7193
  103MOL   C24037164   5.862   1.466   6.874 -0.1427  0.7117  0.1096
  103MOL   C24137165   5.826   1.610   6.893 -0.4350 -0.2956 -0.1468
  103MOL   C24237166   5.804   1.687   6.761 -0.4680  0.0569  0.4525
  103MOL   O24337167   5.919   1.679   6.669  0.1863 -0.4014 -0.1925
  103MOL   H24437168   5.858   1.233   6.709  0.6532 -0.3316  0.4200
  103MOL   H24537169   5.784   1.180   6.859  1.4588  0.2627  0.5493
  103MOL   H24637170   5.662   1.409   6.869  1.1886 -0.1641  1.2717
  103MOL   H24737171   5.716   1.442   6.710 -0.2349  0.8304 -0.6720
  103MOL   H24837172   5.951   1.457   6.812  0.5831  1.7286  0.9796
  103MOL   H24937173   5.888   1.426   6.972  0.4758 -0.1655 -0.4021
  103MOL   H25037174   5.911   1.660   6.939  1.7491 -4.5988  0.7586
  103MOL   H25137175   5.735   1.610   6.954 -0.4919  0.4137 -0.2321
  103MOL   H25237176   5.721   1.644   6.705  1.4368 -2.6853 -0.3631
  103MOL   H25337177   5.786   1.794   6.768 -0.2563 -0.0254  2.4240
  103MOL   C25437178   6.024   1.766   6.672 -0.2048 -0.4176  0.9653
  103MOL   O25537179   6.033   1.866   6.735 -0.0595 -0.0983  0.0127
  103MOL   C25637180   6.143   1.715   6.591 -0.4518 -0.0129  0.3538
  103MOL   C25737181   6.237   1.825   6.542  0.1417  0.4555 -0.3346
  103MOL   C25837182   6.381   1.773   6.499 -0.0024 -0.2346 -0.3570
  103MOL   C25937183   6.386   1.703   6.358 -0.3448  0.2390 -0.4840
  103MOL   C26037184   6.338   1.561   6.358 -0.1873 -0.0674  0.2155
  103MOL   O26137185   6.444   1.485   6.421 -0.4366 -0.2156 -0.0474
  103MOL   H26237186   6.105   1.670   6.500  1.3639  2.4176 -1.6633
  103MOL   H26337187   6.205   1.652   6.655  0.3944  0.3328 -0.1213
  103MOL   H26437188   6.250   1.907   6.613  2.7991 -0.9111  0.8411
  103MOL   H26537189   6.193   1.875   6.456 -2.1040  0.7681  0.9385
  103MOL   H26637190   6.416   1.709   6.580  0.4761 -0.2009 -0.5335
  103MOL   H26737191   6.453   1.856   6.506  1.5863 -1.4923 -1.4522
  103MOL   H26837192   6.491   1.694   6.329  0.8715 -0.5793  3.8700
  103MOL   H26937193   6.331   1.765   6.287 -0.8812 -0.2353 -0.4858
  103MOL   H27037194   6.240   1.553   6.404  0.6702 -0.7273  1.9754
  103MOL   H27137195   6.336   1.524   6.255 -0.5760 -0.5134  0.3863
  103MOL   C27237196   6.450   1.358   6.399  0.5332 -0.2260 -0.7688
  103MOL   O27337197   6.368   1.300   6.337  0.3735  0.4073 -0.3138
  103MOL   C27437198   6.558   1.289   6.476 -0.4447  0.5482  0.0692
  103MOL   C27537199   6.564   1.135   6.470 -0.5431 -0.3938  0.4119
  103MOL   C27637200   6.606   1.064   6.339  0.0821 -0.8687  0.4107
  103MOL   C27737201   6.634   0.917   6.358  0.5574  0.4381 -0.8937
  103MOL   C27837202   6.747   0.855   6.272  0.2306  0.6033 -1.3040
  103MOL   O27937203   6.744   0.900   6.136  0.6708  0.1299 -0.2644
  103MOL   H28037204   6.562   1.327   6.579  0.6174  0.6078  0.0131
  103MOL   H28137205   6.651   1.327   6.435  0.1831 -1.0052  0.0255
  103MOL   H28237206   6.475   1.084   6.508 -1.1112  0.9436  0.9435
  103MOL   H28337207   6.649   1.117   6.536  0.5603  0.4909 -0.7423
  103MOL   H28437208   6.701   1.112   6.313 -0.2325 -1.8348 -2.7766
  103MOL   H28537209   6.537   1.083   6.258  1.8166  1.6057 -0.5455
  103MOL   H28637210   6.551   0.846   6.351  0.0844  0.8978 -0.0282
  103MOL   H28737211   6.668   0.906   6.461 -0.2713 -0.0867 -0.6690
  103MOL   H28837212   6.840   0.895   6.311  0.0358  0.8119 -1.0522
  103MOL   H28937213   6.739   0.746   6.276  0.3208  0.6763  2.6987
  103MOL   C29037214   6.683   0.830   6.042 -0.1278  0.2892 -0.2541
  103MOL   O29137215   6.652   0.711   6.048  0.4221 -0.1006 -0.3981
  103MOL   C29237216   6.668   0.913   5.915 -0.0856  0.5677 -0.8021
  103MOL   C29337217   6.526   0.946   5.877  0.3324  0.1757  0.0367
  103MOL   C29437218   6.466   1.038   5.984  0.8574 -0.6027 -0.2611
  103MOL   C29537219   6.330   1.088   5.937  0.1960 -0.4675 -0.5166
  103MOL   C29637220   6.264   1.164   6.049  1.7082 -1.2921 -0.2848
  103MOL   O29737221   6.131   1.199   6.003 -0.1339  0.2531  0.7702
  103MOL   H29837222   6.716   0.860   5.833  2.3062  1.0315  0.2539
  103MOL   H29937223   6.733   0.999   5.927  0.7158 -0.2931  1.3473
  103MOL   H30037224   6.466   0.855   5.874  0.6404 -0.0719  1.4756
  103MOL   H30137225   6.516   0.991   5.778  0.3589  1.9357  0.8122
  103MOL   H30237226   6.533   1.122   6.003  1.7402 -1.1697 -0.7912
  103MOL   H30337227   6.462   0.982   6.077 -1.5336  0.6488  0.4169
  103MOL   H30437228   6.259   1.007   5.922  0.0215 -0.5571  0.7382
  103MOL   H30537229   6.333   1.150   5.847  2.2444  0.3029  0.0440
  103MOL   H30637230   6.254   1.104   6.140 -0.2279  1.4170  1.3525
  103MOL   H30737231   6.330   1.248   6.073  2.3448 -0.6059 -4.2205
  103MOL   C30837232   6.088   1.320   6.000 -0.3395  0.4273 -0.3750
  103MOL   O30937233   6.149   1.421   6.031 -0.0453  0.4812 -0.5620
  103MOL   C31037234   5.949   1.330   5.956  0.4302  0.0784  0.4821
  103MOL   C31137235   5.935   1.345   5.799 -0.0446  0.0369 -0.2717
  103MOL   C31237236   6.031   1.259   5.705 -0.2860  0.2079 -0.3168
  103MOL   C31337237   5.966   1.113   5.697  0.0161 -0.0842  0.7974
  103MOL   C31437238   6.024   1.042   5.573 -0.4240  0.0320 -0.0162
  103MOL   O31537239   6.162   1.033   5.582  0.0320 -0.4182  0.3961
  103MOL   H31637240   5.906   1.413   6.012  0.7489 -0.7788  2.0336
  103MOL   H31737241   5.893   1.241   5.982  2.8152 -1.4729  0.4772
  103MOL   H31837242   5.942   1.452   5.778 -2.4476  0.2633 -0.0016
  103MOL   H31937243   5.831   1.324   5.776 -0.1477  0.4710 -0.1996
  103MOL   H32037244   6.130   1.263   5.751 -0.4802  1.1311  0.0303
  103MOL   H32137245   6.042   1.316   5.613  0.0529 -1.4849 -1.3287
  103MOL   H32237246   5.858   1.126   5.688  0.0171 -0.7559 -0.4072
  103MOL   H32337247   5.992   1.070   5.793  1.9054 -0.5662  0.1014
  103MOL   H32437248   5.995   0.938   5.557  1.9968 -0.6526 -0.1784
  103MOL   H32537249   5.983   1.092   5.485 -1.0726 -1.7749 -0.7626
  103MOL   C32637250   6.234   0.988   5.475 -0.0486 -0.3740 -0.2511
  103MOL   O32737251   6.199   0.975   5.356 -0.2044 -0.2501 -0.1797
  103MOL   C32837252   6.373   0.968   5.529  1.0560 -0.7197  0.3430
  103MOL   C32937253   6.473   0.907   5.425  0.4793 -0.2789  0.1396
  103MOL   C33037254   6.610   0.896   5.495 -0.0605 -0.3560 -0.1207
  103MOL   C33137255   6.743   0.865   5.413  0.2423 -0.4533 -0.9620
  103MOL   C33237256   6.855   0.853   5.513 -0.5975  0.7845  0.0530
  103MOL   O33337257   6.844   0.736   5.599 -0.1587  0.4914 -0.4867
  103MOL   H33437258   6.375   0.934   5.632 -1.4141  1.4805  1.1532
  103MOL   H33537259   6.424   1.064   5.545 -0.8602  0.6461 -1.4384
  103MOL   H33637260   6.465   0.968   5.336 -0.4714 -1.0546 -0.3160
  103MOL   H33737261   6.443   0.807   5.392  1.4199 -0.2507 -0.8287
  103MOL   H33837262   6.583   0.830   5.577 -2.3596 -0.6623 -1.0856
  103MOL   H33937263   6.639   0.993   5.535  0.8590 -0.3471 -0.7821
  103MOL   H34037264   6.760   0.948   5.344  0.8346  0.5724  0.3891
  103MOL   H34137265   6.748   0.771   5.359  0.3657 -0.4838 -0.8993
  103MOL   H34237266   6.946   0.851   5.454  0.1572 -1.1428  1.2403
  103MOL   H34337267   6.872   0.949   5.562  2.5588  1.4463 -2.1382
  103MOL   C34437268   6.934   0.704   5.692  0.1679 -0.2780 -0.5906
  103MOL   O34537269   7.037   0.770   5.716 -0.0942 -0.3079  0.0270
  103MOL   C34637270   6.896   0.587   5.791  0.8235  0.0155 -0.1797
  103MOL   C34737271   6.998   0.535   5.895 -0.9310 -0.0126 -0.0757
  103MOL   C34837272   6.964   0.591   6.034 -0.0323  0.9998 -0.2923
  103MOL   C34937273   7.049   0.527   6.146 -0.5379 -0.1619 -0.4412
  103MOL   C35037274   7.014   0.559   6.289  0.4143 -0.6097 -0.2377
  103MOL   O35137275   7.014   0.696   6.301  0.0002  0.4517  0.1613
  103MOL   H35237276   6.866   0.504   5.726  0.2495 -0.0259  0.1328
  103MOL   H35337277   6.804   0.606   5.845 -0.0572  0.3953 -1.7895
  103MOL   H35437278   7.101   0.564   5.874 -0.3176 -3.8030 -2.7659
  103MOL   H35537279   6.999   0.427   5.905  1.8188 -0.1768 -1.8726
  103MOL   H35637280   6.862   0.593   6.071  0.1264  0.9623  0.1551
  103MOL   H35737281   6.982   0.698   6.043 -0.2228  0.9322  0.9264
  103MOL   H35837282   7.148   0.574   6.146 -0.2359 -0.7803 -0.3675
  103MOL   H35937283   7.057   0.420   6.126 -2.3670 -0.6228  1.1823
  103MOL   H36037284   6.923   0.510   6.323  0.2598  0.4729  0.9584
  103MOL   H36137285   7.093   0.520   6.355  1.6158  1.0781 -0.6424
  103MOL   H36237286   7.048   0.730   6.220 -0.1482  0.8861  0.2750
  104MOL     C137287   6.887   3.022   5.482 -0.4801 -0.6701  0.6389
  104MOL     O237288   6.822   2.944   5.414  0.8130  0.2389 -0.3875
  104MOL     C337289   6.928   3.161   5.431  0.3636 -0.3978 -0.9334
  104MOL     C437290   7.028   3.149   5.308  0.5810  0.6582  0.0746
  104MOL     C537291   7.163   3.088   5.359  0.2388  0.1681 -0.2599
  104MOL     C637292   7.280   3.086   5.254  0.4012  0.0543 -0.2490
  104MOL     C737293   7.413   3.056   5.315  0.3828 -0.0277 -0.3246
  104MOL     O837294   7.453   2.921   5.343  0.1389 -0.0059  0.4881
  104MOL     H937295   6.969   3.215   5.516 -1.0612 -2.0140  0.8148
  104MOL    H1037296   6.833   3.209   5.406 -1.0403 -1.5504  2.0120
  104MOL    H1137297   7.048   3.251   5.275  1.5500  0.7368  0.8856
  104MOL    H1237298   6.987   3.095   5.222 -0.0487 -1.6362  1.7727
  104MOL    H1337299   7.145   2.993   5.409  0.4416  1.3014  1.9906
  104MOL    H1437300   7.199   3.156   5.436 -1.0995  1.5171 -0.7986
  104MOL    H1537301   7.274   3.188   5.215 -3.1339 -0.6612 -1.8064
  104MOL    H1637302   7.253   3.034   5.162 -1.2115  1.8920 -0.8494
  104MOL    H1737303   7.475   3.083   5.230  3.3096 -3.2824  0.6407
  104MOL    H1837304   7.434   3.125   5.397 -0.4140 -1.4944  1.1557
  104MOL    H1937305   6.928   2.994   5.579  1.8478 -1.4918 -0.5393
  104MOL    C2037306   7.583   2.901   5.391  0.0127 -0.3741  0.9638
  104MOL    O2137307   7.654   2.993   5.435  0.3594  0.1639  0.1394
  104MOL    C2237308   7.617   2.744   5.397  0.2378 -0.3343  0.1992
  104MOL    C2337309   7.583   2.685   5.536  0.2191  0.0109 -0.1044
  104MOL    C2437310   7.672   2.726   5.659 -0.0672 -0.4386  0.1266
  104MOL    C2537311   7.816   2.664   5.639  0.0651  0.3265 -0.0481
  104MOL    C2637312   0.064   2.705   5.754  0.5783  0.2578 -0.1739
  104MOL    O2737313   0.181   2.637   5.730 -0.4661 -0.0966 -0.1130
  104MOL    H2837314   7.724   2.742   5.377  0.3813 -0.0979  0.9274
  104MOL    H2937315   7.558   2.687   5.325  0.8002 -1.7085  0.8134
  104MOL    H3037316   7.579   2.576   5.540  1.3785 -0.1391 -2.2984
  104MOL    H3137317   7.482   2.709   5.570 -0.2958  0.5933 -2.0259
  104MOL    H3237318   7.623   2.679   5.744  1.0182  0.2527  1.1563
  104MOL    H3337319   7.677   2.832   5.683 -0.1024 -0.0676 -1.4055
  104MOL    H3437320   0.024   2.697   5.550  1.0454 -0.8393  0.0800
  104MOL    H3537321   7.813   2.555   5.636 -0.5634  0.3368  0.1563
  104MOL    H3637322   0.084   2.811   5.764  5.2509 -0.5082 -0.5363
  104MOL    H3737323   0.023   2.661   5.846  0.8506 -0.0455 -0.1970
  104MOL    C3837324   0.301   2.695   5.748 -0.3933  0.3025  0.2849
  104MOL    O3937325   0.320   2.804   5.790 -0.0139 -0.2826 -0.0469
  104MOL    C4037326   0.419   2.603   5.708 -0.1745  0.1192 -0.5148
  104MOL    C4137327   0.558   2.660   5.736  0.0193  0.2149  0.3486
  104MOL    C4237328   0.661   2.562   5.680  0.2423  1.0062  0.0353
  104MOL    C4337329   0.796   2.620   5.699  0.2375 -1.2676  0.2589
  104MOL    C4437330   0.909   2.527   5.664 -0.9297 -0.1558 -0.6169
  104MOL    O4537331   1.023   2.603   5.697  0.2939  0.1871  0.2165
  104MOL    H4637332   0.409   2.587   5.600 -1.9044 -1.4882 -0.1209
  104MOL    H4737333   0.403   2.507   5.756 -2.6223  1.6333  1.8392
  104MOL    H4837334   0.578   2.698   5.836 -1.0505  3.1870 -0.5132
  104MOL    H4937335   0.566   2.749   5.674 -1.0159 -0.2071 -0.4135
  104MOL    H5037336   0.641   2.547   5.574 -1.5549  1.6776  0.2774
  104MOL    H5137337   0.663   2.460   5.719  2.3207  0.9117 -0.2382
  104MOL    H5237338   0.794   2.652   5.803 -1.8275  0.3891 -0.2528
  104MOL    H5337339   0.806   2.707   5.633  2.9233 -1.6409  0.1281
  104MOL    H5437340   0.909   2.431   5.716  0.1106  0.1541 -0.0087
  104MOL    H5537341   0.902   2.509   5.556 -0.6662 -0.7344 -0.5416
  104MOL    C5637342   1.084   2.595   5.821  0.4339  0.0545 -0.2269
  104MOL    O5737343   1.052   2.526   5.917 -0.0065  0.1185 -0.1261
  104MOL    C5837344   1.193   2.697   5.836  0.8162  0.0427  0.9741
  104MOL    C5937345   1.136   2.845   5.858  1.0049 -0.5864 -0.7562
  104MOL    C6037346   1.068   2.870   5.996 -0.1167  0.6304  0.4015
  104MOL    C6137347   1.033   3.012   6.027  0.2011 -0.6153 -0.1358
  104MOL    C6237348   0.964   3.025   6.161 -0.1038 -0.3238  0.0324
  104MOL    O6337349   0.945   3.162   6.194  0.0667  0.2667  0.6157
  104MOL    H6437350   1.262   2.685   5.753  2.6567 -0.9528  2.6072
  104MOL    H6537351   1.256   2.666   5.919  2.0981  1.0390  0.3959
  104MOL    H6637352   1.058   2.871   5.786 -0.4719 -1.0127  0.6474
  104MOL    H6737353   1.217   2.915   5.838  0.6390  0.7523  2.2055
  104MOL    H6837354   1.139   2.837   6.072  0.3283  1.7899  0.5048
  104MOL    H6937355   0.982   2.806   6.018  1.0535 -1.3820 -0.7274
  104MOL    H7037356   0.983   3.063   5.945 -0.0573 -0.3808  0.1671
  104MOL    H7137357   1.130   3.062   6.030  0.7938 -1.7032 -0.5747
  104MOL    H7237358   0.868   2.972   6.167 -0.0543 -0.6398 -1.5598
  104MOL    H7337359   1.026   2.982   6.240  0.7187 -0.3071 -0.5977
  104MOL    C7437360   0.902   3.191   6.311 -0.3953  0.2974  0.2261
  104MOL    O7537361   0.862   3.113   6.393  0.3321  0.5021 -0.4743
  104MOL    C7637362   0.903   3.339   6.342 -0.0570  0.4384 -0.5133
  104MOL    C7737363   1.040   3.410   6.334 -0.4169  0.5146 -0.5451
  104MOL    C7837364   1.043   3.547   6.409 -0.5585 -0.0416  0.0742
  104MOL    C7937365   1.181   3.613   6.394  0.2220  0.2653 -0.0129
  104MOL    C8037366   1.185   3.758   6.454  0.1558  0.3219 -0.3255
  104MOL    O8137367   1.301   3.837   6.411 -0.0689  0.3205 -0.5177
  104MOL    H8237368   0.843   3.351   6.431  1.1723  1.3063  0.2166
  104MOL    H8337369   0.840   3.386   6.267 -0.7682  1.1243  0.5028
  104MOL    H8437370   1.059   3.431   6.228 -0.4186  1.0815 -0.4343
  104MOL    H8537371   1.126   3.353   6.369 -0.0410  1.1750 -0.3869
  104MOL    H8637372   1.028   3.540   6.517 -3.7104  0.3056 -0.3103
  104MOL    H8737373   0.964   3.612   6.373 -0.4222 -0.1145 -0.3637
  104MOL    H8837374   1.206   3.623   6.288  0.9611 -1.2565 -0.0001
  104MOL    H8937375   1.253   3.542   6.434 -0.5501  0.6356  2.0813
  104MOL    H9037376   1.097   3.818   6.430 -0.9383 -1.8415 -1.8881
  104MOL    H9137377   1.167   3.753   6.561 -1.0629  1.0352 -0.4829
  104MOL    C9237378   1.410   3.840   6.488  1.0130  0.0221 -0.4612
  104MOL    O9337379   1.412   3.793   6.602  0.6901 -0.1442 -0.0716
  104MOL    C9437380   1.536   3.901   6.429 -0.5548 -0.2620  0.2624
  104MOL    C9537381   1.588   4.032   6.491  0.0402 -0.4765 -0.2776
  104MOL    C9637382   1.634   4.023   6.635  0.0522  0.5084  0.2700
  104MOL    C9737383   1.666   4.153   6.703 -0.0410  0.0371  0.2221
  104MOL    C9837384   1.725   4.147   6.848 -0.7553 -0.4878 -0.0551
  104MOL    O9937385   1.632   4.151   6.950  0.1013 -0.0380 -0.4340
  104MOL   H10037386   1.514   3.938   6.329  1.6909 -0.1559 -0.2128
  104MOL   H10137387   1.620   3.833   6.413 -0.6691 -0.0722 -1.2356
  104MOL   H10237388   1.512   4.109   6.481  1.5267  1.3252  1.6484
  104MOL   H10337389   1.670   4.071   6.430 -0.7540 -0.0500 -1.0875
  104MOL   H10437390   1.719   3.956   6.637 -0.6194 -0.3160  1.4521
  104MOL   H10537391   1.559   3.972   6.696  0.5495 -2.3248 -1.4173
  104MOL   H10637392   1.575   4.212   6.714 -0.3538 -0.1463 -1.2787
  104MOL   H10737393   1.732   4.214   6.641  1.8654 -0.9429  1.2601
  104MOL   H10837394   1.794   4.063   6.847  0.6597  0.6739 -1.4126
  104MOL   H10937395   1.790   4.230   6.874  1.8648 -2.2919 -0.6808
  104MOL   C11037396   1.667   4.110   7.072  0.3151  0.0911 -0.2687
  104MOL   O11137397   1.777   4.085   7.107 -0.4999 -0.2228 -0.3163
  104MOL   C11237398   1.552   4.110   7.173  1.2274 -0.6431 -0.7761
  104MOL   C11337399   1.470   4.243   7.161 -0.5475  0.7845 -0.2929
  104MOL   C11437400   1.365   4.267   7.274  0.3381  0.1908  0.4538
  104MOL   C11537401   1.244   4.171   7.258 -0.5069 -0.2122 -0.4693
  104MOL   C11637402   1.146   4.179   7.378 -0.5652 -0.0921  0.5512
  104MOL   O11737403   1.205   4.102   7.488 -0.2433  0.3539 -0.1986
  104MOL   H11837404   1.576   4.082   7.276 -1.0882  0.7397  0.1824
  104MOL   H11937405   1.488   4.025   7.145 -1.8218  0.8994  1.2221
  104MOL   H12037406   1.424   4.244   7.062 -0.0819 -0.6951 -0.5285
  104MOL   H12137407   1.540   4.326   7.153  0.6799 -0.2687 -0.7925
  104MOL   H12237408   1.334   4.371   7.268 -2.1587 -0.5322 -0.0907
  104MOL   H12337409   1.416   4.262   7.370 -2.3108  1.0504  1.9860
  104MOL   H12437410   1.278   4.068   7.247  0.1211 -0.1797  1.0428
  104MOL   H12537411   1.188   4.198   7.168 -2.1300  2.0147  1.1554
  104MOL   H12637412   1.117   4.283   7.388  0.2152  0.2621 -0.7646
  104MOL   H12737413   1.052   4.134   7.344 -0.4620 -0.2153  0.4281
  104MOL   C12837414   1.143   3.995   7.546 -0.4196 -0.3165 -0.2864
  104MOL   O12937415   1.026   3.970   7.534 -0.3046 -0.2080  0.3272
  104MOL   C13037416   1.233   3.921   7.651  0.6020 -0.3647  0.0890
  104MOL   C13137417   1.245   3.999   7.785 -0.0396  0.0398 -0.0771
  104MOL   C13237418   1.108   4.015   0.021 -0.2698 -0.0812 -0.8438
  104MOL   C13337419   1.128   4.081   0.157  0.2785  0.5564  0.2329
  104MOL   C13437420   0.992   4.115   0.225 -0.9106 -0.2362 -0.3145
  104MOL   O13537421   0.933   3.991   0.252  0.5185  0.0647  0.0996
  104MOL   H13637422   1.329   3.910   7.601 -1.2420 -0.7051 -3.4700
  104MOL   H13737423   1.199   3.821   7.677  0.8692 -0.8305 -1.3496
  104MOL   H13837424   1.273   4.103   7.769 -0.9726  0.4717  0.9740
  104MOL   H13937425   1.328   3.961   7.844 -0.8567 -2.7353 -0.6465
  104MOL   H14037426   1.054   3.921   0.026  2.3260 -1.5898 -0.1482
  104MOL   H14137427   1.047   4.084   7.807 -0.9987  1.4058  1.6230
  104MOL   H14237428   1.187   4.170   0.139 -1.0127  1.6598  1.3286
  104MOL   H14337429   1.196   4.028   0.223  0.5000  0.0119 -0.4234
  104MOL   H14437430   1.008   4.151   0.327 -1.7192  0.1937 -0.3285
  104MOL   H14537431   0.931   4.188   0.172  0.6678  0.3879 -1.3089
  104MOL   C14637432   0.807   3.976   0.241  0.2218  0.9497 -0.0857
  104MOL   O14737433   0.723   4.056   0.205  0.4658  0.1716 -0.0887
  104MOL   C14837434   0.780   3.837   0.294 -0.0288 -0.7537  0.2975
  104MOL   C14937435   0.680   3.826   0.402 -0.6362 -0.4993 -0.2216
  104MOL   C15037436   0.539   3.886   0.365  0.2433  0.0058 -0.8725
  104MOL   C15137437   0.503   4.013   0.454  0.7402  0.4128  0.2664
  104MOL   C15237438   0.360   4.064   0.435  0.0046 -0.3112  0.2156
  104MOL   O15337439   0.336   4.165   0.528  0.3883  1.0783  0.1317
  104MOL   H15437440   0.873   3.788   0.323  0.5814  0.7132  0.8391
  104MOL   H15537441   0.747   3.785   0.203  0.6942 -0.6825 -0.0120
  104MOL   H15637442   0.725   3.876   0.488  1.0695 -0.5661 -1.0619
  104MOL   H15737443   0.669   3.720   0.425 -1.1819 -0.3972 -0.0119
  104MOL   H15837444   0.463   3.812   0.390  0.8881 -1.6807 -3.6320
  104MOL   H15937445   0.528   3.889   0.257  0.1226 -1.2103 -0.9048
  104MOL   H16037446   0.570   4.098   0.441  0.9970  0.3978  1.4183
  104MOL   H16137447   0.519   3.985   0.558  0.7917 -0.3497  0.0557
  104MOL   H16237448   0.345   4.115   0.340 -0.0139 -2.1428 -0.7731
  104MOL   H16337449   0.284   3.986   0.447 -1.9253  1.4021 -0.5622
  104MOL   C16437450   0.279   4.128   0.645 -0.3000  0.0399 -0.4080
  104MOL   O16537451   0.221   4.025   0.667  0.7983  0.5296 -0.3170
  104MOL   C16637452   0.282   4.244   0.744 -0.0930 -0.2068 -0.1445
  104MOL   C16737453   0.376   4.205   0.854  0.1988  0.5194  0.1608
  104MOL   C16837454   0.523   4.173   0.812  0.0716 -0.4736 -0.0539
  104MOL   C16937455   0.624   4.173   0.926 -0.2127  0.0596  0.6156
  104MOL   C17037456   0.599   4.054   1.016  0.4495  0.2751 -0.4258
  104MOL   O17137457   0.680   4.069   1.130 -0.3127  0.0461 -0.3310
  104MOL   H17237458   0.182   4.238   0.787  0.6050 -0.8572  1.4241
  104MOL   H17337459   0.313   4.339   0.701 -0.2563 -0.4205 -0.7432
  104MOL   H17437460   0.347   4.112   0.902 -0.0194  0.8512  0.6721
  104MOL   H17537461   0.370   4.274   0.938  1.5113  0.0550  0.6547
  104MOL   H17637462   0.544   4.256   0.744 -3.3040  0.8485  0.3608
  104MOL   H17737463   0.538   4.087   0.747  1.8647 -0.8193  0.8009
  104MOL   H17837464   0.606   4.265   0.982 -0.7110 -0.0448  0.6262
  104MOL   H17937465   0.730   4.175   0.902 -0.0044 -1.0940  1.3793
  104MOL   H18037466   0.495   4.056   1.046  0.3353 -0.9873 -0.7310
  104MOL   H18137467   0.604   3.960   0.961 -0.6154 -0.0279 -0.0078
  104MOL   C18237468   0.786   3.990   1.159  0.3225 -0.3257 -0.2509
  104MOL   O18337469   0.815   3.883   1.105 -0.8114  0.2351  0.0210
  104MOL   C18437470   0.888   4.059   1.254  0.1371 -0.8019 -0.2032
  104MOL   C18537471   1.004   4.121   1.172  0.0708 -0.4737 -0.5033
  104MOL   C18637472   0.970   4.252   1.099  0.1330 -0.4188 -0.0314
  104MOL   C18737473   1.069   4.323   1.008  0.1409  0.2401  0.5154
  104MOL   C18837474   1.001   4.447   0.941 -0.2748  0.4407 -0.5335
  104MOL   O18937475   1.090   4.500   0.847  0.4485  0.2585  0.1430
  104MOL   H19037476   0.911   3.980   1.326  0.2707 -1.0514 -0.5174
  104MOL   H19137477   0.821   4.117   1.317  1.9416  1.1752 -0.0811
  104MOL   H19237478   1.040   4.052   1.097 -1.7362 -1.0402 -0.8818
  104MOL   H19337479   1.090   4.138   1.236 -0.7387  0.5155  0.3458
  104MOL   H19437480   0.948   4.321   1.181 -0.3780  0.8498 -1.2115
  104MOL   H19537481   0.876   4.245   1.045 -1.5079 -1.0039  2.7945
  104MOL   H19637482   1.096   4.256   0.926 -3.1716 -2.3745  1.4883
  104MOL   H19737483   1.159   4.364   1.054  2.6393 -2.4621 -1.7173
  104MOL   H19837484   0.915   4.424   0.877 -0.0976  0.7010 -0.8660
  104MOL   H19937485   0.973   4.527   1.009  0.4293  0.2265  0.0050
  104MOL   C20037486   1.050   4.598   0.766  0.5072  0.8191 -0.0643
  104MOL   O20137487   0.938   4.647   0.765  0.1321 -0.2212  0.1907
  104MOL   C20237488   1.159   4.655   0.669  0.5829 -0.0163  0.0079
  104MOL   C20337489   1.139   4.615   0.519 -0.6221  0.0282  0.8655
  104MOL   C20437490   1.015   4.686   0.456 -0.2811 -0.5242 -0.2899
  104MOL   C20537491   1.035   4.833   0.418 -0.2094 -0.4420  0.2902
  104MOL   C20637492   0.913   4.920   0.383 -0.0348  0.0869  0.3831
  104MOL   O20737493   0.962   5.052   0.354 -0.2657  0.0443  0.0488
  104MOL   H20837494   1.251   4.617   0.714  0.6114 -1.1344 -0.9890
  104MOL   H20937495   1.157   4.764   0.668 -1.3988 -0.0399 -2.0043
  104MOL   H21037496   1.133   4.506   0.521 -0.9411  0.0400  0.5289
  104MOL   H21137497   1.220   4.648   0.454 -0.1719 -1.1311  0.8248
  104MOL   H21237498   0.924   4.677   0.514  0.6636 -1.2909  1.1112
  104MOL   H21337499   0.993   4.640   0.360 -1.5365 -1.8699  0.6260
  104MOL   H21437500   1.110   4.835   0.339  0.9757  0.1167  1.4145
  104MOL   H21537501   1.097   4.876   0.497 -0.5435  0.6061 -0.0006
  104MOL   H21637502   0.860   4.892   0.292 -2.6750  2.2049  1.1937
  104MOL   H21737503   0.830   4.916   0.454  0.8489 -1.1901  1.3642
  104MOL   C21837504   0.905   5.164   0.398 -0.2998 -0.5501  0.1207
  104MOL   O21937505   0.824   5.170   0.492 -0.7057 -0.4316 -0.4178
  104MOL   C22037506   0.948   5.292   0.333 -1.0051 -0.3236 -0.1904
  104MOL   C22137507   0.913   5.317   0.185 -0.1649  0.3659 -0.0804
  104MOL   C22237508   0.986   5.438   0.119 -0.8295  0.2245 -0.6019
  104MOL   C22337509   0.974   5.453   7.809  0.5993  0.2861 -0.2290
  104MOL   C22437510   0.994   5.598   7.770 -0.1281 -0.2834  0.4691
  104MOL   O22537511   1.134   5.639   7.779  0.8118  0.6350  0.6654
  104MOL   H22637512   1.056   5.279   0.343 -0.8565  1.0787  0.1762
  104MOL   H22737513   0.917   5.370   0.403 -0.2795 -1.0709  0.9767
  104MOL   H22837514   0.804   5.322   0.185 -0.0956  2.1794  1.2089
  104MOL   H22937515   0.941   5.231   0.125 -2.5497  0.9493 -2.1219
  104MOL   H23037516   1.091   5.413   0.138 -1.1983 -1.0409 -0.1701
  104MOL   H23137517   0.954   5.526   0.175  0.9794  1.4775 -1.4919
  104MOL   H23237518   0.877   5.423   7.771 -0.1550  2.5910 -0.1692
  104MOL   H23337519   1.050   5.391   7.761  0.6032 -0.2052  0.4091
  104MOL   H23437520   0.964   5.598   7.665 -0.4375  0.4115  0.5527
  104MOL   H23537521   0.915   5.643   7.830 -1.6349 -1.4929 -0.5534
  104MOL   C23637522   1.167   5.732   0.027 -0.1112  0.3400  0.3462
  104MOL   O23737523   1.089   5.788   0.104 -0.2435 -0.1829  0.1213
  104MOL   C23837524   1.316   5.758   0.031 -0.3238  0.2856 -0.3654
  104MOL   C23937525   1.374   5.722   0.166 -0.1804 -0.3194  0.3047
  104MOL   C24037526   1.413   5.574   0.175 -0.0951  0.1502 -0.0332
  104MOL   C24137527   1.503   5.546   0.303 -0.3915  0.3833 -0.3440
  104MOL   C24237528   1.547   5.398   0.303  0.3389 -0.0263  0.7443
  104MOL   O24337529   1.615   5.371   0.432 -0.4971  0.0546 -0.0411
  104MOL   H24437530   1.340   5.865   0.026  3.1103 -0.3750  0.5804
  104MOL   H24537531   1.372   5.726   7.787  1.6939  1.8190  0.3108
  104MOL   H24637532   1.303   5.743   0.246 -2.0102  2.4173 -1.9750
  104MOL   H24737533   1.456   5.792   0.179  0.3842 -0.4067 -2.4614
  104MOL   H24837534   1.482   5.559   0.093 -0.3916 -0.4269 -0.1774
  104MOL   H24937535   1.328   5.506   0.166 -2.4327  2.6281  2.1672
  104MOL   H25037536   1.462   5.575   0.399  2.2714  2.5014  0.2294
  104MOL   H25137537   1.592   5.607   0.288 -0.9576  1.3696  0.2725
  104MOL   H25237538   1.466   5.327   0.288  2.2131 -2.1166  0.2687
  104MOL   H25337539   1.616   5.379   0.221  0.8509  1.2785  0.8544
  104MOL   C25437540   1.741   5.409   0.445 -0.2314 -0.4948  0.6399
  104MOL   O25537541   1.813   5.467   0.363  0.1293  0.2238  0.6051
  104MOL   C25637542   1.797   5.364   0.579 -0.6306 -0.4178  0.1083
  104MOL   C25737543   1.855   5.225   0.572  0.0091  0.0811  0.2051
  104MOL   C25837544   2.004   5.214   0.533  0.6851  0.2980  0.8212
  104MOL   C25937545   2.063   5.072   0.538 -0.0095 -0.3793  0.0362
  104MOL   C26037546   2.017   4.971   0.436  0.3196 -0.2444 -0.4043
  104MOL   O26137547   2.087   4.847   0.468 -0.1371 -0.1854  0.2445
  104MOL   H26237548   1.715   5.357   0.651  0.1329 -0.1460  1.0123
  104MOL   H26337549   1.874   5.434   0.611 -0.3130 -0.6162 -0.2149
  104MOL   H26437550   1.801   5.159   0.504 -1.1863 -0.2667  1.4789
  104MOL   H26537551   1.843   5.180   0.671 -0.4879  0.3650  0.2761
  104MOL   H26637552   2.057   5.263   0.615 -1.2835  1.2014  1.5869
  104MOL   H26737553   2.023   5.271   0.442 -0.1241 -0.4866  0.1534
  104MOL   H26837554   2.039   5.041   0.640  0.3393 -2.7731 -0.5725
  104MOL   H26937555   2.171   5.074   0.524 -0.0357 -3.9120 -1.0488
  104MOL   H27037556   1.908   4.964   0.442  0.3905  0.4435  2.4407
  104MOL   H27137557   2.039   5.009   0.337  0.2529 -0.6438 -0.5727
  104MOL   C27237558   2.024   4.723   0.448  0.4961  0.4317 -0.6027
  104MOL   O27337559   1.909   4.706   0.416  0.2471 -0.0960 -0.6423
  104MOL   C27437560   2.117   4.605   0.470 -0.5012  0.5485 -0.2071
  104MOL   C27537561   2.118   4.557   0.617  0.8583 -0.4130  0.2557
  104MOL   C27637562   2.186   4.646   0.722  0.7916  0.2492 -1.1401
  104MOL   C27737563   2.186   4.588   0.858 -0.2063  0.0707 -0.8717
  104MOL   C27837564   2.254   4.678   0.965  0.7605 -0.9513 -0.2281
  104MOL   O27937565   2.248   4.613   1.094  0.0662 -0.4075  0.0451
  104MOL   H28037566   2.217   4.638   0.442 -0.4532  1.1489  0.6540
  104MOL   H28137567   2.063   4.537   0.403 -1.8099  0.6259  0.7322
  104MOL   H28237568   2.163   4.458   0.611  1.0888 -0.3094  0.2740
  104MOL   H28337569   2.012   4.552   0.641  0.7645  0.6744  0.0802
  104MOL   H28437570   2.142   4.746   0.721 -0.4382 -0.2751 -0.8131
  104MOL   H28537571   2.289   4.657   0.688  1.4957  1.5548  1.3239
  104MOL   H28637572   2.233   4.490   0.857  1.0952  0.6287  2.0060
  104MOL   H28737573   2.086   4.557   0.890  0.5054 -0.5754  0.7446
  104MOL   H28837574   2.358   4.699   0.938  0.6902  1.7792  1.3774
  104MOL   H28937575   2.207   4.777   0.963 -0.2884 -1.4351  0.2348
  104MOL   C29037576   2.349   4.536   1.132 -0.1602 -0.2666 -0.3459
  104MOL   O29137577   2.447   4.495   1.061  0.1974  0.1151 -0.4717
  104MOL   C29237578   2.335   4.480   1.278 -0.1383  0.0098  0.3269
  104MOL   C29337579   2.253   4.352   1.306  0.1052 -0.5448 -0.2249
  104MOL   C29437580   2.343   4.229   1.294  0.1466 -0.2359  0.2701
  104MOL   C29537581   2.270   4.097   1.331  0.0730 -0.2724 -0.0627
  104MOL   C29637582   2.373   3.980   1.330  0.4848 -0.7091  0.2425
  104MOL   O29737583   2.325   3.858   1.369  0.1733 -0.6743 -0.4768
  104MOL   H29837584   2.282   4.564   1.324  1.5783  2.3618 -1.8615
  104MOL   H29937585   2.438   4.475   1.312 -0.4605 -0.8650  1.2149
  104MOL   H30037586   2.163   4.357   1.245 -0.9683  0.8495  1.4159
  104MOL   H30137587   2.225   4.364   1.411 -0.6381  0.1532 -0.5018
  104MOL   H30237588   2.432   4.233   1.356 -0.4914 -0.1312  1.1934
  104MOL   H30337589   2.366   4.230   1.188 -1.0368  0.1215  0.0027
  104MOL   H30437590   2.187   4.070   1.266  2.0225 -3.2873 -1.3934
  104MOL   H30537591   2.221   4.103   1.428  0.9122 -0.4992  0.3842
  104MOL   H30637592   2.426   3.977   1.235  0.6419  1.2300  0.2498
  104MOL   H30737593   2.452   4.021   1.394  0.5754  0.9133 -0.8943
  104MOL   C30837594   2.419   3.769   1.411 -0.0722 -0.3988 -0.4742
  104MOL   O30937595   2.540   3.791   1.429  0.1707 -0.3277 -0.3133
  104MOL   C31037596   2.360   3.629   1.445 -0.3111 -0.2126  0.0343
  104MOL   C31137597   2.287   3.622   1.581 -1.1222 -0.3248  0.1388
  104MOL   C31237598   2.261   3.478   1.635  0.1335 -0.1933 -0.0110
  104MOL   C31337599   2.381   3.421   1.718 -0.3274  0.0822 -0.5061
  104MOL   C31437600   2.353   3.289   1.780  0.1992  0.1484 -0.1229
  104MOL   O31537601   2.480   3.247   1.830 -0.1657  0.2494 -0.3095
  104MOL   H31637602   2.451   3.569   1.451 -0.9347 -1.0215  1.8370
  104MOL   H31737603   2.300   3.591   1.362 -1.2684 -0.2666  0.7453
  104MOL   H31837604   2.194   3.676   1.566 -0.8938  0.3685  1.1745
  104MOL   H31937605   2.363   3.671   1.642  0.5515 -1.5705 -0.8807
  104MOL   H32037606   2.231   3.415   1.551  0.1777 -0.5385  0.2324
  104MOL   H32137607   2.173   3.483   1.698 -1.2685  2.0451 -2.0714
  104MOL   H32237608   2.419   3.491   1.792  0.7748 -0.5983 -0.4238
  104MOL   H32337609   2.466   3.427   1.651 -0.5842 -2.5543 -1.1267
  104MOL   H32437610   2.276   3.295   1.856  0.9203 -0.0418  0.6272
  104MOL   H32537611   2.302   3.225   1.707  1.8734 -0.3365 -0.9091
  104MOL   C32637612   2.480   3.115   1.869  0.0366  0.1851 -0.0860
  104MOL   O32737613   2.396   3.028   1.847  0.8403  0.2556 -0.0409
  104MOL   C32837614   2.600   3.084   1.952 -0.6380  0.4060 -0.5306
  104MOL   C32937615   2.621   3.163   2.086  0.1901  0.0337  0.6785
  104MOL   C33037616   2.682   3.300   2.082 -0.1829 -0.1740  0.1460
  104MOL   C33137617   2.717   3.354   2.220  0.3890  0.1067 -0.1060
  104MOL   C33237618   2.852   3.322   2.282 -0.6129  0.2652 -0.7758
  104MOL   O33337619   2.852   3.193   2.345 -0.2325 -0.3213 -0.0322
  104MOL   H33437620   2.685   3.101   1.887  0.5511  0.3465  0.9961
  104MOL   H33537621   2.606   2.976   1.969  1.2372  0.4256 -0.9533
  104MOL   H33637622   2.674   3.092   2.148 -1.7135  0.4471  2.8324
  104MOL   H33737623   2.526   3.178   2.136 -0.5983  1.6152 -1.2074
  104MOL   H33837624   2.623   3.369   2.022  1.3174 -0.3069 -1.5053
  104MOL   H33937625   2.774   3.285   2.025  0.8895 -1.0810  2.0627
  104MOL   H34037626   2.638   3.327   2.290 -0.3702  4.6329  0.9744
  104MOL   H34137627   2.726   3.461   2.199  0.0610 -0.2054 -1.8973
  104MOL   H34237628   2.936   3.352   2.219 -0.1653  1.0845  0.1935
  104MOL   H34337629   2.859   3.394   2.364 -0.6956  1.0886 -1.4874
  104MOL   C34437630   2.811   3.174   2.471 -0.2010 -0.1883  0.8178
  104MOL   O34537631   2.792   3.264   2.553  0.3801 -0.4585  0.0654
  104MOL   C34637632   2.779   3.024   2.501 -0.1608 -0.5089 -0.4947
  104MOL   C34737633   2.872   2.962   2.607  0.3975 -0.4369  0.1343
  104MOL   C34837634   3.016   2.939   2.562 -0.1774 -0.0834 -0.1253
  104MOL   C34937635   3.037   2.844   2.443  0.6682  0.4061  0.0625
  104MOL   C35037636   3.186   2.828   2.401  0.4651 -0.6218  0.7885
  104MOL   O35137637   3.182   2.732   2.299  0.0348  0.1666 -0.3607
  104MOL   H35237638   2.799   2.973   2.407 -0.7023 -2.1974  0.2905
  104MOL   H35337639   2.671   3.015   2.514 -0.1105 -0.6372 -0.1496
  104MOL   H35437640   2.841   2.868   2.653  3.8341 -1.2149  1.0892
  104MOL   H35537641   2.853   3.033   2.688 -0.3482 -0.9117  0.3826
  104MOL   H35637642   3.070   2.898   2.647  0.6669  0.9478 -0.1611
  104MOL   H35737643   3.067   3.033   2.543 -1.9630  0.7635 -0.8105
  104MOL   H35837644   2.979   2.874   2.355  0.8528  0.1160 -0.1592
  104MOL   H35937645   2.992   2.748   2.469 -3.6539  2.5757  0.9765
  104MOL   H36037646   3.229   2.924   2.370 -2.4181  0.7481  0.8489
  104MOL   H36137647   3.243   2.782   2.482  1.1739 -1.2261 -0.0342
  104MOL   H36237648   3.272   2.708   2.283  0.5163  1.9066 -0.4131
  105MOL     C137649   2.426   4.445   4.178 -0.1806  0.3951 -0.7625
  105MOL     O237650   2.365   4.538   4.229 -0.0453 -0.4125  0.3791
  105MOL     C337651   2.560   4.471   4.107  0.8440 -0.8994 -1.2489
  105MOL     C437652   2.672   4.451   4.203  0.0643 -0.1857  0.1729
  105MOL     C537653   2.808   4.455   4.136  0.5584 -0.1870 -0.0463
  105MOL     C637654   2.933   4.417   4.232  0.3994  0.7959  0.7712
  105MOL     C737655   3.077   4.404   4.161  0.3407 -0.4255  0.1872
  105MOL     O837656   3.079   4.304   4.052 -0.1152 -0.0225  0.4600
  105MOL     H937657   2.550   4.574   4.072  0.6516 -0.3157  0.4517
  105MOL    H1037658   2.579   4.413   4.017 -0.1345 -1.4133 -1.1278
  105MOL    H1137659   2.659   4.361   4.263 -2.7073 -0.5251 -0.8795
  105MOL    H1237660   2.675   4.520   4.287  1.5421  0.9961 -0.8135
  105MOL    H1337661   2.826   4.558   4.108 -1.1226  0.4771  1.2399
  105MOL    H1437662   2.809   4.384   4.054 -0.0838  1.6776 -1.6835
  105MOL    H1537663   2.915   4.319   4.276  0.3720  0.4453 -0.0085
  105MOL    H1637664   2.946   4.492   4.310  0.3087  0.2050  1.3647
  105MOL    H1737665   3.085   4.504   4.116  2.4125 -1.6565 -2.3041
  105MOL    H1837666   3.169   4.394   4.219  0.7165 -0.6521 -0.4324
  105MOL    H1937667   2.393   4.341   4.172 -0.8456  0.3516  2.8045
  105MOL    C2037668   3.081   4.175   4.089 -0.0268 -0.0937  0.1842
  105MOL    O2137669   3.088   4.128   4.203  0.2663  0.0590 -0.1333
  105MOL    C2237670   3.100   4.083   3.969  0.2176  0.1684  0.2394
  105MOL    C2337671   2.986   4.084   3.865 -0.1036  0.0194 -0.6742
  105MOL    C2437672   2.845   4.051   3.932  0.4077  0.0813 -0.0499
  105MOL    C2537673   2.736   4.040   3.822  0.9836  0.4017 -0.0178
  105MOL    C2637674   2.602   4.000   3.889 -0.1022  0.5109  0.9134
  105MOL    O2737675   2.506   3.992   3.786 -0.0642 -0.0262  0.1093
  105MOL    H2837676   3.109   3.979   4.003 -2.6291 -1.1996 -2.9056
  105MOL    H2937677   3.195   4.118   3.930  0.9299 -2.3670 -0.3596
  105MOL    H3037678   3.007   4.007   3.791 -3.1464 -1.6916  0.1742
  105MOL    H3137679   2.975   4.181   3.815 -0.2524  0.6626  0.5928
  105MOL    H3237680   2.828   4.137   3.996 -0.6123  0.6283 -1.0420
  105MOL    H3337681   2.850   3.960   3.991  0.5243 -0.2354 -0.5438
  105MOL    H3437682   2.756   3.958   3.753 -0.7866  0.0156 -0.1031
  105MOL    H3537683   2.716   4.127   3.759 -1.0247  0.6920  0.9797
  105MOL    H3637684   2.610   3.907   3.946  1.8069  0.1164  0.0536
  105MOL    H3737685   2.562   4.076   3.956 -2.1167  0.0813  0.2180
  105MOL    C3837686   2.482   3.881   3.720  0.0911  0.5696  0.4477
  105MOL    O3937687   2.537   3.776   3.742 -0.3405 -0.1429  0.0022
  105MOL    C4037688   2.387   3.901   3.595 -0.1016 -0.4693 -0.3510
  105MOL    C4137689   2.306   3.768   3.583 -0.5346 -0.3928 -0.6350
  105MOL    C4237690   2.193   3.777   3.479  0.1936  0.1600 -0.5984
  105MOL    C4337691   2.236   3.781   3.330  0.0005 -0.0733  0.3354
  105MOL    C4437692   2.121   3.781   3.226  0.0828  0.1492 -0.3058
  105MOL    O4537693   2.054   3.902   3.227 -0.1511  0.0110  0.2287
  105MOL    H4637694   2.450   3.928   3.510 -1.4471  1.7250 -0.6710
  105MOL    H4737695   2.312   3.979   3.609 -0.0689 -0.5366  0.2183
  105MOL    H4837696   2.262   3.750   3.681  1.4826  1.4583  0.6600
  105MOL    H4937697   2.372   3.684   3.564 -1.7252 -1.5766  0.3770
  105MOL    H5037698   2.132   3.864   3.502 -2.4916 -1.7266 -0.3438
  105MOL    H5137699   2.129   3.691   3.502 -0.5318  0.9670  0.4283
  105MOL    H5237700   2.305   3.700   3.308  0.7263  1.0167 -1.4651
  105MOL    H5337701   2.288   3.876   3.320 -0.1282  0.1729  1.8132
  105MOL    H5437702   2.175   3.775   3.131  1.0440 -1.5473  0.3125
  105MOL    H5537703   2.047   3.701   3.232  0.1095  0.2725  1.7561
  105MOL    C5637704   1.967   3.915   3.129  0.0238  0.1607 -0.3923
  105MOL    O5737705   1.928   3.827   3.052 -1.1311  0.5804  0.4303
  105MOL    C5837706   1.935   4.059   3.093  0.6480  0.9873  0.4155
  105MOL    C5937707   1.879   4.138   3.204 -0.2704  0.5150 -0.9662
  105MOL    C6037708   1.964   4.223   3.295 -0.9332 -0.0943 -0.4349
  105MOL    C6137709   2.006   4.167   3.426 -0.5552  0.2572 -0.4861
  105MOL    C6237710   2.093   4.263   3.505  0.3078 -0.1536  0.7512
  105MOL    O6337711   2.151   4.195   3.612  0.1931  0.3030 -0.4228
  105MOL    H6437712   1.859   4.054   3.016  0.7745  0.8240  0.3030
  105MOL    H6537713   2.018   4.108   3.042 -0.4847 -0.4140 -2.8701
  105MOL    H6637714   1.801   4.079   3.252  1.4319 -0.9514  0.0985
  105MOL    H6737715   1.824   4.211   3.145  0.0686  0.6639 -1.0989
  105MOL    H6837716   1.914   4.317   3.319 -1.9777 -0.6861 -0.2522
  105MOL    H6937717   2.053   4.259   3.243 -1.1575 -0.4121 -1.0425
  105MOL    H7037718   2.057   4.073   3.404  2.8847  1.6398  1.1428
  105MOL    H7137719   1.923   4.138   3.490 -0.5379 -0.4969 -0.7981
  105MOL    H7237720   2.177   4.298   3.445  2.2961 -0.8213  3.0362
  105MOL    H7337721   2.042   4.358   3.515 -1.1922 -0.7646 -0.8449
  105MOL    C7437722   2.106   4.215   3.736 -0.4939  0.4510 -0.0956
  105MOL    O7537723   2.001   4.279   3.767 -0.3486  0.1310 -0.3389
  105MOL    C7637724   2.197   4.172   3.848  0.2645 -0.1267  0.9796
  105MOL    C7737725   2.272   4.291   3.911  0.4242  0.4867 -0.2027
  105MOL    C7837726   2.363   4.367   3.814  0.1469  0.2057 -0.7439
  105MOL    C7937727   2.468   4.285   3.735 -0.5817  0.0544 -0.0170
  105MOL    C8037728   2.545   4.371   3.637 -0.0894  0.0159 -0.0982
  105MOL    O8137729   2.640   4.283   3.569 -0.1234 -0.5219  0.4931
  105MOL    H8237730   2.260   4.092   3.809 -2.0196 -0.5954 -1.9638
  105MOL    H8337731   2.133   4.133   3.927  0.6739 -1.7483  0.5408
  105MOL    H8437732   2.324   4.267   4.003  0.3306 -0.3664 -0.3639
  105MOL    H8537733   2.200   4.361   3.951 -2.5408 -3.0489  0.9514
  105MOL    H8637734   2.409   4.454   3.861  1.5964  0.1824 -2.0613
  105MOL    H8737735   2.301   4.401   3.731 -1.2690 -1.9917 -0.6428
  105MOL    H8837736   2.420   4.204   3.680  0.1061  0.8149 -1.7694
  105MOL    H8937737   2.534   4.240   3.809  0.1229  0.4425 -0.4015
  105MOL    H9037738   2.482   4.429   3.568 -1.2880 -0.9988  0.1258
  105MOL    H9137739   2.601   4.443   3.697  1.8836  0.7624 -2.7188
  105MOL    C9237740   2.608   4.244   3.446  0.0060  0.5370  0.3670
  105MOL    O9337741   2.503   4.263   3.386  0.5955 -0.5915 -0.4581
  105MOL    C9437742   2.722   4.162   3.382  0.6081 -0.5654  0.6362
  105MOL    C9537743   2.738   4.019   3.447  0.4346  0.3228 -0.2369
  105MOL    C9637744   2.675   3.920   3.349  0.7891 -0.1720  0.1195
  105MOL    C9737745   2.692   3.773   3.383  0.2282  0.1368  0.3628
  105MOL    C9837746   2.619   3.681   3.287 -0.1582 -0.4181  0.3829
  105MOL    O9937747   2.630   3.547   3.322 -0.7132 -0.1711  0.0853
  105MOL   H10037748   2.812   4.222   3.399 -0.8933  1.0157  3.1940
  105MOL   H10137749   2.727   4.162   3.273 -0.4216 -0.0011  0.5849
  105MOL   H10237750   2.683   4.013   3.541  0.3425 -0.4991 -0.3337
  105MOL   H10337751   2.845   4.001   3.458  0.7219  1.6115 -0.8342
  105MOL   H10437752   2.722   3.946   3.254  1.4964 -0.7501  0.3122
  105MOL   H10537753   2.569   3.945   3.342  0.7924  1.1524  3.8826
  105MOL   H10637754   2.658   3.760   3.486  1.7763  0.5567  0.9534
  105MOL   H10737755   2.798   3.749   3.377  0.3047  0.5259  0.1409
  105MOL   H10837756   2.513   3.708   3.283 -0.0817 -0.2129 -0.3848
  105MOL   H10937757   2.658   3.701   3.188  0.3378  1.8038  0.9883
  105MOL   C11037758   2.593   3.451   3.245 -0.5712 -0.1792  1.5832
  105MOL   O11137759   2.554   3.460   3.132  0.6335 -0.0442 -0.4475
  105MOL   C11237760   2.585   3.316   3.313  0.7364 -0.5881 -0.1423
  105MOL   C11337761   2.706   3.224   3.298  0.2332 -0.1052  0.5765
  105MOL   C11437762   2.805   3.230   3.417 -0.6146 -0.1494  0.2045
  105MOL   C11537763   2.939   3.170   3.398  0.2891 -0.6092 -0.6623
  105MOL   C11637764   3.037   3.215   3.505  0.6619  0.2813 -0.2289
  105MOL   O11737765   3.165   3.142   3.505  0.1609 -0.2147  0.2697
  105MOL   H11837766   2.502   3.265   3.263  0.1136  0.2966 -0.0315
  105MOL   H11937767   2.549   3.339   3.413  1.4484  0.7654 -0.1917
  105MOL   H12037768   2.765   3.236   3.207 -0.0991 -1.5654  0.1546
  105MOL   H12137769   2.662   3.124   3.292 -0.4121  0.1893  0.3527
  105MOL   H12237770   2.762   3.190   3.509  1.4905 -1.3394  0.7090
  105MOL   H12337771   2.808   3.335   3.445 -0.3793 -0.3559  0.9825
  105MOL   H12437772   2.981   3.198   3.301 -0.2735 -0.0311 -0.7398
  105MOL   H12537773   2.937   3.061   3.405  1.8509 -0.5696  0.8334
  105MOL   H12637774   3.055   3.320   3.485  0.5678  0.2340 -0.5652
  105MOL   H12737775   2.991   3.203   3.603  2.5278 -0.9451  0.5290
  105MOL   C12837776   3.254   3.181   3.417  0.3113  0.2189 -0.7656
  105MOL   O12937777   3.233   3.257   3.323  0.3468  0.0326  0.3662
  105MOL   C13037778   3.394   3.123   3.454 -0.3140 -0.6406  0.5412
  105MOL   C13137779   3.499   3.223   3.494 -0.3457 -0.2791 -0.7277
  105MOL   C13237780   3.471   3.300   3.626 -0.5002  0.6996 -0.0480
  105MOL   C13337781   3.590   3.400   3.673  0.2514 -0.8693  0.3337
  105MOL   C13437782   3.609   3.399   3.825 -0.3652  0.7970  0.1592
  105MOL   O13537783   3.660   3.272   3.862 -0.0776 -0.2891 -0.2041
  105MOL   H13637784   3.429   3.079   3.361  1.4081  0.6790  0.5490
  105MOL   H13737785   3.388   3.035   3.518  1.6859 -1.8121 -0.8319
  105MOL   H13837786   3.510   3.286   3.406 -0.0010 -0.0014 -0.4850
  105MOL   H13937787   3.595   3.172   3.506 -0.7694 -0.8308  0.3600
  105MOL   H14037788   3.450   3.226   3.703 -0.7892  1.0017  0.1663
  105MOL   H14137789   3.385   3.363   3.604 -1.2889 -0.6741 -0.9389
  105MOL   H14237790   3.586   3.501   3.632 -0.9468 -0.4740  1.3974
  105MOL   H14337791   3.677   3.361   3.621  1.5068  0.9974  1.0038
  105MOL   H14437792   3.683   3.475   3.846  0.9270 -0.0954 -1.0645
  105MOL   H14537793   3.518   3.436   3.873 -1.3915  1.3199 -2.1414
  105MOL   C14637794   3.707   3.251   3.991 -0.1047  0.1832  0.0385
  105MOL   O14737795   3.722   3.346   4.068  0.2731 -0.4003  0.3026
  105MOL   C14837796   3.756   3.109   4.017 -0.1151 -0.5641 -0.0512
  105MOL   C14937797   3.761   3.082   4.171  0.2439  0.0036  0.4782
  105MOL   C15037798   3.800   2.936   4.183 -0.0530  0.1892  0.6188
  105MOL   C15137799   3.842   2.903   4.325 -0.0213 -0.3180 -0.0151
  105MOL   C15237800   3.937   2.779   4.335  0.5058  0.2672  0.5895
  105MOL   O15337801   4.008   2.782   4.456 -0.0344  0.6589 -0.1758
  105MOL   H15437802   3.856   3.098   3.975 -0.9285 -0.9189 -1.9359
  105MOL   H15537803   3.690   3.036   3.971 -0.2264  0.4464 -1.5076
  105MOL   H15637804   3.664   3.101   4.219  1.0491  0.9086  1.8131
  105MOL   H15737805   3.826   3.159   4.213 -1.0857  0.7227  1.2972
  105MOL   H15837806   3.892   2.920   4.127 -0.2246  0.9781  0.1050
  105MOL   H15937807   3.718   2.880   4.138 -0.6596  0.0674  1.8722
  105MOL   H16037808   3.756   2.898   4.392  1.6826 -2.5044  2.1121
  105MOL   H16137809   3.904   2.988   4.351 -0.0365 -0.5928  0.9611
  105MOL   H16237810   3.864   2.698   4.335 -0.5111  1.1161 -2.0999
  105MOL   H16337811   4.001   2.760   4.250  1.4329  1.6859  0.9474
  105MOL   C16437812   4.141   2.809   4.467 -0.8869 -0.1038  0.2667
  105MOL   O16537813   4.224   2.839   4.381  0.3829 -0.1416 -0.0281
  105MOL   C16637814   4.189   2.780   4.612 -0.0669  0.2884  0.2974
  105MOL   C16737815   4.207   2.629   4.645 -0.6184  0.4366 -0.2878
  105MOL   C16837816   4.282   2.549   4.531  0.2513 -0.3529  0.9602
  105MOL   C16937817   4.277   2.397   4.562  0.0604  0.1793  0.2420
  105MOL   C17037818   4.357   2.318   4.453  0.1657 -0.1350 -0.2123
  105MOL   O17137819   4.487   2.354   4.464 -0.5330  0.7985 -0.1464
  105MOL   H17237820   4.118   2.820   4.685  1.8485  1.7961  1.3913
  105MOL   H17337821   4.281   2.837   4.629 -0.3553  0.3842  1.5745
  105MOL   H17437822   4.116   2.573   4.668  1.5718 -3.0367  0.4533
  105MOL   H17537823   4.278   2.612   4.727 -1.3440 -1.1115  0.0513
  105MOL   H17637824   4.383   2.590   4.529  0.5132 -1.0107 -2.8023
  105MOL   H17737825   4.241   2.563   4.432 -1.6598 -1.4910  1.5761
  105MOL   H17837826   4.173   2.367   4.555  0.5817 -1.0974 -2.6342
  105MOL   H17937827   4.327   2.382   4.658  1.0251 -1.1307 -0.4506
  105MOL   H18037828   4.342   2.211   4.467 -2.2602 -0.3866 -4.2016
  105MOL   H18137829   4.315   2.355   4.360  2.8927  1.3784 -0.8993
  105MOL   C18237830   4.564   2.352   4.358  0.0141  0.6621  0.1023
  105MOL   O18337831   4.541   2.291   4.252 -0.1445  0.1485 -0.3906
  105MOL   C18437832   4.695   2.425   4.376 -0.3564  0.1125  0.2555
  105MOL   C18537833   4.684   2.573   4.347 -0.1278 -0.1585 -0.5794
  105MOL   C18637834   4.604   2.627   4.225 -0.2533 -0.1364  0.1582
  105MOL   C18737835   4.467   2.678   4.242 -0.3251 -0.9635  0.7638
  105MOL   C18837836   4.390   2.698   4.111 -0.0101 -0.2959  0.4162
  105MOL   O18937837   4.384   2.581   4.025  0.5359 -0.0602 -0.1364
  105MOL   H19037838   4.775   2.373   4.323 -0.4748 -0.9742  1.1225
  105MOL   H19137839   4.732   2.422   4.478 -2.5904 -1.1456  1.0605
  105MOL   H19237840   4.788   2.606   4.344 -0.1838 -0.0907 -1.7971
  105MOL   H19337841   4.646   2.632   4.431 -0.5814  1.5401 -1.9342
  105MOL   H19437842   4.598   2.547   4.152 -0.9425 -1.3329  1.4982
  105MOL   H19537843   4.657   2.707   4.174 -1.7150  0.9929  0.3711
  105MOL   H19637844   4.462   2.765   4.308 -0.9923 -1.3614  1.2374
  105MOL   H19737845   4.418   2.602   4.303 -1.6600 -0.0250  0.8864
  105MOL   H19837846   4.290   2.725   4.143 -0.3879 -0.5924 -0.4750
  105MOL   H19937847   4.427   2.777   4.046 -3.3060  0.8108 -0.1886
  105MOL   C20037848   4.304   2.487   4.053  0.1947 -0.7945 -0.8609
  105MOL   O20137849   4.211   2.504   4.137  0.0784  0.0888  0.1516
  105MOL   C20237850   4.333   2.350   3.985 -0.1114 -0.0024 -0.7785
  105MOL   C20337851   4.255   2.235   4.043  0.8340 -0.1375 -0.2693
  105MOL   C20437852   4.117   2.226   3.974  0.4797 -0.0176  0.3006
  105MOL   C20537853   4.023   2.131   4.049 -1.1271  0.1617 -0.6031
  105MOL   C20637854   3.873   2.152   4.014  0.4272  0.1141 -0.0718
  105MOL   O20737855   3.791   2.064   4.087  0.5139  0.3080  0.3655
  105MOL   H20837856   4.441   2.340   3.992 -0.1096  0.2866 -0.3678
  105MOL   H20937857   4.308   2.351   3.879 -1.1356  0.2299 -0.5360
  105MOL   H21037858   4.234   2.250   4.149 -0.1540 -0.5240 -0.3968
  105MOL   H21137859   4.317   2.147   4.026 -0.9912 -1.3597 -0.7730
  105MOL   H21237860   4.132   2.186   3.873 -1.1377  1.6654 -0.6338
  105MOL   H21337861   4.071   2.322   3.950 -0.2116  0.0568  1.8522
  105MOL   H21437862   4.040   2.158   4.153  0.2127  1.2786 -1.0899
  105MOL   H21537863   4.059   2.031   4.028  1.2395  0.5046  1.6054
  105MOL   H21637864   3.833   2.251   4.035 -3.5651 -1.1844 -1.0523
  105MOL   H21737865   3.849   2.140   3.908 -0.6624  0.2866  0.1418
  105MOL   C21837866   3.734   1.956   4.036  0.9416 -0.0870 -0.1635
  105MOL   O21937867   3.760   1.908   3.927  0.9082  0.1047  0.3059
  105MOL   C22037868   3.613   1.907   4.114  0.7668  0.7311  0.2648
  105MOL   C22137869   3.532   2.015   4.196 -0.2795 -0.2886  0.3203
  105MOL   C22237870   3.469   2.128   4.108  0.3966 -0.0540 -0.4208
  105MOL   C22337871   3.396   2.240   4.183  1.0468  0.4898 -0.2524
  105MOL   C22437872   3.319   2.336   4.091 -0.6045 -0.4454 -0.0305
  105MOL   O22537873   3.213   2.261   4.052 -0.2024  0.3139 -0.7023
  105MOL   H22637874   3.646   1.829   4.182  1.2428 -0.7883 -1.6798
  105MOL   H22737875   3.551   1.851   4.044  1.1767  0.3694  0.1907
  105MOL   H22837876   3.593   2.058   4.275  0.6501  2.1307 -1.6573
  105MOL   H22937877   3.447   1.966   4.242 -1.3940  1.8769  0.6172
  105MOL   H23037878   3.408   2.076   4.034 -1.7710  1.2885  0.3773
  105MOL   H23137879   3.544   2.168   4.040 -0.4319 -0.3539 -1.5222
  105MOL   H23237880   3.469   2.296   4.242  1.3743 -0.4873  0.2854
  105MOL   H23337881   3.335   2.200   4.264  1.5208  3.4392  1.6768
  105MOL   H23437882   3.298   2.436   4.131  0.0079 -0.3933  0.1624
  105MOL   H23537883   3.383   2.353   4.004 -0.4690 -0.6112  0.0392
  105MOL   C23637884   3.094   2.270   4.125 -0.2316 -0.2951  0.0743
  105MOL   O23737885   3.079   2.340   4.226 -0.1407  0.3724 -0.5596
  105MOL   C23837886   2.977   2.189   4.069 -0.0613 -0.4901 -0.1532
  105MOL   C23937887   2.997   2.043   4.068 -0.8640  0.2020 -0.3242
  105MOL   C24037888   2.906   1.970   3.971  0.5120  0.0364 -1.0598
  105MOL   C24137889   2.934   1.822   3.958  0.4774 -0.4065 -0.3551
  105MOL   C24237890   2.822   1.744   3.886  0.2022  0.6398  0.5664
  105MOL   O24337891   2.852   1.602   3.879  0.3047  0.9436 -0.0475
  105MOL   H24437892   2.956   2.217   3.965  0.1583 -0.2638 -0.1366
  105MOL   H24537893   2.882   2.217   4.116  0.0844  0.3635 -0.3486
  105MOL   H24637894   2.986   2.001   4.168  1.3245  1.3362  0.4371
  105MOL   H24737895   3.102   2.017   4.050 -1.2642 -3.0604  1.6371
  105MOL   H24837896   2.910   2.019   3.873 -0.0603 -0.8583 -1.5330
  105MOL   H24937897   2.812   1.978   4.025  1.6984  0.4393  1.0251
  105MOL   H25037898   2.943   1.784   4.060  0.9822 -0.4040 -0.3982
  105MOL   H25137899   3.029   1.811   3.906  1.2627  0.9689  0.7486
  105MOL   H25237900   2.731   1.759   3.944 -0.9813 -3.2561 -0.1051
  105MOL   H25337901   2.801   1.793   3.791 -2.3826 -1.8517 -0.2151
  105MOL   C25437902   2.808   1.521   3.787  0.4874 -0.3645  0.7340
  105MOL   O25537903   2.724   1.554   3.696 -0.5888  0.2360 -0.2784
  105MOL   C25637904   2.869   1.385   3.792 -0.2452  0.5680  0.2268
  105MOL   C25737905   3.021   1.386   3.761  0.0678 -0.3802 -0.1156
  105MOL   C25837906   3.087   1.249   3.771  0.8678  0.2256 -0.1716
  105MOL   C25937907   3.233   1.240   3.759 -0.0520  0.0364 -0.1681
  105MOL   C26037908   3.298   1.105   3.775 -0.2366 -0.2163  0.6024
  105MOL   O26137909   3.226   1.033   3.872 -0.1294  0.3296  0.2651
  105MOL   H26237910   2.819   1.311   3.730  0.4278  0.9870 -0.8413
  105MOL   H26337911   2.843   1.349   3.891 -3.2859 -0.8402 -1.0191
  105MOL   H26437912   3.062   1.460   3.831 -3.1393  2.1207 -0.7601
  105MOL   H26537913   3.038   1.425   3.661 -0.1914 -2.0125 -0.7953
  105MOL   H26637914   3.047   1.169   3.708 -0.1876  1.0549 -0.5714
  105MOL   H26737915   3.076   1.227   3.878 -2.3819 -0.6215 -0.6092
  105MOL   H26837916   3.280   1.305   3.832  0.0357  0.2362 -0.3990
  105MOL   H26937917   3.259   1.286   3.663  1.1183 -0.1684  0.0390
  105MOL   H27037918   3.302   1.057   3.678  2.2365  0.2638  0.4521
  105MOL   H27137919   3.404   1.119   3.795 -0.4271 -2.2006  3.1691
  105MOL   C27237920   3.279   0.925   3.911  0.1935  0.2900  0.2441
  105MOL   O27337921   3.382   0.877   3.863  0.1306  0.7065  0.1658
  105MOL   C27437922   3.209   0.870   4.027 -0.2943 -0.4691 -0.6589
  105MOL   C27537923   3.267   0.743   4.100  0.2063 -0.0361  0.1367
  105MOL   C27637924   3.277   0.624   4.015  0.8377  0.5821  0.6468
  105MOL   C27737925   3.136   0.570   3.970  0.2951 -0.0561 -0.5506
  105MOL   C27837926   3.155   0.459   3.867 -0.3101 -0.3384 -0.0315
  105MOL   O27937927   3.189   0.512   3.742 -0.1687 -0.1642 -0.5845
  105MOL   H28037928   3.108   0.846   3.996 -0.0954 -2.0459 -0.1508
  105MOL   H28137929   3.202   0.953   4.098  1.6890  1.2290 -2.3860
  105MOL   H28237930   3.221   0.729   4.197 -2.5158  0.4560 -1.0352
  105MOL   H28337931   3.369   0.768   4.129  0.3037 -0.0328 -0.2054
  105MOL   H28437932   3.333   0.545   4.065 -0.2608 -0.4688  0.2458
  105MOL   H28537933   3.347   0.649   3.935 -0.4282  0.2369 -0.5915
  105MOL   H28637934   3.070   0.649   3.933  0.0409  0.4774  0.9988
  105MOL   H28737935   3.095   0.531   4.063 -0.5116  0.2079 -0.7911
  105MOL   H28837936   3.235   0.392   3.898  1.0653  1.1117 -0.3773
  105MOL   H28937937   3.061   0.406   3.852 -1.7958  2.1417  0.2558
  105MOL   C29037938   3.316   0.494   3.697 -0.4260  0.3048  0.2206
  105MOL   O29137939   3.407   0.456   3.772  0.0322  0.3352  0.1643
  105MOL   C29237940   3.327   0.543   3.554 -0.0494  0.3380 -0.0075
  105MOL   C29337941   3.478   0.567   3.515 -0.4756  0.5865 -0.5324
  105MOL   C29437942   3.551   0.697   3.569 -0.5525  0.1753 -0.5567
  105MOL   C29537943   3.510   0.830   3.504  0.0542  0.6747  0.2309
  105MOL   C29637944   3.585   0.963   3.547  0.3114  0.4495  0.1526
  105MOL   O29737945   3.532   1.072   3.467 -0.3317  0.2617 -0.1558
  105MOL   H29837946   3.281   0.637   3.525  0.3761  0.7301  0.5933
  105MOL   H29937947   3.287   0.460   3.496 -1.0822  0.2661  0.7953
  105MOL   H30037948   3.496   0.569   3.407  0.0032 -0.5030 -0.4731
  105MOL   H30137949   3.529   0.480   3.555 -3.7362 -1.6718 -1.1528
  105MOL   H30237950   3.660   0.698   3.576 -0.4789 -0.2742 -1.5791
  105MOL   H30337951   3.504   0.696   3.668 -1.7431  1.0513 -1.1023
  105MOL   H30437952   3.403   0.846   3.517  0.3271  1.7746  1.2105
  105MOL   H30537953   3.524   0.818   3.397  0.8248  1.3564  0.2503
  105MOL   H30637954   3.566   0.975   3.654 -0.1602 -0.5021  0.1816
  105MOL   H30737955   3.691   0.942   3.534  0.3438  0.8605 -0.2365
  105MOL   C30837956   3.578   1.096   3.342  0.9279  0.0285 -0.3459
  105MOL   O30937957   3.656   1.018   3.284  0.0640 -0.5901  0.3537
  105MOL   C31037958   3.510   1.200   3.261  0.3969 -0.0758 -0.5629
  105MOL   C31137959   3.381   1.256   3.325  0.4841 -0.4813  0.5863
  105MOL   C31237960   3.263   1.159   3.307  0.2009 -0.4199 -0.4810
  105MOL   C31337961   3.135   1.235   3.340  0.0507  0.1189  0.7338
  105MOL   C31437962   3.012   1.166   3.276  0.1696 -0.5025  0.5251
  105MOL   O31537963   2.899   1.243   3.304 -0.0388  0.2688  0.1282
  105MOL   H31637964   3.493   1.154   3.163 -0.3235 -0.3182 -0.3265
  105MOL   H31737965   3.574   1.286   3.241 -0.3001  0.1691 -1.8082
  105MOL   H31837966   3.362   1.343   3.262  0.0455 -0.7753  0.3129
  105MOL   H31937967   3.385   1.279   3.432 -3.7579 -2.7556  1.3445
  105MOL   H32037968   3.278   1.065   3.358 -0.4802  0.4306  1.3466
  105MOL   H32137969   3.271   1.130   3.202 -2.2049 -0.4024 -0.7003
  105MOL   H32237970   3.140   1.341   3.314 -3.4107  0.0674 -0.4282
  105MOL   H32337971   3.118   1.232   3.447 -2.5959 -0.3303  0.3393
  105MOL   H32437972   3.033   1.163   3.169  1.9680 -0.2406  0.8546
  105MOL   H32537973   2.991   1.065   3.310  0.6502 -1.2131 -1.2388
  105MOL   C32637974   2.817   1.208   3.409 -1.1287 -0.1505  0.5147
  105MOL   O32737975   2.840   1.120   3.492  0.3234  0.0655 -0.4595
  105MOL   C32837976   2.678   1.268   3.413  0.8090 -0.2798 -0.1060
  105MOL   C32937977   2.586   1.228   3.533 -0.9260  0.4703 -0.1214
  105MOL   C33037978   2.459   1.320   3.542  0.2589  0.3643  0.6170
  105MOL   C33137979   2.357   1.304   3.428 -0.4863  1.0448  0.1390
  105MOL   C33237980   2.233   1.384   3.463 -0.5652 -0.2150 -0.0402
  105MOL   O33337981   2.137   1.382   3.351  0.0102 -0.0689  0.0614
  105MOL   H33437982   2.637   1.234   3.318  0.0776 -1.4961  0.6250
  105MOL   H33537983   2.687   1.376   3.411  0.6114 -0.2902 -1.7527
  105MOL   H33637984   2.636   1.228   3.630 -0.4366  1.1607 -0.3694
  105MOL   H33737985   2.546   1.127   3.523 -0.6421  0.1997  1.3848
  105MOL   H33837986   2.484   1.426   3.553 -1.1426  0.7741 -0.0348
  105MOL   H33937987   2.414   1.303   3.640  0.6706 -0.5009  0.6607
  105MOL   H34037988   2.327   1.200   3.413 -1.0266  1.3983 -1.2937
  105MOL   H34137989   2.388   1.343   3.331 -0.1311  0.1274 -0.1236
  105MOL   H34237990   2.182   1.332   3.545  0.6699  1.1544  1.6249
  105MOL   H34337991   2.250   1.489   3.485  1.1548 -0.1199 -1.7390
  105MOL   C34437992   2.006   1.386   3.375 -0.2434 -0.1610 -0.3810
  105MOL   O34537993   1.949   1.381   3.486  0.6183 -0.4337  0.1494
  105MOL   C34637994   1.930   1.405   3.246  0.2130 -0.2202  0.1352
  105MOL   C34737995   1.821   1.509   3.251  0.4574 -0.2884  0.0730
  105MOL   C34837996   1.767   1.551   3.113  0.3960 -0.1561 -0.1866
  105MOL   C34937997   1.668   1.665   3.131  0.0123 -0.1128 -0.0546
  105MOL   C35037998   1.622   1.696   2.990  0.4395  0.1304  0.4364
  105MOL   O35137999   1.512   1.792   2.991  0.1142 -0.0545 -0.5773
  105MOL   H35238000   1.898   1.304   3.220  0.5015 -0.4456  0.6479
  105MOL   H35338001   2.001   1.434   3.169 -0.3924 -0.5395 -0.5449
  105MOL   H35438002   1.874   1.590   3.302  2.8299 -1.7036 -0.0923
  105MOL   H35538003   1.742   1.461   3.309  0.7125  0.6002  1.1792
  105MOL   H35638004   1.708   1.464   3.083  0.5549 -0.1703 -0.4517
  105MOL   H35738005   1.843   1.568   3.037  0.0824 -2.9689 -1.1953
  105MOL   H35838006   1.715   1.758   3.162 -0.2823  0.5481 -1.5578
  105MOL   H35938007   1.588   1.643   3.201 -1.5891 -0.8682 -2.0932
  105MOL   H36038008   1.710   1.731   2.936 -0.9511  0.7324 -1.4974
  105MOL   H36138009   1.587   1.613   2.928  0.0263  1.2058 -0.8036
  105MOL   H36238010   1.465   1.778   3.072  1.3116  0.1473  0.1681
  106MOL     C138011   3.358   1.992   0.423  0.1433 -0.1475 -0.3000
  106MOL     O238012   3.436   1.919   0.487 -0.4712 -0.3636 -0.1239
  106MOL     C338013   3.235   1.924   0.367  0.5777  0.5910 -0.5656
  106MOL     C438014   3.100   1.959   0.426  0.5710  0.4189 -0.4908
  106MOL     C538015   3.061   1.892   0.556  0.2250 -0.1829  0.0220
  106MOL     C638016   3.018   1.745   0.531 -0.8330 -0.0415 -0.2343
  106MOL     C738017   2.963   1.685   0.660 -1.0851  0.1490  0.4712
  106MOL     O838018   2.906   1.559   0.628 -0.2279  0.2313  0.2325
  106MOL     H938019   3.248   1.817   0.379 -0.0476  0.6438  0.6979
  106MOL    H1038020   3.233   1.942   0.260 -0.2665 -0.6488 -0.7631
  106MOL    H1138021   3.033   1.923   0.348  0.5854 -0.1406 -0.2435
  106MOL    H1238022   3.079   2.066   0.434  3.2023  0.8434  1.3150
  106MOL    H1338023   2.984   1.954   0.601  1.0864  1.7492 -1.1013
  106MOL    H1438024   3.145   1.886   0.625  0.0084  0.7136  0.3727
  106MOL    H1538025   3.111   1.696   0.501 -0.0666  0.6008  1.0853
  106MOL    H1638026   2.939   1.744   0.455 -1.3139 -1.0622  0.2642
  106MOL    H1738027   3.041   1.671   0.735 -0.1883 -0.0186 -0.4961
  106MOL    H1838028   2.889   1.753   0.701  0.1261  0.0213  2.9985
  106MOL    H1938029   3.375   2.094   0.390 -0.9208 -0.1457 -0.8555
  106MOL    C2038030   2.805   1.509   0.698 -0.6252 -0.0900  0.6945
  106MOL    O2138031   2.750   1.554   0.796  0.5795 -0.3563 -0.4263
  106MOL    C2238032   2.765   1.379   0.628  0.4223 -0.0515 -0.9206
  106MOL    C2338033   2.633   1.308   0.687  1.1183  0.1305 -0.0914
  106MOL    C2438034   2.505   1.379   0.647  0.2890 -1.0016 -0.0323
  106MOL    C2538035   2.478   1.360   0.493  0.3599  0.3439 -0.1050
  106MOL    C2638036   2.372   1.455   0.430 -1.3865 -0.1119 -0.3705
  106MOL    O2738037   2.246   1.427   0.490  0.1007 -0.2231 -0.0897
  106MOL    H2838038   2.843   1.306   0.647 -2.0204 -2.7559 -1.0000
  106MOL    H2938039   2.761   1.402   0.521  1.8630 -0.0816 -0.9910
  106MOL    H3038040   2.639   1.317   0.796  0.1886  0.1647 -0.0344
  106MOL    H3138041   2.634   1.205   0.652  2.0317  0.2703 -0.4938
  106MOL    H3238042   2.512   1.483   0.678  0.8408 -1.2703  0.7609
  106MOL    H3338043   2.418   1.342   0.701  1.9368 -0.1971  3.3152
  106MOL    H3438044   2.470   1.255   0.466 -1.1669  0.7935 -1.4345
  106MOL    H3538045   2.571   1.387   0.442  1.5116 -2.2949  0.4960
  106MOL    H3638046   2.403   1.558   0.449 -0.7922  0.1369 -2.5394
  106MOL    H3738047   2.350   1.450   0.323  3.2621  1.9881 -1.5352
  106MOL    C3838048   2.160   1.335   0.442  0.1080 -0.3057  0.7359
  106MOL    O3938049   2.185   1.252   0.354 -0.5673  0.1203  0.1148
  106MOL    C4038050   2.018   1.336   0.516 -0.3782  0.0432  0.2607
  106MOL    C4138051   2.020   1.352   0.670  0.3740 -0.0889 -0.1649
  106MOL    C4238052   2.083   1.231   0.743 -0.8285 -0.3682 -0.2196
  106MOL    C4338053   2.088   1.239   0.898 -0.2373  0.2124 -0.5736
  106MOL    C4438054   2.164   1.116   0.961 -0.0313 -0.3759  0.1114
  106MOL    O4538055   2.174   1.136   1.104 -0.3245  0.1066 -0.2631
  106MOL    H4638056   1.958   1.246   0.506 -1.1523  0.2916  2.4270
  106MOL    H4738057   1.963   1.419   0.473 -0.8618 -0.9561 -1.0878
  106MOL    H4838058   1.915   1.370   0.693  0.3502  1.1908 -1.2438
  106MOL    H4938059   2.062   1.449   0.697  0.7965 -0.5069  0.7227
  106MOL    H5038060   2.181   1.220   0.697 -0.5691  1.8390 -0.2850
  106MOL    H5138061   2.030   1.139   0.719  0.8230 -1.4976  0.3796
  106MOL    H5238062   1.989   1.251   0.941  1.0320  0.6149  2.4439
  106MOL    H5338063   2.138   1.334   0.915 -1.6668  0.6711  1.2033
  106MOL    H5438064   2.131   1.014   0.941 -2.5398  0.2268  0.8980
  106MOL    H5538065   2.266   1.124   0.924 -0.5607 -1.5275 -1.7004
  106MOL    C5638066   2.112   1.045   1.182 -0.5018  0.3582 -0.0884
  106MOL    O5738067   2.036   0.952   1.141 -0.1113  0.0201 -0.3941
  106MOL    C5838068   2.137   1.069   1.334  0.0193  0.2972  0.3734
  106MOL    C5938069   2.010   1.026   1.414  0.1902  0.0164 -0.5320
  106MOL    C6038070   2.002   0.878   1.450  0.1952 -1.1541 -0.3430
  106MOL    C6138071   2.044   0.833   1.590 -0.5800  0.0586 -0.4471
  106MOL    C6238072   1.992   0.699   1.627  0.0760  0.6525 -0.0001
  106MOL    O6338073   2.021   0.680   1.765  0.5268  0.4290 -0.3092
  106MOL    H6438074   2.147   1.177   1.348  0.3241  0.4097 -0.6557
  106MOL    H6538075   2.220   1.011   1.373 -0.5399 -0.4838  0.4032
  106MOL    H6638076   1.926   1.064   1.355 -1.8997 -1.5381  1.3928
  106MOL    H6738077   1.991   1.078   1.508 -1.7529 -2.1937  0.3437
  106MOL    H6838078   2.058   0.822   1.375  1.5001 -0.7725  0.3389
  106MOL    H6938079   1.898   0.845   1.443 -0.2536 -0.1477  1.2815
  106MOL    H7038080   2.010   0.906   1.663  1.9723  1.5414 -0.6810
  106MOL    H7138081   2.153   0.835   1.599 -0.5190 -0.3431 -1.0452
  106MOL    H7238082   1.884   0.702   1.612 -0.0846 -1.0946  0.5873
  106MOL    H7338083   2.014   0.611   1.567  0.5052 -0.0713  1.1838
  106MOL    C7438084   2.094   0.571   1.805  0.0842 -0.7161  0.2088
  106MOL    O7538085   2.128   0.480   1.736  0.1073  0.2697 -0.0741
  106MOL    C7638086   2.134   0.578   1.947  0.6361  0.5326  0.2398
  106MOL    C7738087   2.029   0.553   2.046  0.7769  0.0635 -0.0229
  106MOL    C7838088   1.948   0.672   2.099  0.0793 -0.1537 -0.5403
  106MOL    C7938089   1.839   0.645   2.203  0.0053  0.5011  0.5937
  106MOL    C8038090   1.757   0.769   2.243 -0.4215 -0.4742  0.5845
  106MOL    O8138091   1.664   0.800   2.134 -0.4025  0.0816  0.1561
  106MOL    H8238092   2.193   0.666   1.972  1.5459 -0.1021  0.3874
  106MOL    H8338093   2.205   0.499   1.972  0.0725  0.2371  0.9156
  106MOL    H8438094   2.068   0.501   2.133  1.5650 -0.4656 -0.6921
  106MOL    H8538095   1.968   0.469   2.013  0.7359 -0.7466  2.0204
  106MOL    H8638096   1.893   0.708   2.013 -0.0318 -1.6054 -1.0893
  106MOL    H8738097   2.017   0.744   2.143 -0.7847  0.7234 -0.6009
  106MOL    H8838098   1.892   0.608   2.291 -2.2394 -3.4994  0.4132
  106MOL    H8938099   1.779   0.559   2.173 -0.4505  0.2876  2.0722
  106MOL    H9038100   1.705   0.747   2.336 -2.2861  2.2565  0.2635
  106MOL    H9138101   1.813   0.862   2.249 -1.1244  0.0588 -0.9137
  106MOL    C9238102   1.544   0.732   2.120 -0.2500 -0.1672 -0.8724
  106MOL    O9338103   1.501   0.647   2.199  0.2218 -0.2435 -0.0865
  106MOL    C9438104   1.484   0.761   1.981  1.3548  0.2782  0.0023
  106MOL    C9538105   1.558   0.698   1.854  0.2313  0.7638 -0.8101
  106MOL    C9638106   1.479   0.701   1.723  0.4311 -0.0283 -0.8070
  106MOL    C9738107   1.459   0.568   1.646 -0.0975  0.3351 -0.3734
  106MOL    C9838108   1.364   0.584   1.528  0.5287 -0.1127  0.4493
  106MOL    O9938109   1.336   0.450   1.476 -0.2012 -0.4321 -0.0339
  106MOL   H10038110   1.471   0.869   1.969 -1.9668  0.0196  0.5862
  106MOL   H10138111   1.384   0.717   1.977  0.7986  1.5104 -0.0309
  106MOL   H10238112   1.577   0.594   1.881  0.4201  1.2785  1.1488
  106MOL   H10338113   1.653   0.752   1.844 -0.0495  1.1251 -1.5280
  106MOL   H10438114   1.534   0.770   1.658 -0.9869  1.7033 -0.2111
  106MOL   H10538115   1.383   0.752   1.734  0.0992 -0.6981 -0.5721
  106MOL   H10638116   1.406   0.508   1.719 -1.4981  1.0073 -0.8148
  106MOL   H10738117   1.557   0.532   1.614 -0.3557  0.0535 -0.8330
  106MOL   H10838118   1.270   0.624   1.563  0.2853 -0.0312 -0.2972
  106MOL   H10938119   1.404   0.652   1.452 -0.7547 -1.6183 -1.6434
  106MOL   C11038120   1.246   0.431   1.373 -0.0183  0.2530 -0.3619
  106MOL   O11138121   1.192   0.516   1.307  0.1344 -0.2096  0.2287
  106MOL   C11238122   1.222   0.280   1.352  0.3577 -0.3523 -0.4001
  106MOL   C11338123   1.154   0.229   1.220  0.2995  0.2726  0.2082
  106MOL   C11438124   1.252   0.197   1.108  0.2796 -0.5166 -0.1583
  106MOL   C11538125   1.186   0.173   0.974 -0.1411 -0.2299 -0.1335
  106MOL   C11638126   1.284   0.156   0.862 -0.3955  0.3112 -0.0463
  106MOL   O11738127   1.377   0.053   0.895  0.1746 -0.1102 -0.3672
  106MOL   H11838128   1.160   0.242   1.434  0.1826 -0.0681 -0.4017
  106MOL   H11938129   1.317   0.229   1.365  1.5150  2.0524  0.7654
  106MOL   H12038130   1.086   0.302   1.177 -0.0404  0.0562  0.3728
  106MOL   H12138131   1.087   0.148   1.251  0.1806 -0.3014 -1.5029
  106MOL   H12238132   1.299   0.104   1.140 -0.7493 -0.6292  1.0692
  106MOL   H12338133   1.321   0.281   1.104  0.1783 -0.3635  1.1119
  106MOL   H12438134   1.111   0.247   0.947  1.8890  1.4319 -1.4003
  106MOL   H12538135   1.117   0.089   0.980 -1.3463  0.7759  0.3826
  106MOL   H12638136   1.235   0.140   0.767  0.4652  0.1436 -0.4690
  106MOL   H12738137   1.337   0.251   0.851  1.9124 -1.1517 -1.8698
  106MOL   C12838138   1.437   7.826   0.806 -0.0675  0.1220 -0.4226
  106MOL   O12938139   1.416   7.842   0.685 -0.2372  0.1776 -0.3784
  106MOL   C13038140   1.504   7.698   0.856  0.0868 -0.5600  0.2400
  106MOL   C13138141   1.586   7.723   0.980 -0.6047  0.5573  0.1412
  106MOL   C13238142   1.710   7.808   0.965  0.6826  0.4038  0.5188
  106MOL   C13338143   1.819   7.745   0.889 -0.1279  0.2440 -0.4745
  106MOL   C13438144   1.940   7.824   0.918 -0.3637  0.1373  0.6477
  106MOL   O13538145   2.004   7.803   1.041  0.2445  0.3579  0.0845
  106MOL   H13638146   1.560   7.658   0.771 -1.9831 -1.6984 -0.6191
  106MOL   H13738147   1.413   7.639   0.864 -1.0004  1.0270 -0.1599
  106MOL   H13838148   1.613   7.629   1.028  1.2598 -0.0086 -1.9165
  106MOL   H13938149   1.520   7.766   1.054  0.5432  0.9089  0.9752
  106MOL   H14038150   1.746   7.830   1.065  2.1349 -0.5720  0.2138
  106MOL   H14138151   1.686   0.064   0.930  0.7319 -0.3472 -1.7495
  106MOL   H14238152   1.789   7.735   0.785  0.5869 -4.0418 -0.3569
  106MOL   H14338153   1.835   7.642   0.920  2.3680  0.4603 -0.9011
  106MOL   H14438154   2.012   7.802   0.840  0.6221  2.0916  0.9667
  106MOL   H14538155   1.905   0.082   0.900 -0.3765  0.0483  0.1699
  106MOL   C14638156   2.025   0.069   1.109 -0.3618 -0.5075  0.5913
  106MOL   O14738157   1.991   0.183   1.079 -0.3919 -0.6419 -0.1498
  106MOL   C14838158   2.106   0.036   1.239 -0.1187  0.1717 -0.4608
  106MOL   C14938159   2.197   0.153   1.275  0.1749  0.0444 -0.4561
  106MOL   C15038160   2.326   0.160   1.189  0.0135  0.6210 -0.0998
  106MOL   C15138161   2.413   0.276   1.241 -0.1223  0.2748 -0.3251
  106MOL   C15238162   2.561   0.265   1.201 -0.9924  0.0915  0.1233
  106MOL   O15338163   2.636   0.363   1.283  0.1749  0.1010  0.7184
  106MOL   H15438164   2.173   7.801   1.204 -1.6415 -1.2091 -0.2864
  106MOL   H15538165   2.033   0.006   1.314  0.1913  0.2898 -0.1148
  106MOL   H15638166   2.211   0.144   1.383 -0.2085  0.4933 -0.3666
  106MOL   H15738167   2.152   0.253   1.277 -0.6357 -0.3295  0.7042
  106MOL   H15838168   2.298   0.176   1.085  0.8006  1.1815 -0.2346
  106MOL   H15938169   2.372   0.063   1.172  0.7998  0.3197  3.3482
  106MOL   H16038170   2.403   0.284   1.349 -2.2061  3.5741 -0.6610
  106MOL   H16138171   2.374   0.369   1.199  2.4232  2.2055  1.4665
  106MOL   H16238172   2.601   0.166   1.220 -1.3848 -0.1624 -0.3728
  106MOL   H16338173   2.573   0.289   1.095  2.8482 -0.0982  0.4290
  106MOL   C16438174   2.749   0.421   1.240  0.6430  0.7793  0.4068
  106MOL   O16538175   2.802   0.412   1.133  0.2661 -0.3786  0.1130
  106MOL   C16638176   2.815   0.503   1.343 -0.2735  0.0528 -1.1504
  106MOL   C16738177   2.968   0.543   1.321  0.2238 -0.3122 -0.7425
  106MOL   C16838178   3.025   0.577   1.461  0.2151 -0.5019 -0.4392
  106MOL   C16938179   3.174   0.589   1.460  0.3367  0.0605  0.0685
  106MOL   C17038180   3.246   0.551   1.595  0.9741  0.2337 -0.6236
  106MOL   O17138181   3.235   0.411   1.612 -0.2817 -0.0719  0.3748
  106MOL   H17238182   2.801   0.443   1.433  4.0008 -1.0559 -1.0902
  106MOL   H17338183   2.764   0.598   1.361  1.0143  0.4971  0.3136
  106MOL   H17438184   2.984   0.622   1.247  1.5758  1.2548  1.1844
  106MOL   H17538185   3.035   0.462   1.291  1.8290  0.2676  1.2167
  106MOL   H17638186   2.994   0.507   1.538 -0.5016  1.2082  0.8688
  106MOL   H17738187   2.978   0.670   1.492 -0.1935 -0.7677 -0.2578
  106MOL   H17838188   3.187   0.693   1.430 -1.4843  0.7666  1.6211
  106MOL   H17938189   3.216   0.527   1.381  0.0822 -0.2172  0.1513
  106MOL   H18038190   3.351   0.583   1.599  1.1958 -0.4604 -0.7651
  106MOL   H18138191   3.195   0.614   1.668 -0.8259 -1.9986  0.1076
  106MOL   C18238192   3.230   0.362   1.734 -0.2865  0.2607  0.1224
  106MOL   O18338193   3.226   0.425   1.835  0.0531  0.0357 -0.1524
  106MOL   C18438194   3.221   0.212   1.739  0.4504  0.2791  0.0933
  106MOL   C18538195   3.252   0.135   1.867 -0.1517 -0.2462  0.4983
  106MOL   C18638196   3.134   0.144   1.974 -0.1311 -1.1327 -0.3490
  106MOL   C18738197   3.017   0.046   1.947  0.7709  0.7255 -0.1055
  106MOL   C18838198   2.895   0.092   2.035  0.5279  0.4392 -0.1542
  106MOL   O18938199   2.801   7.839   2.024 -0.0693  0.3665  0.1875
  106MOL   H19038200   3.296   0.178   1.668 -1.2125 -1.4479 -0.8987
  106MOL   H19138201   3.123   0.183   1.700 -0.4102 -0.8178  2.9097
  106MOL   H19238202   3.341   0.180   1.912 -0.2170  1.6668 -1.2211
  106MOL   H19338203   3.280   0.031   1.852  0.2209 -0.1119  0.2372
  106MOL   H19438204   3.100   0.248   1.975 -1.1063 -1.4511 -0.1892
  106MOL   H19538205   3.177   0.129   2.072  0.4098  0.8745 -0.2533
  106MOL   H19638206   3.053   7.793   1.983 -0.2327  0.5214  0.3576
  106MOL   H19738207   2.997   0.030   1.841 -1.3723  0.9693  0.2379
  106MOL   H19838208   2.914   0.117   2.139 -0.7376 -0.1651  0.2287
  106MOL   H19938209   2.848   0.184   1.999  1.0152  0.1815 -1.4892
  106MOL   C20038210   2.686   0.008   2.095 -0.0411  0.2797  0.1487
  106MOL   O20138211   2.657   0.107   2.163  0.2651 -0.2340  0.8602
  106MOL   C20238212   2.592   7.735   2.079 -1.1763  0.2998  0.1050
  106MOL   C20338213   2.531   7.678   2.206  0.8118 -0.2054  0.5506
  106MOL   C20438214   2.641   7.623   2.307  0.0459  0.2278  0.0102
  106MOL   C20538215   2.680   7.485   2.270  0.3617 -0.0572  1.1298
  106MOL   C20638216   2.799   7.434   2.358  0.2183 -0.0260 -0.2341
  106MOL   O20738217   2.738   7.399   2.480 -0.6133  0.0942 -0.6317
  106MOL   H20838218   2.634   7.658   2.014 -0.0416 -0.2999  1.5315
  106MOL   H20938219   2.514   7.772   2.013  0.4643  2.0846 -0.8827
  106MOL   H21038220   2.451   7.607   2.185  0.6418 -0.2019  1.1735
  106MOL   H21138221   2.482   7.758   2.262  1.0368  0.9619 -0.8976
  106MOL   H21238222   2.587   7.618   2.402 -1.3789  0.0202 -0.7993
  106MOL   H21338223   2.732   7.681   2.319 -0.7634  1.0980  2.2256
  106MOL   H21438224   2.704   7.468   2.165 -0.2927  0.3407  0.9131
  106MOL   H21538225   2.604   7.410   2.290  0.2246  0.0160  0.8770
  106MOL   H21638226   2.836   7.341   2.313  0.4362 -0.6550  1.2037
  106MOL   H21738227   2.880   7.505   2.374 -0.0337  0.6603 -1.9125
  106MOL   C21838228   2.822   7.363   2.587  0.3099 -0.3860 -0.1030
  106MOL   O21938229   2.945   7.359   2.580 -0.4838  0.5284 -0.3631
  106MOL   C22038230   2.739   7.334   2.715  0.1862  0.9018 -0.5029
  106MOL   C22138231   2.669   7.458   2.771  0.7758  0.0146  0.3739
  106MOL   C22238232   2.544   7.502   2.698  0.3553  0.4494 -0.2714
  106MOL   C22338233   2.511   7.643   2.724 -0.5142 -0.0835  0.1528
  106MOL   C22438234   2.370   7.677   2.681  0.4060  0.5096  0.0821
  106MOL   O22538235   2.337   7.802   2.728  0.0755  0.0043  1.0704
  106MOL   H22638236   2.817   7.296   2.782  1.6982  0.8523 -2.2354
  106MOL   H22738237   2.671   7.249   2.719  0.8437  0.4078  0.5978
  106MOL   H22838238   2.742   7.540   2.761  0.4378  0.3168  0.3722
  106MOL   H22938239   2.637   7.445   2.874  2.9177 -0.3871  1.0192
  106MOL   H23038240   2.460   7.434   2.711  1.2928 -0.2953  2.3365
  106MOL   H23138241   2.568   7.484   2.593  2.3195 -0.3096  0.2885
  106MOL   H23238242   2.577   7.715   2.676 -1.8643  0.8920 -0.2740
  106MOL   H23338243   2.531   7.667   2.829  3.0535 -1.2976 -0.1727
  106MOL   H23438244   2.364   7.673   2.572  1.1130 -2.0996  0.1162
  106MOL   H23538245   2.304   7.598   2.717  0.8111  0.0832 -0.1090
  106MOL   C23638246   2.215   0.006   2.703 -0.2867  0.7441  0.0481
  106MOL   O23738247   2.134   7.794   2.624 -0.0645 -0.4853  0.6042
  106MOL   C23838248   2.182   0.133   2.770 -0.5066  0.1475  0.1108
  106MOL   C23938249   2.191   0.254   2.670  0.1196  0.2493  0.0281
  106MOL   C24038250   2.160   0.391   2.728  0.1119 -0.5385  0.6889
  106MOL   C24138251   2.011   0.417   2.760  0.7953 -0.3490 -0.2908
  106MOL   C24238252   1.988   0.555   2.824 -0.3921 -0.4168  0.1246
  106MOL   O24338253   1.847   0.590   2.797 -0.1204  0.6823  0.7177
  106MOL   H24438254   2.246   0.146   2.857 -0.1456  0.3665 -0.1896
  106MOL   H24538255   2.079   0.130   2.806  0.0068 -0.8374  1.5061
  106MOL   H24638256   2.135   0.240   2.577  0.0634  1.3695 -0.1047
  106MOL   H24738257   2.297   0.260   2.642  0.1731 -1.6488 -0.2462
  106MOL   H24838258   2.189   0.475   2.664  1.4952 -0.8103  0.9330
  106MOL   H24938259   2.218   0.404   2.819 -0.6632  1.2032  0.9657
  106MOL   H25038260   1.972   0.346   2.832 -1.8186  0.4239 -0.9137
  106MOL   H25138261   1.950   0.420   2.670  0.8255  0.2917 -0.2912
  106MOL   H25238262   2.007   0.557   2.932  3.1814 -1.4521 -0.4246
  106MOL   H25338263   2.055   0.629   2.780 -1.5720  1.3314  1.2337
  106MOL   C25438264   1.808   0.711   2.838 -0.0694  0.0535 -0.1965
  106MOL   O25538265   1.876   0.797   2.885 -0.4669 -0.4637 -0.0996
  106MOL   C25638266   1.652   0.729   2.831 -0.2491 -0.3730 -0.3994
  106MOL   C25738267   1.601   0.776   2.696  0.0362 -0.7968  0.4327
  106MOL   C25838268   1.455   0.810   2.679  0.8024  0.0512  0.4626
  106MOL   C25938269   1.401   0.829   2.536  0.4090 -0.5511  0.1308
  106MOL   C26038270   1.434   0.970   2.473 -0.2545  0.2657 -0.2026
  106MOL   O26138271   1.359   0.951   2.351  0.3555 -0.5110 -0.7130
  106MOL   H26238272   1.615   0.800   2.906  0.5238 -2.0511  1.6074
  106MOL   H26338273   1.615   0.628   2.848  3.3393 -1.5286  1.0556
  106MOL   H26438274   1.636   0.702   2.623  1.3749 -1.0837  1.3362
  106MOL   H26538275   1.661   0.864   2.675  0.7703 -1.3757  0.0824
  106MOL   H26638276   1.449   0.907   2.729 -1.4994  0.6478 -0.9392
  106MOL   H26738277   1.397   0.735   2.734  0.7294 -1.8751 -2.1588
  106MOL   H26838278   1.294   0.811   2.545  0.1686  0.2175 -1.0540
  106MOL   H26938279   1.456   0.765   2.466  0.7919 -0.3862  0.2798
  106MOL   H27038280   1.389   1.052   2.529  1.8012  1.8739 -0.8529
  106MOL   H27138281   1.537   1.004   2.470 -1.1843  3.1737 -2.2265
  106MOL   C27238282   1.360   1.052   2.263 -0.6408  0.1903 -0.0687
  106MOL   O27338283   1.446   1.135   2.242 -0.5046 -0.3110 -0.0551
  106MOL   C27438284   1.236   1.048   2.172  0.4488 -0.2558  0.0430
  106MOL   C27538285   1.153   1.179   2.201  0.1935  0.1047  0.0850
  106MOL   C27638286   1.086   1.168   2.342 -0.3436 -0.3748 -0.4656
  106MOL   C27738287   0.970   1.277   2.354 -0.2626  0.6905 -0.3585
  106MOL   C27838288   0.918   1.286   2.500 -0.2011  0.2776 -0.3058
  106MOL   O27938289   0.806   1.378   2.508  0.0546 -0.2539 -0.2793
  106MOL   H28038290   1.176   0.958   2.184 -0.9809  0.8801  1.5236
  106MOL   H28138291   1.253   1.045   2.064 -0.2530  1.5259 -0.1261
  106MOL   H28238292   1.086   1.181   2.115  0.8635 -0.9287 -0.4653
  106MOL   H28338293   1.210   1.271   2.197 -0.9014  0.7334 -1.6276
  106MOL   H28438294   1.155   1.177   2.427 -1.5875  1.7340  0.3581
  106MOL   H28538295   1.044   1.068   2.351  2.4959 -1.7302 -1.6627
  106MOL   H28638296   0.888   1.261   2.283  0.5091  2.3185 -1.6440
  106MOL   H28738297   1.014   1.373   2.329 -1.4176  0.6628 -2.5889
  106MOL   H28838298   0.885   1.190   2.538 -1.7042  0.3215 -1.4082
  106MOL   H28938299   0.991   1.328   2.569  0.6856  0.7472 -1.5052
  106MOL   C29038300   0.746   1.406   2.620 -0.1989 -0.1332 -0.0547
  106MOL   O29138301   0.786   1.367   2.733  0.1728  0.1170 -0.2863
  106MOL   C29238302   0.639   1.508   2.604  0.3314  0.1595 -0.2179
  106MOL   C29338303   0.695   1.657   2.646 -0.1831 -0.0990 -0.7480
  106MOL   C29438304   0.680   1.696   2.794 -0.2433  0.3924  0.4518
  106MOL   C29538305   0.727   1.838   2.817  0.1664 -0.6513  0.1963
  106MOL   C29638306   0.711   1.886   2.960 -0.2096 -0.3109 -0.1848
  106MOL   O29738307   0.573   1.900   2.991 -0.2851  0.7646 -0.3232
  106MOL   H29838308   0.560   1.490   2.677  1.7587  1.7095  1.7840
  106MOL   H29938309   0.598   1.514   2.503  0.6229  0.9209 -0.2955
  106MOL   H30038310   0.638   1.725   2.582 -0.4093  0.8834  0.4778
  106MOL   H30138311   0.798   1.662   2.611 -0.1431  1.0610 -0.4644
  106MOL   H30238312   0.742   1.623   2.845 -1.0984 -0.3969  0.3677
  106MOL   H30338313   0.578   1.679   2.827 -0.1040  1.9377  1.6962
  106MOL   H30438314   0.693   1.905   2.738  1.5645 -0.8997 -0.6453
  106MOL   H30538315   0.835   1.823   2.806  0.1121 -0.3272 -0.7879
  106MOL   H30638316   0.761   1.819   3.030  0.7223 -0.4027 -0.9235
  106MOL   H30738317   0.753   1.985   2.977  0.5047 -1.0338  2.4640
  106MOL   C30838318   0.533   1.968   3.096  0.1051  0.4200 -1.4351
  106MOL   O30938319   0.605   2.021   3.181  0.2814 -0.5984 -0.1900
  106MOL   C31038320   0.378   1.977   3.094  0.2222 -0.0811 -0.3800
  106MOL   C31138321   0.295   1.850   3.111  0.4697  0.3129 -1.3681
  106MOL   C31238322   0.333   1.760   3.232 -0.0144 -0.3458 -0.3832
  106MOL   C31338323   0.315   1.837   3.371 -0.5474  0.2712  0.1868
  106MOL   C31438324   0.410   1.789   3.473  0.1186  0.6208 -0.0084
  106MOL   O31538325   0.550   1.790   3.443 -0.5146  0.1266 -0.1421
  106MOL   H31638326   0.358   2.023   2.996 -0.8664 -1.7663 -0.9610
  106MOL   H31738327   0.362   2.049   3.174  2.2426 -0.7623  0.6603
  106MOL   H31838328   0.294   1.783   3.025  3.2747 -1.5423 -0.0449
  106MOL   H31938329   0.193   1.886   3.118  0.2079 -0.8533  1.6192
  106MOL   H32038330   0.436   1.733   3.210 -0.6300 -2.0688 -1.1861
  106MOL   H32138331   0.278   1.666   3.235  0.6568 -0.7210  0.3744
  106MOL   H32238332   0.213   1.844   3.408 -1.2333  0.9207 -1.7695
  106MOL   H32338333   0.354   1.935   3.343  1.0751 -0.3708  0.1515
  106MOL   H32438334   0.390   1.849   3.562 -0.6752  1.8058 -0.9796
  106MOL   H32538335   0.382   1.684   3.488 -0.9301  0.6673 -1.5488
  106MOL   C32638336   0.636   1.875   3.503  0.0249  0.7254  0.3723
  106MOL   O32738337   0.603   1.972   3.570  0.1487  0.8266  0.1004
  106MOL   C32838338   0.775   1.836   3.467  0.4669  0.3990 -0.8711
  106MOL   C32938339   0.841   1.740   3.566 -0.1654 -1.1978  0.4924
  106MOL   C33038340   0.899   1.808   3.697  0.5713 -0.1207  0.6570
  106MOL   C33138341   1.007   1.911   3.679 -0.0919 -0.4547 -0.2826
  106MOL   C33238342   0.973   2.029   3.766  0.5033 -0.5906 -0.4159
  106MOL   O33338343   0.864   2.100   3.721  0.5075 -0.1548 -0.0661
  106MOL   H33438344   0.834   1.927   3.461  3.0534 -1.0205  1.6818
  106MOL   H33538345   0.779   1.779   3.375 -1.7818  1.2579 -1.5240
  106MOL   H33638346   0.927   1.695   3.516  1.4557 -0.4655  2.5680
  106MOL   H33738347   0.774   1.659   3.594 -0.2161 -1.2451  0.2352
  106MOL   H33838348   0.935   1.725   3.758  1.0823  0.8298  1.6551
  106MOL   H33938349   0.813   1.840   3.755  0.5776  1.4067 -0.1541
  106MOL   H34038350   1.020   1.942   3.576 -0.3810 -0.3622 -0.2933
  106MOL   H34138351   1.106   1.867   3.694  0.3334  0.3673 -0.6304
  106MOL   H34238352   0.954   1.992   3.867 -2.7397 -1.1139 -1.1610
  106MOL   H34338353   1.065   2.085   3.779  0.6088 -1.1272  1.3945
  106MOL   C34438354   0.824   2.221   3.789  0.3573  0.0121  0.1083
  106MOL   O34538355   0.883   2.258   3.890 -0.3721  0.4380  0.6486
  106MOL   C34638356   0.704   2.297   3.736 -0.1109 -0.0888 -0.7244
  106MOL   C34738357   0.618   2.363   3.859 -0.5999 -0.2667  0.6404
  106MOL   C34838358   0.682   2.497   3.904 -0.4022 -0.0812  0.3378
  106MOL   C34938359   0.589   2.576   3.997  0.6752  0.0750  0.5216
  106MOL   C35038360   0.651   2.703   4.060 -0.5171  0.5551 -0.0025
  106MOL   O35138361   0.561   2.778   4.138  0.2388 -0.4376 -0.1183
  106MOL   H35238362   0.654   2.205   3.705  0.1752 -1.0175  1.4884
  106MOL   H35338363   0.727   2.362   3.652  0.2509 -0.9762 -1.3235
  106MOL   H35438364   0.583   2.283   3.925 -0.3928 -1.7251 -0.9626
  106MOL   H35538365   0.522   2.398   3.822 -1.3600 -0.4377  2.3987
  106MOL   H35638366   0.717   2.550   3.815  0.8754  2.4779  2.2869
  106MOL   H35738367   0.771   2.464   3.958 -1.2163 -2.3739  0.3192
  106MOL   H35838368   0.555   2.507   4.074 -1.9874  2.4806  1.5841
  106MOL   H35938369   0.498   2.599   3.940 -0.1952 -1.0575  1.4418
  106MOL   H36038370   0.720   2.677   4.140  0.6078  1.0971 -0.7813
  106MOL   H36138371   0.704   2.761   3.985 -0.1650  0.2957  0.0441
  106MOL   H36238372   0.593   2.867   4.134 -0.7672  0.0141  1.4333
  107MOL     C138373   7.412   4.142   4.995 -0.0418 -0.0804 -0.0548
  107MOL     O238374   7.464   4.167   4.886  0.6569  0.3803 -0.2823
  107MOL     C338375   7.408   4.259   5.095  0.3120 -0.3434  1.6971
  107MOL     C438376   7.357   4.393   5.040  0.2447 -0.2156  0.6178
  107MOL     C538377   7.233   4.394   4.949 -0.4465  0.9590  0.0996
  107MOL     C638378   7.223   4.531   4.889 -0.4009 -0.7521 -0.3656
  107MOL     C738379   7.095   4.543   4.814 -0.2961 -0.5676  0.6603
  107MOL     O838380   7.076   4.680   4.794  0.4881 -0.8304  0.3135
  107MOL     H938381   7.513   4.270   5.124  0.6659 -0.7761  0.5961
  107MOL    H1038382   7.349   4.241   5.185 -1.4537  0.2217  0.6867
  107MOL    H1138383   7.441   4.433   4.983  0.7188 -3.9342 -1.4879
  107MOL    H1238384   7.337   4.465   5.119  1.3803 -0.6474  1.3115
  107MOL    H1338385   7.144   4.366   5.005 -0.3067 -0.4678 -0.3740
  107MOL    H1438386   7.242   4.334   4.859  1.1528 -1.1518  1.6167
  107MOL    H1538387   7.316   4.543   4.834 -0.8883 -1.9113 -1.4644
  107MOL    H1638388   7.226   4.601   4.972 -2.4211 -1.7653  0.6164
  107MOL    H1738389   7.119   4.493   4.720  0.6071  0.7149  0.1975
  107MOL    H1838390   7.005   4.496   4.853  0.0960 -2.9982 -1.2234
  107MOL    H1938391   7.384   4.045   5.037  0.0251  0.6887  1.7993
  107MOL    C2038392   6.943   4.721   4.763  0.0904  0.3408  0.3681
  107MOL    O2138393   6.852   4.639   4.750  0.1641  0.0627  0.3566
  107MOL    C2238394   6.926   4.873   4.769 -0.0066  0.0145 -0.5622
  107MOL    C2338395   7.018   4.966   4.692 -0.5074  0.4191  0.1676
  107MOL    C2438396   7.148   4.979   4.776  0.0535  0.1747 -0.4675
  107MOL    C2538397   7.259   5.054   4.706 -0.1236  0.0685  0.2797
  107MOL    C2638398   7.381   5.055   4.798 -1.0137 -0.0719 -0.2238
  107MOL    O2738399   7.443   4.926   4.797 -0.1972 -0.7751 -0.5330
  107MOL    H2838400   6.938   4.902   4.873  2.8042 -0.1050 -0.8088
  107MOL    H2938401   6.823   4.896   4.743 -0.2386 -0.2476  0.1355
  107MOL    H3038402   6.965   5.061   4.684 -1.7102 -0.1782  0.8395
  107MOL    H3138403   7.051   4.930   4.595  0.1997  3.5433 -0.8083
  107MOL    H3238404   7.191   4.884   4.807  0.7345 -0.5301 -3.4337
  107MOL    H3338405   7.132   5.037   4.866 -1.8827 -0.9116 -0.0847
  107MOL    H3438406   7.226   5.157   4.691 -2.4419 -0.6562  0.1809
  107MOL    H3538407   7.292   5.014   4.610 -0.4592 -0.6766  0.4703
  107MOL    H3638408   7.448   5.138   4.774  0.6045 -1.1306  0.5398
  107MOL    H3738409   7.351   5.081   4.899 -1.4353 -0.7040 -0.1859
  107MOL    C3838410   7.557   4.895   4.863  0.5865  0.5967 -0.2303
  107MOL    O3938411   7.625   4.979   4.925 -0.0025 -0.4688  0.0518
  107MOL    C4038412   7.581   4.741   4.879 -0.1545  0.3819  0.4088
  107MOL    C4138413   7.725   4.710   4.923 -0.5795 -0.4973  0.0511
  107MOL    C4238414   7.748   4.561   4.923  0.6249  0.3503  0.1825
  107MOL    C4338415   0.051   4.536   4.966  0.7139 -0.4295  0.8362
  107MOL    C4438416   0.082   4.387   4.954  0.0251  0.1635 -0.2467
  107MOL    O4538417   0.223   4.363   4.928 -0.1772  0.1526 -0.0422
  107MOL    H4638418   7.561   4.694   4.782  0.5630 -0.9197  0.8778
  107MOL    H4738419   7.506   4.691   4.941  0.7851 -1.8144 -0.1681
  107MOL    H4838420   7.738   4.738   5.027 -0.5398 -1.9560  0.4479
  107MOL    H4938421   7.801   4.763   4.867 -0.9331  0.2242  0.2466
  107MOL    H5038422   7.727   4.514   4.827 -0.6147 -1.0655  1.1207
  107MOL    H5138423   7.680   4.507   4.989  0.2237 -1.2423 -1.4918
  107MOL    H5238424   0.086   4.587   5.056  1.4892  1.0302 -0.2745
  107MOL    H5338425   0.110   4.589   4.892  0.6488 -0.0580  1.0477
  107MOL    H5438426   0.041   4.323   5.032 -0.7404  0.4649 -0.3997
  107MOL    H5538427   0.027   4.337   4.875  0.3049 -4.0529  2.0347
  107MOL    C5638428   0.312   4.351   5.027 -0.2529  0.3194  0.4425
  107MOL    O5738429   0.291   4.355   5.152  0.1557  0.0894 -0.4282
  107MOL    C5838430   0.456   4.331   4.983  0.4737  0.3709  0.1155
  107MOL    C5938431   0.531   4.196   5.012 -0.2590  0.5605 -0.3403
  107MOL    C6038432   0.549   4.158   5.161 -0.0771  0.1036  0.4070
  107MOL    C6138433   0.650   4.244   5.237 -0.2451  0.3343  0.0230
  107MOL    C6238434   0.635   4.249   5.391 -0.5241  0.2006 -0.1473
  107MOL    O6338435   0.652   4.119   5.455 -0.4003  0.3613  0.6327
  107MOL    H6438436   0.513   4.410   5.032  2.3741  0.5513 -2.2597
  107MOL    H6538437   0.464   4.347   4.876 -1.6769 -0.9692 -0.2662
  107MOL    H6638438   0.627   4.209   4.962 -1.1005 -0.1719 -2.1985
  107MOL    H6738439   0.476   4.114   4.966  1.5041 -1.2975  0.8277
  107MOL    H6838440   0.597   4.060   5.163  1.2840  0.7644  1.4022
  107MOL    H6938441   0.457   4.149   5.218  1.8414 -1.0215  3.4756
  107MOL    H7038442   0.646   4.346   5.200 -1.3407 -0.1307 -1.1548
  107MOL    H7138443   0.752   4.214   5.214 -1.2898 -1.8046 -1.9799
  107MOL    H7238444   0.702   4.323   5.435 -0.6634  0.1933  0.0840
  107MOL    H7338445   0.538   4.296   5.409  0.0260  0.9246  1.0290
  107MOL    C7438446   0.556   4.065   5.537  0.8017  0.5567  0.7305
  107MOL    O7538447   0.452   4.125   5.572  0.2429  0.1718  0.0157
  107MOL    C7638448   0.587   3.925   5.584 -0.3918  0.3271 -0.3984
  107MOL    C7738449   0.566   3.820   5.468 -0.0646 -0.5872 -0.5768
  107MOL    C7838450   0.425   3.753   5.475  0.3401  0.1809 -0.4375
  107MOL    C7938451   0.327   3.848   5.403 -0.1950  0.1961  0.5810
  107MOL    C8038452   0.187   3.803   5.375  0.2038  0.9061  0.0937
  107MOL    O8138453   0.111   3.906   5.312  0.4165  0.0955  0.3772
  107MOL    H8238454   0.546   3.915   5.684  3.0274 -1.0213  0.9246
  107MOL    H8338455   0.695   3.934   5.596 -0.3113 -2.4672  1.2874
  107MOL    H8438456   0.635   3.736   5.479  0.5094 -0.3814 -2.4310
  107MOL    H8538457   0.577   3.867   5.370  1.7756  0.1981 -0.0037
  107MOL    H8638458   0.395   3.746   5.580  2.4182 -3.4385 -0.0098
  107MOL    H8738459   0.408   3.656   5.427  2.6282  0.2942 -1.5201
  107MOL    H8838460   0.372   3.856   5.304 -1.0680 -0.2170  0.1467
  107MOL    H8938461   0.327   3.946   5.451  1.5845 -0.8800  2.9365
  107MOL    H9038462   0.205   3.713   5.317 -0.0049 -0.3433  1.9385
  107MOL    H9138463   0.134   3.777   5.466 -0.3740 -0.8826 -0.7316
  107MOL    C9238464   0.086   3.895   5.178 -0.3224  0.2630 -0.4450
  107MOL    O9338465   0.109   3.802   5.104  0.5694  0.7049 -0.4432
  107MOL    C9438466   7.844   4.015   5.136 -0.5661 -0.2397  0.0409
  107MOL    C9538467   7.787   4.014   4.993 -0.0355 -0.0619  0.1782
  107MOL    C9638468   0.058   4.026   4.887 -0.0424  0.4102  0.2577
  107MOL    C9738469   0.006   4.022   4.742 -0.5805  0.1303 -0.3665
  107MOL    C9838470   0.111   4.066   4.643  0.3681  0.4422  0.3065
  107MOL    O9938471   0.202   3.964   4.622  0.3896 -0.1597 -0.1731
  107MOL   H10038472   0.057   4.106   5.155  1.7590 -1.6710  0.0413
  107MOL   H10138473   7.757   4.025   5.201 -0.1561 -1.4758  0.7921
  107MOL   H10238474   7.720   4.098   4.979 -1.4924 -1.2114  0.2197
  107MOL   H10338475   7.722   3.929   4.978  0.4000 -0.3364 -0.1464
  107MOL   H10438476   0.131   3.946   4.895 -1.4056 -0.9125 -0.2945
  107MOL   H10538477   0.106   4.122   4.904 -1.4197  1.1898 -0.1508
  107MOL   H10638478   7.772   4.097   4.730  1.3413  1.8702 -2.6157
  107MOL   H10738479   7.799   3.926   4.731 -1.6220  0.0796  4.1358
  107MOL   H10838480   0.061   4.104   4.553  2.1033  1.9908 -0.0191
  107MOL   H10938481   0.182   4.135   4.688  2.6665 -1.4339 -0.3266
  107MOL   C11038482   0.181   3.863   4.536 -0.5601 -0.6370 -0.6404
  107MOL   O11138483   0.094   3.853   4.456  0.6543  0.4302  0.1299
  107MOL   C11238484   0.289   3.753   4.556  0.9151 -0.4668 -0.1768
  107MOL   C11338485   0.298   3.696   4.697  0.1198 -0.8849 -0.9225
  107MOL   C11438486   0.164   3.659   4.768 -0.2459  0.4872 -0.0012
  107MOL   C11538487   0.092   3.531   4.716  0.4282 -0.4770  0.5831
  107MOL   C11638488   7.812   3.496   4.798 -0.5643 -1.1724 -0.6818
  107MOL   O11738489   7.744   3.394   4.729  0.6690  0.2980  0.2542
  107MOL   H11838490   0.388   3.792   4.527  0.1864  0.5347 -1.4153
  107MOL   H11938491   0.273   3.677   4.480 -0.1400 -0.0934 -0.3326
  107MOL   H12038492   0.351   3.765   4.761  1.0425 -1.7190 -0.7692
  107MOL   H12138493   0.349   3.600   4.689  1.3018 -0.1993 -1.6095
  107MOL   H12238494   0.087   3.734   4.754 -0.4942  0.0046 -1.3236
  107MOL   H12338495   0.177   3.647   4.875  2.0653 -0.5927 -0.3607
  107MOL   H12438496   0.161   3.447   4.717 -2.5184 -2.9806  2.5158
  107MOL   H12538497   0.061   3.542   4.612  1.3113 -0.4848  0.3126
  107MOL   H12638498   0.003   3.446   4.888  1.5509  0.0238 -0.8273
  107MOL   H12738499   7.746   3.580   4.822 -0.7152 -1.2004 -0.9922
  107MOL   C12838500   7.636   3.353   4.783  0.9582 -0.2478  0.1188
  107MOL   O12938501   7.591   3.383   4.895 -0.4439 -0.3387 -0.1348
  107MOL   C13038502   7.566   3.246   4.698  0.1897  0.5198 -0.2114
  107MOL   C13138503   7.482   3.280   4.571 -0.1424 -0.6245 -0.7123
  107MOL   C13238504   7.563   3.320   4.446 -0.0036 -0.5811 -0.2130
  107MOL   C13338505   7.485   3.335   4.313 -0.0603 -0.4453  0.5866
  107MOL   C13438506   7.569   3.341   4.183  0.3696 -0.2472 -0.5373
  107MOL   O13538507   7.475   3.364   4.077  0.6280 -0.3371 -0.2108
  107MOL   H13638508   7.511   3.181   4.766  1.8783 -1.1682 -0.3870
  107MOL   H13738509   7.650   3.178   4.678  1.0957  1.0052  1.8010
  107MOL   H13838510   7.403   3.351   4.597  0.4614  0.2630 -1.2322
  107MOL   H13938511   7.434   3.190   4.535 -2.4555 -0.4406  1.8192
  107MOL   H14038512   7.637   3.241   4.428  3.3660  1.8936  2.1890
  107MOL   H14138513   7.625   3.407   4.469  0.2492 -1.1108  1.1741
  107MOL   H14238514   7.436   3.433   4.309  0.9121  0.0568  0.8100
  107MOL   H14338515   7.401   3.265   4.303  0.3271 -0.8257 -0.0421
  107MOL   H14438516   7.637   3.426   4.186 -1.6966  1.5202 -1.7714
  107MOL   H14538517   7.608   3.241   4.166  0.1836 -0.5400  0.7123
  107MOL   C14638518   7.505   3.352   3.943 -0.3621 -0.1273  0.2885
  107MOL   O14738519   7.615   3.319   3.903  0.1023  0.7044 -0.2007
  107MOL   C14838520   7.395   3.391   3.847  0.3666 -0.0013 -0.0409
  107MOL   C14938521   7.372   3.303   3.725 -0.3248  0.2212 -0.2202
  107MOL   C15038522   7.295   3.172   3.749 -0.3962  0.4409 -0.0485
  107MOL   C15138523   7.298   3.076   3.631  0.8084  0.0780 -0.2513
  107MOL   C15238524   7.231   2.942   3.655  0.5562  0.1453 -0.1730
  107MOL   O15338525   7.092   2.959   3.635  0.5650  0.4122  0.9294
  107MOL   H15438526   7.408   3.495   3.816 -1.3364 -0.2799 -1.7804
  107MOL   H15538527   7.308   3.393   3.913  1.4180 -1.0507  1.4249
  107MOL   H15638528   7.467   3.282   3.675  0.2045  1.1021  0.4084
  107MOL   H15738529   7.318   3.368   3.656  1.5753  0.4950 -1.5208
  107MOL   H15838530   7.192   3.197   3.774 -1.0861 -1.0951 -1.2624
  107MOL   H15938531   7.341   3.131   3.839 -0.9332  0.4156  0.2165
  107MOL   H16038532   7.396   3.054   3.589  0.6380 -0.3687 -0.4130
  107MOL   H16138533   7.246   3.120   3.545  1.0899  0.8036 -0.0592
  107MOL   H16238534   7.259   2.879   3.570 -2.2349 -0.6942 -0.5160
  107MOL   H16338535   7.256   2.912   3.756 -0.0790  0.8846  0.2050
  107MOL   C16438536   7.017   2.848   3.611 -0.0228  0.0724 -0.0194
  107MOL   O16538537   7.053   2.730   3.596  0.3049  0.1823 -0.2900
  107MOL   C16638538   6.868   2.883   3.598  0.1611  0.2591  1.0046
  107MOL   C16738539   6.852   3.009   3.514 -0.2272 -0.0462 -0.1452
  107MOL   C16838540   6.878   2.984   3.365  0.6083  0.2097  0.5535
  107MOL   C16938541   6.852   3.103   3.261  0.0350  0.5257 -0.0532
  107MOL   C17038542   6.910   3.057   3.131  0.3233 -0.7767  0.1898
  107MOL   O17138543   6.820   2.971   3.068 -0.1457  0.1687 -0.1572
  107MOL   H17238544   6.834   2.902   3.700 -0.4494  0.3345  0.7885
  107MOL   H17338545   6.813   2.796   3.562  3.5041 -1.5581  0.0380
  107MOL   H17438546   6.917   3.087   3.554  0.4731 -0.8447  0.3039
  107MOL   H17538547   6.747   3.035   3.527  0.0691  0.8846  0.4745
  107MOL   H17638548   6.802   2.912   3.336  0.4799 -0.1814  1.8291
  107MOL   H17738549   6.975   2.937   3.351  0.9196  1.2345 -0.8517
  107MOL   H17838550   6.909   3.192   3.290  2.3130  0.2033 -3.3044
  107MOL   H17938551   6.751   3.143   3.264 -0.4754 -0.8025  2.9013
  107MOL   H18038552   6.930   3.138   3.061 -1.9372  0.6997  1.1915
  107MOL   H18138553   7.004   3.006   3.153  0.1343 -0.0073  2.9650
  107MOL   C18238554   6.708   3.017   3.009 -0.0298 -0.8091 -0.7482
  107MOL   O18338555   6.674   3.133   3.009  0.4688 -0.1500  0.1765
  107MOL   C18438556   6.621   2.904   2.946  0.3413  1.1120  0.5800
  107MOL   C18538557   6.504   2.953   2.860  0.5498 -0.1511  0.3548
  107MOL   C18638558   6.432   2.829   2.786  0.2126 -0.2635  0.1090
  107MOL   C18738559   6.372   2.730   2.882  0.0057  0.3941 -0.5024
  107MOL   C18838560   6.289   2.621   2.811  0.2413 -0.4169  0.2269
  107MOL   O18938561   6.240   2.522   2.910  0.1872 -0.5990  0.2655
  107MOL   H19038562   6.574   2.841   3.022  0.1689 -0.8576 -1.1035
  107MOL   H19138563   6.683   2.837   2.887  0.4668 -0.2480  2.2163
  107MOL   H19238564   6.547   3.029   2.796  4.2377 -1.5967  1.0197
  107MOL   H19338565   6.430   3.011   2.916  0.5007 -1.0728  1.2606
  107MOL   H19438566   6.509   2.778   2.729  1.8279  0.7658  1.3088
  107MOL   H19538567   6.350   2.868   2.726  0.7340  1.3371  0.4102
  107MOL   H19638568   6.308   2.775   2.959 -0.1883 -1.0195  0.1791
  107MOL   H19738569   6.453   2.687   2.941  1.4536  1.5847 -1.6087
  107MOL   H19838570   6.214   2.664   2.744  1.6802  1.5922 -0.1292
  107MOL   H19938571   6.351   2.573   2.736  0.6291 -0.3798  0.5257
  107MOL   C20038572   6.109   2.494   2.916 -0.3390 -0.0406  0.2397
  107MOL   O20138573   6.023   2.508   2.824 -0.1923 -0.3525 -0.5914
  107MOL   C20238574   6.058   2.447   3.050  1.0188  0.7082 -0.5268
  107MOL   C20338575   5.912   2.387   3.057  0.4030  0.5270 -0.5674
  107MOL   C20438576   5.893   2.289   3.172  0.3938 -0.1689 -0.7472
  107MOL   C20538577   5.912   2.361   3.313  0.0981  0.0343  0.4295
  107MOL   C20638578   5.920   2.260   3.428 -0.1426 -0.7756 -0.0090
  107MOL   O20738579   5.943   2.331   3.552 -0.2175  0.2471 -0.0608
  107MOL   H20838580   6.069   2.535   3.113 -0.7310 -0.1316  1.0093
  107MOL   H20938581   6.131   2.373   3.083  0.0486  1.2883  3.1205
  107MOL   H21038582   5.885   2.336   2.965  0.9058  0.3716 -0.6280
  107MOL   H21138583   5.840   2.468   3.063  0.6712  0.7467 -0.2801
  107MOL   H21238584   5.956   2.201   3.162  0.6127 -0.2610  1.1177
  107MOL   H21338585   5.789   2.255   3.177  0.3623 -0.0112 -0.1962
  107MOL   H21438586   5.832   2.434   3.327  1.1724  1.5528 -1.1471
  107MOL   H21538587   6.011   2.407   3.310 -0.4252  1.0868 -1.9043
  107MOL   H21638588   5.823   2.210   3.431 -0.9733  0.7129 -1.1219
  107MOL   H21738589   5.995   2.188   3.396 -0.0292 -0.7547  0.2118
  107MOL   C21838590   5.899   2.276   3.671  0.2346 -0.0166 -0.1801
  107MOL   O21938591   5.831   2.177   3.684  0.2478  0.3678  0.0959
  107MOL   C22038592   5.957   2.345   3.793  0.0984 -0.3736 -0.4871
  107MOL   C22138593   5.950   2.270   3.924  0.6167  0.0044  0.1245
  107MOL   C22238594   6.042   2.152   3.916 -0.2889 -0.1591 -0.7290
  107MOL   C22338595   6.034   2.076   4.051 -0.5097  0.2114  0.6672
  107MOL   C22438596   6.178   2.024   4.090  0.8771  0.3891 -0.0815
  107MOL   O22538597   6.246   1.949   3.982  0.4180 -0.3728  0.4178
  107MOL   H22638598   5.911   2.443   3.805  1.0330  0.0747 -0.5736
  107MOL   H22738599   6.056   2.387   3.774 -0.2170  0.5348 -0.1262
  107MOL   H22838600   5.849   2.229   3.932  1.5267 -2.3163  0.1827
  107MOL   H22938601   5.965   2.339   4.006  1.2153 -0.0860  0.0922
  107MOL   H23038602   6.142   2.189   3.894  0.1386 -1.2777 -0.6802
  107MOL   H23138603   6.013   2.090   3.831 -0.2094 -1.6471  0.3049
  107MOL   H23238604   5.961   1.995   4.050  0.1790 -0.4295  1.5146
  107MOL   H23338605   5.992   2.136   4.132 -2.1517 -1.3107  0.9821
  107MOL   H23438606   6.242   2.105   4.124  1.9174  0.2041 -1.5846
  107MOL   H23538607   6.173   1.957   4.176 -2.2885 -0.9794 -1.2697
  107MOL   C23638608   6.215   1.819   3.967  0.6131 -0.0184  0.3986
  107MOL   O23738609   6.142   1.752   4.037  0.0844 -0.1532 -0.1722
  107MOL   C23838610   6.274   1.755   3.845  0.1266 -0.2043 -0.2482
  107MOL   C23938611   6.284   1.843   3.723 -0.7443  0.2334  0.6519
  107MOL   C24038612   6.152   1.861   3.642 -0.4884  0.3469  0.3337
  107MOL   C24138613   6.168   1.865   3.491  0.4344 -0.2893  0.5708
  107MOL   C24238614   6.033   1.873   3.415  0.7558  0.4209  0.1325
  107MOL   O24338615   6.053   1.897   3.278 -0.1726  0.2496  0.3652
  107MOL   H24438616   6.227   1.660   3.816  0.3418 -0.5928  0.6517
  107MOL   H24538617   6.375   1.724   3.872 -0.3003  0.0571  1.7112
  107MOL   H24638618   6.370   1.806   3.667 -1.3197  0.2967 -0.2790
  107MOL   H24738619   6.330   1.936   3.755  1.6121 -0.1112 -1.6153
  107MOL   H24838620   6.090   1.941   3.684  0.9156  1.0965  0.9994
  107MOL   H24938621   6.094   1.771   3.660 -0.8489  0.6906  0.9364
  107MOL   H25038622   6.225   1.779   3.454  1.5002  0.8906 -0.5661
  107MOL   H25138623   6.229   1.946   3.451  0.1817 -0.9076 -1.1384
  107MOL   H25238624   5.962   1.793   3.436 -0.4444  1.1365 -1.1590
  107MOL   H25338625   5.987   1.964   3.453 -0.0563 -0.3779  1.0962
  107MOL   C25438626   6.032   1.816   3.186  1.0329  0.4336  0.3710
  107MOL   O25538627   5.983   1.702   3.205 -0.3687  0.3073 -0.4869
  107MOL   C25638628   6.069   1.875   3.048  0.4182  1.0741 -0.7239
  107MOL   C25738629   5.942   1.938   2.991 -0.5908 -0.5723  0.4277
  107MOL   C25838630   5.972   2.002   2.856 -0.4353 -0.7028 -0.2983
  107MOL   C25938631   5.842   2.074   2.806  0.8006 -0.4115 -0.3538
  107MOL   C26038632   5.868   2.159   2.679  0.2754  0.1161  0.1861
  107MOL   O26138633   5.749   2.209   2.628  0.2712  0.0804 -0.4221
  107MOL   H26238634   6.101   1.798   2.978  1.7350 -1.4352  2.5069
  107MOL   H26338635   6.144   1.952   3.070  1.4409 -0.4534  1.2994
  107MOL   H26438636   5.915   2.009   3.069  0.8068  2.9130 -2.1316
  107MOL   H26538637   5.861   1.867   2.974 -0.9325 -0.2545  0.7332
  107MOL   H26638638   5.996   1.922   2.787  0.6425 -1.6847  1.1871
  107MOL   H26738639   6.058   2.069   2.854 -1.8157  1.2001  1.4239
  107MOL   H26838640   5.806   2.139   2.885  0.4230 -0.1592 -0.7259
  107MOL   H26938641   5.763   2.001   2.788  0.8386 -0.5448  0.0339
  107MOL   H27038642   5.931   2.244   2.707 -0.2063  1.1132 -1.7054
  107MOL   H27138643   5.930   2.101   2.611 -0.5364  1.3173 -1.5979
  107MOL   C27238644   5.744   2.280   2.522 -0.3470  0.5225  0.2060
  107MOL   O27338645   5.844   2.312   2.456 -0.4411  0.7859  0.4120
  107MOL   C27438646   5.599   2.323   2.490 -0.7611 -0.0170  0.3838
  107MOL   C27538647   5.576   2.397   2.354  0.2243 -0.2969  0.6665
  107MOL   C27638648   5.429   2.442   2.335 -1.0950 -0.2576  0.4949
  107MOL   C27738649   5.393   2.521   2.212 -0.1425 -0.9871  0.2290
  107MOL   C27838650   5.484   2.641   2.196  0.1487  0.4022  0.3959
  107MOL   O27938651   5.446   2.726   2.088  0.1821 -0.1636  0.2153
  107MOL   H28038652   5.547   2.370   2.573 -0.4618  1.9296 -0.4998
  107MOL   H28138653   5.525   2.242   2.483 -1.8821  0.9676  0.6957
  107MOL   H28238654   5.610   2.329   2.275  2.8465 -0.0169  1.4988
  107MOL   H28338655   5.640   2.485   2.349  0.6943 -0.6607  0.1788
  107MOL   H28438656   5.423   2.514   2.416 -1.3028  0.0451  0.2162
  107MOL   H28538657   5.355   2.366   2.359 -1.2297 -1.1821 -2.6298
  107MOL   H28638658   5.290   2.556   2.216 -0.7571 -2.7630  0.7189
  107MOL   H28738659   5.411   2.472   2.116 -1.5569  2.3770 -1.8754
  107MOL   H28838660   5.477   2.700   2.288 -0.3695  0.6164  0.2191
  107MOL   H28938661   5.589   2.612   2.187  0.4122  1.6671 -0.8229
  107MOL   C29038662   5.427   2.859   2.100  0.7796 -0.8645  0.0314
  107MOL   O29138663   5.452   2.919   2.203 -0.0291  0.0259 -0.2979
  107MOL   C29238664   5.383   2.924   1.970 -0.4836  0.2111  0.0769
  107MOL   C29338665   5.339   3.074   1.980  0.5419 -0.1637  0.6076
  107MOL   C29438666   5.275   3.129   1.851  0.9768  0.6526 -0.1767
  107MOL   C29538667   5.169   3.238   1.868 -0.1617 -0.1171 -0.0501
  107MOL   C29638668   5.143   3.302   1.727  0.5103 -0.2133 -0.6333
  107MOL   O29738669   5.035   3.387   1.740  0.0494  0.2051  0.0984
  107MOL   H29838670   5.307   2.861   1.925  0.9668 -0.9925 -0.7601
  107MOL   H29938671   5.465   2.917   1.897  1.2274  2.1547  1.7483
  107MOL   H30038672   5.410   3.145   2.022  0.2720 -0.8203  2.2091
  107MOL   H30138673   5.257   3.066   2.051  0.8331  0.4178  1.0077
  107MOL   H30238674   5.226   3.048   1.796 -1.1890  1.9094 -0.1608
  107MOL   H30338675   5.354   3.172   1.789  0.4730  1.4060 -0.2953
  107MOL   H30438676   5.211   3.310   1.937  1.0044  1.0043 -1.8723
  107MOL   H30538677   5.074   3.207   1.912  1.3215 -2.5013  1.5536
  107MOL   H30638678   5.236   3.350   1.697 -0.1379  0.4845 -1.5614
  107MOL   H30738679   5.124   3.219   1.659 -2.6158 -0.0386 -0.0459
  107MOL   C30838680   4.918   3.351   1.691 -0.3666  0.2784 -0.4527
  107MOL   O30938681   4.882   3.241   1.647  0.0192 -0.8359  0.1940
  107MOL   C31038682   4.805   3.459   1.712 -0.5346  0.1445 -0.1262
  107MOL   C31138683   4.760   3.464   1.858  0.0505 -0.2145 -0.0382
  107MOL   C31238684   4.667   3.352   1.906  0.8406  0.4321 -0.0100
  107MOL   C31338685   4.522   3.331   1.845 -0.0317 -0.5511 -0.3584
  107MOL   C31438686   4.433   3.222   1.908  0.0556  0.6927  0.4600
  107MOL   O31538687   4.500   3.093   1.908 -0.1882 -0.1133 -0.1152
  107MOL   H31638688   4.721   3.445   1.645 -0.0771  1.0095 -0.8857
  107MOL   H31738689   4.846   3.556   1.686  4.0929 -1.4106  0.8050
  107MOL   H31838690   4.710   3.560   1.868 -1.5723 -0.6549 -3.1822
  107MOL   H31938691   4.847   3.461   1.923  0.5213  2.1494 -0.5031
  107MOL   H32038692   4.648   3.369   2.012 -1.8900 -2.0106 -0.0280
  107MOL   H32138693   4.723   3.258   1.905 -0.7755 -0.5609 -0.3892
  107MOL   H32238694   4.521   3.310   1.738  0.7116  0.3825 -0.5688
  107MOL   H32338695   4.465   3.424   1.855 -0.4243 -0.7363 -0.8892
  107MOL   H32438696   4.415   3.234   2.015 -0.0240  1.0721  0.4066
  107MOL   H32538697   4.339   3.208   1.856  1.0261 -0.6539 -0.9718
  107MOL   C32638698   4.494   3.016   1.794  0.9019 -0.3273  0.2441
  107MOL   O32738699   4.432   3.054   1.695 -0.6207  0.2806 -0.1476
  107MOL   C32838700   4.591   2.901   1.806 -0.2605 -0.0020 -0.7549
  107MOL   C32938701   4.734   2.947   1.784 -0.3444  0.0488 -0.6796
  107MOL   C33038702   4.838   2.837   1.768 -0.1563 -0.6123  0.6155
  107MOL   C33138703   4.972   2.904   1.721  0.3395  0.2008 -0.3960
  107MOL   C33238704   5.093   2.804   1.706  0.1126  0.5322  0.0688
  107MOL   O33338705   5.089   2.720   1.813 -0.1263 -0.0699 -0.2996
  107MOL   H33438706   4.560   2.830   1.730  0.0516 -1.3663  0.3705
  107MOL   H33538707   4.574   2.854   1.903 -2.9379  0.9748 -0.7182
  107MOL   H33638708   4.742   3.022   1.863 -2.1070 -1.4209  0.9631
  107MOL   H33738709   4.717   2.994   1.688  2.8578  2.7870 -0.0333
  107MOL   H33838710   4.813   2.759   1.697 -1.7337  0.5032 -0.0796
  107MOL   H33938711   4.857   2.800   1.868 -0.6048 -2.6024 -0.0273
  107MOL   H34038712   4.996   2.973   1.802 -0.3404  0.8144 -0.7130
  107MOL   H34138713   4.949   2.960   1.631 -0.9213 -1.8451 -1.3788
  107MOL   H34238714   5.074   2.757   1.609 -2.5490 -1.2081  1.3760
  107MOL   H34338715   5.190   2.855   1.704 -0.4128  1.5292  0.0461
  107MOL   C34438716   5.163   2.610   1.807 -0.0585 -0.4883 -0.0793
  107MOL   O34538717   5.221   2.573   1.705  0.0617 -0.0159  0.3279
  107MOL   C34638718   5.179   2.533   1.938  0.0140 -0.2271 -0.0655
  107MOL   C34738719   5.045   2.462   1.975 -0.2955  0.2496  0.6981
  107MOL   C34838720   4.920   2.544   2.000 -0.8190 -0.7237 -0.1557
  107MOL   C34938721   4.794   2.465   2.059  0.0804 -0.1906 -0.0739
  107MOL   C35038722   4.689   2.554   2.120 -0.3455  0.2302 -0.4261
  107MOL   O35138723   4.669   2.658   2.022  0.0407 -0.5107  0.7849
  107MOL   H35238724   5.207   2.599   2.020 -1.2143  0.2035  0.0204
  107MOL   H35338725   5.253   2.455   1.923  0.2225  0.0905 -0.6985
  107MOL   H35438726   5.060   2.397   2.061  1.7523  0.2580  0.3847
  107MOL   H35538727   5.034   2.387   1.897  4.6277  0.4825 -0.4087
  107MOL   H35638728   4.907   2.593   1.903 -0.9546  1.8169  1.1165
  107MOL   H35738729   4.934   2.627   2.068 -0.0725  1.0249 -2.4022
  107MOL   H35838730   4.825   2.395   2.136 -0.9705 -0.6367 -0.0430
  107MOL   H35938731   4.746   2.402   1.984 -0.3923 -0.3317  0.3488
  107MOL   H36038732   4.604   2.499   2.159 -0.5170  0.5070 -0.4044
  107MOL   H36138733   4.744   2.600   2.202 -0.0413 -0.5513 -0.1921
  107MOL   H36238734   4.675   2.617   1.938 -0.3903  0.7931  0.0972
  108MOL     C138735   3.038   5.238   0.030 -0.2634  0.1956 -0.1288
  108MOL     O238736   2.948   5.287   0.101 -0.5246  0.2515  0.0118
  108MOL     C338737   3.015   5.199   7.723 -0.2674  0.3587  0.1556
  108MOL     C438738   2.932   5.304   7.650  0.0725 -0.1296 -0.0204
  108MOL     C538739   3.007   5.441   7.639  0.2234 -0.1820 -0.5055
  108MOL     C638740   2.933   5.547   7.550 -0.1164 -0.2040 -0.1615
  108MOL     C738741   2.938   5.521   7.395 -0.3363  0.2376 -0.3831
  108MOL     O838742   3.078   5.536   7.366  0.0151 -0.2094 -0.8916
  108MOL     H938743   2.964   5.104   7.737 -0.7062  0.3058 -1.6892
  108MOL    H1038744   3.108   5.167   7.675 -0.2661 -0.6065  0.7866
  108MOL    H1138745   2.841   5.326   7.705  0.9874  0.7303  1.1793
  108MOL    H1238746   2.905   5.255   7.557 -0.6102 -1.0825  0.6697
  108MOL    H1338747   3.106   5.432   7.595  0.9720 -1.2523  1.3606
  108MOL    H1438748   3.010   5.484   7.739  0.8597 -2.5182  0.5072
  108MOL    H1538749   2.970   5.645   7.577  1.1372 -1.0550  1.2538
  108MOL    H1638750   2.828   5.556   7.579 -0.5525 -1.5831 -1.2021
  108MOL    H1738751   2.900   5.420   7.382  0.7143 -0.5421  2.2664
  108MOL    H1838752   2.886   5.603   7.346 -1.6975 -1.2975 -1.5606
  108MOL    H1938753   3.132   5.200   0.070 -0.8859 -1.2591 -0.0019
  108MOL    C2038754   3.120   5.518   7.245  0.1779  0.5941 -0.1243
  108MOL    O2138755   3.047   5.466   7.158 -0.6743 -0.2228  0.1991
  108MOL    C2238756   3.265   5.554   7.220 -0.2034  0.7685  0.6165
  108MOL    C2338757   3.272   5.698   7.167  1.1293 -0.2405  0.0628
  108MOL    C2438758   3.301   5.802   7.280 -0.1034 -0.4255  0.0376
  108MOL    C2538759   3.360   5.938   7.231 -0.6552 -0.0532  0.0962
  108MOL    C2638760   3.509   5.940   7.188  0.4320  0.4262  0.5431
  108MOL    O2738761   3.525   6.068   7.125 -0.6506 -0.0597 -0.4344
  108MOL    H2838762   3.303   5.475   7.155  1.0183  0.5304  1.5984
  108MOL    H2938763   3.318   5.539   7.314  2.0740  1.6083 -0.5018
  108MOL    H3038764   3.194   5.727   7.097  2.0001  1.2836 -0.3164
  108MOL    H3138765   3.365   5.709   7.112  1.3617 -0.8865  0.3289
  108MOL    H3238766   3.385   5.764   7.338  0.1843  1.2616  0.7899
  108MOL    H3338767   3.214   5.815   7.345  0.2584 -1.3816  0.7283
  108MOL    H3438768   3.347   6.011   7.310  1.4794  0.2976  0.1552
  108MOL    H3538769   3.301   5.964   7.143 -0.5674 -0.7704 -0.1844
  108MOL    H3638770   3.578   5.928   7.271  0.1917  1.3172  0.8727
  108MOL    H3738771   3.534   5.859   7.119  1.5518  1.2668 -0.0421
  108MOL    C3838772   3.650   6.097   7.083 -0.7511 -1.0479  0.3363
  108MOL    O3938773   3.749   6.030   7.115  0.1442 -0.1870 -0.2081
  108MOL    C4038774   3.653   6.224   6.986  0.0536  0.1853  0.8018
  108MOL    C4138775   3.779   6.316   6.995 -0.0299  0.0608 -0.1507
  108MOL    C4238776   3.747   6.459   6.954  0.1436 -0.8020  0.2232
  108MOL    C4338777   3.828   6.576   7.028 -0.4274  0.3336  0.3362
  108MOL    C4438778   3.806   6.717   6.978  0.2483 -0.3355 -0.5211
  108MOL    O4538779   3.918   6.798   7.015 -0.2166  0.5922  0.6419
  108MOL    H4638780   3.565   6.283   7.009 -0.7840 -0.9380  0.5402
  108MOL    H4738781   3.644   6.193   6.882 -0.4605 -1.1792  1.2410
  108MOL    H4838782   3.856   6.276   6.929 -0.5347  0.8956 -1.2694
  108MOL    H4938783   3.801   6.297   7.100 -0.1427 -0.1769 -0.1673
  108MOL    H5038784   3.642   6.482   6.968  0.1246 -0.0795 -0.9795
  108MOL    H5138785   3.767   6.471   6.847  2.9533  1.2049  0.8918
  108MOL    H5238786   3.932   6.550   7.013 -0.3341  1.3619 -0.9483
  108MOL    H5338787   3.806   6.578   7.135  1.3365 -0.5895  0.7294
  108MOL    H5438788   3.805   6.715   6.869 -0.6857  0.5144 -0.5375
  108MOL    H5538789   3.709   6.752   7.013  0.4343  0.9035 -1.1906
  108MOL    C5638790   3.952   6.907   6.955  0.3460  0.0106 -0.2879
  108MOL    O5738791   3.881   6.965   6.869 -0.6739  0.1210 -0.0324
  108MOL    C5838792   4.089   6.947   6.993  0.5154  0.0337 -0.3265
  108MOL    C5938793   4.194   6.845   6.936 -0.5712 -0.0248  0.4025
  108MOL    C6038794   4.338   6.877   6.972  0.2663  0.5329  0.4904
  108MOL    C6138795   4.453   6.798   6.903 -0.6388 -0.0178  0.1392
  108MOL    C6238796   4.593   6.858   6.920  0.0491 -0.1455 -0.6300
  108MOL    O6338797   4.691   6.782   6.855  0.3267 -0.4309 -0.4012
  108MOL    H6438798   4.096   6.952   7.102 -0.6141  1.1177 -0.3025
  108MOL    H6538799   4.114   7.040   6.941 -0.3294  0.2587 -0.3430
  108MOL    H6638800   4.181   6.831   6.829 -0.8300 -1.2881  0.5900
  108MOL    H6738801   4.169   6.745   6.971  1.9288 -0.0589  2.3090
  108MOL    H6838802   4.342   6.894   7.080  1.1388  0.6283  0.4477
  108MOL    H6938803   4.357   6.978   6.936  0.5143  0.0176 -0.8430
  108MOL    H7038804   4.434   6.798   6.796 -1.4654 -0.0725  0.2881
  108MOL    H7138805   4.455   6.693   6.932 -1.8960  0.1760  0.9868
  108MOL    H7238806   4.590   6.962   6.887  2.0963  0.7045  1.6037
  108MOL    H7338807   4.614   6.873   7.027 -0.0918 -1.3794 -0.4267
  108MOL    C7438808   4.774   6.705   6.937 -0.0141 -0.5653  0.2605
  108MOL    O7538809   4.774   6.691   7.060  0.5571  0.9760 -0.5806
  108MOL    C7638810   4.882   6.631   6.859 -0.1373  0.2234  0.1485
  108MOL    C7738811   4.823   6.523   6.759  0.1582 -0.0858 -0.5988
  108MOL    C7838812   4.769   6.395   6.838 -0.6940  0.0179 -0.6045
  108MOL    C7938813   4.735   6.273   6.749 -0.4448  0.2665  0.4917
  108MOL    C8038814   4.652   6.173   6.824  0.4718  0.3673  0.7798
  108MOL    O8138815   4.699   6.148   6.955 -0.1663  0.5871  0.1346
  108MOL    H8238816   4.947   6.590   6.936 -1.5817 -2.2849  0.1118
  108MOL    H8338817   4.938   6.712   6.813  0.2819 -1.0419 -1.6111
  108MOL    H8438818   4.900   6.483   6.692 -0.2244  2.6432 -2.7690
  108MOL    H8538819   4.743   6.568   6.701 -1.1815  1.8127  2.6533
  108MOL    H8638820   4.689   6.426   6.905 -2.8305  1.7865 -3.7799
  108MOL    H8738821   4.855   6.369   6.900  0.1884  0.6314 -1.5383
  108MOL    H8838822   4.826   6.229   6.710 -0.5893  0.2015  0.2228
  108MOL    H8938823   4.691   6.296   6.652 -1.1768 -1.9265  0.2868
  108MOL    H9038824   4.556   6.220   6.846  1.2975  1.7750  1.4870
  108MOL    H9138825   4.646   6.084   6.762 -0.0049  0.9942 -0.0675
  108MOL    C9238826   4.633   6.079   7.042 -0.7319  0.8950 -0.2571
  108MOL    O9338827   4.518   6.054   7.019 -0.3671  0.6929  0.1105
  108MOL    C9438828   4.713   6.073   7.175 -0.2885 -0.5609 -0.1151
  108MOL    C9538829   4.639   6.024   7.304 -0.1118 -0.3756 -0.6022
  108MOL    C9638830   4.749   6.040   7.417  0.0744  0.2424  0.0557
  108MOL    C9738831   4.708   5.944   7.522  0.7077  0.2034 -0.3422
  108MOL    C9838832   4.806   5.951   7.637 -0.2177  0.0813  0.1167
  108MOL    O9938833   4.771   5.847   7.731  0.2499 -0.7104  0.2309
  108MOL   H10038834   4.752   6.169   7.208  0.8562 -0.6476 -1.1721
  108MOL   H10138835   4.802   6.013   7.158  0.0495  0.0487 -0.5195
  108MOL   H10238836   4.613   5.920   7.286  0.1368 -0.6592  0.5735
  108MOL   H10338837   4.544   6.075   7.323  0.8603  1.2100  0.1160
  108MOL   H10438838   4.748   6.142   7.455  5.0735  0.1822  0.7807
  108MOL   H10538839   4.846   6.014   7.373 -0.0319  0.4692 -0.3223
  108MOL   H10638840   4.686   5.841   7.494  0.4893  1.0012 -3.3553
  108MOL   H10738841   4.612   5.980   7.559  0.3726 -0.6165 -0.4013
  108MOL   H10838842   4.899   5.929   7.585 -0.4785 -1.0815  0.1072
  108MOL   H10938843   4.794   6.046   7.689  0.8080  0.4073 -0.2474
  108MOL   C11038844   4.722   5.873   0.008 -0.1195 -0.2276  0.1723
  108MOL   O11138845   4.690   5.988   0.049  0.1796  0.2584 -0.1264
  108MOL   C11238846   4.695   5.746   0.091  0.2296  0.0701  0.4230
  108MOL   C11338847   4.549   5.727   0.140 -0.0406 -0.7927  0.9060
  108MOL   C11438848   4.460   5.689   0.023 -0.0954  0.6215 -0.1480
  108MOL   C11538849   4.327   5.630   0.054 -0.0710  0.0890 -0.6759
  108MOL   C11638850   4.251   5.586   7.771  0.6241 -0.4360 -0.6310
  108MOL   O11738851   4.213   5.686   7.677  0.4146 -0.1176  0.7611
  108MOL   H11838852   4.764   5.751   0.175 -2.0648 -2.1569  2.5342
  108MOL   H11938853   4.727   5.649   0.052  2.3337  1.1526 -0.6014
  108MOL   H12038854   4.518   5.822   0.183 -2.5225 -1.4531  0.6725
  108MOL   H12138855   4.555   5.647   0.214  4.9344 -1.1895  0.1907
  108MOL   H12238856   4.515   5.616   7.808  0.9363  0.0065  1.5375
  108MOL   H12338857   4.437   5.778   7.809  1.8282 -0.2273 -2.2549
  108MOL   H12438858   4.269   5.700   0.113  0.8858  1.5775 -1.4610
  108MOL   H12538859   4.331   5.535   0.107  0.5837  0.5528  0.1146
  108MOL   H12638860   4.308   5.509   7.720  1.0570 -0.0347 -0.7579
  108MOL   H12738861   4.161   5.529   7.792  0.9410  0.3411  3.1144
  108MOL   C12838862   4.277   5.711   7.568 -0.9514 -0.5113  0.0092
  108MOL   O12938863   4.392   5.673   7.544 -0.2008 -0.3353  0.0278
  108MOL   C13038864   4.197   5.793   7.464 -1.1096 -0.2274  0.1897
  108MOL   C13138865   4.278   5.867   7.356  0.0698  0.2029  0.3524
  108MOL   C13238866   4.200   5.921   7.227 -0.0634  0.0942  0.2307
  108MOL   C13338867   4.087   6.019   7.263  0.3859 -0.3764  0.1472
  108MOL   C13438868   4.044   6.120   7.150 -0.1528  0.2460  0.2408
  108MOL   O13538869   4.168   6.184   7.115 -0.0456  0.2483 -0.8861
  108MOL   H13638870   4.121   5.848   7.520 -0.3813  0.2125  0.7520
  108MOL   H13738871   4.134   5.724   7.407 -1.0700 -0.4550  0.4177
  108MOL   H13838872   4.362   5.807   7.322 -0.2430 -0.9883  1.6477
  108MOL   H13938873   4.317   5.960   7.398 -2.3172  1.0004  0.8631
  108MOL   H14038874   4.172   5.839   7.161 -0.7941 -1.4262  2.4032
  108MOL   H14138875   4.276   5.975   7.169 -0.3392 -0.2500 -0.4539
  108MOL   H14238876   4.110   6.080   7.350 -0.2982 -0.2514  0.2477
  108MOL   H14338877   3.996   5.967   7.294  0.5674 -0.3073  0.8221
  108MOL   H14438878   4.006   6.068   7.061 -1.8825  0.9350  0.5633
  108MOL   H14538879   3.964   6.185   7.185 -0.4539 -0.2587  0.4951
  108MOL   C14638880   4.191   6.318   7.151 -1.1121 -0.3388 -0.2989
  108MOL   O14738881   4.112   6.392   7.212 -0.4490  0.5100 -0.0445
  108MOL   C14838882   4.327   6.376   7.108 -0.2837  0.1198 -0.3971
  108MOL   C14938883   4.431   6.363   7.220 -0.1066 -0.1113 -0.7813
  108MOL   C15038884   4.559   6.433   7.193 -0.0890  0.7672 -0.2382
  108MOL   C15138885   4.654   6.420   7.315 -0.2837  0.4516 -0.2438
  108MOL   C15238886   4.800   6.431   7.285 -0.2388  0.3406 -0.7078
  108MOL   O15338887   4.873   6.404   7.403  0.1211  0.4987 -0.1545
  108MOL   H15438888   4.302   6.481   7.099  0.9433  0.4428 -0.1442
  108MOL   H15538889   4.349   6.339   7.007 -0.1180 -1.8107  0.3146
  108MOL   H15638890   4.452   6.260   7.250 -0.0154  0.3052  0.6548
  108MOL   H15738891   4.389   6.405   7.312  0.1782  2.1819 -1.6883
  108MOL   H15838892   4.541   6.538   7.169 -0.4546  1.0093  1.0743
  108MOL   H15938893   4.629   6.399   7.116 -0.2890  3.0875 -1.4891
  108MOL   H16038894   4.645   6.318   7.351  0.1188  0.9334  1.2693
  108MOL   H16138895   4.621   6.488   7.394 -3.3328 -1.0359 -0.1480
  108MOL   H16238896   4.843   6.361   7.212  1.6830 -1.0076  1.6282
  108MOL   H16338897   4.814   6.534   7.254  0.8288  0.5100  0.3037
  108MOL   C16438898   4.977   6.474   7.435 -0.3164 -0.6539  0.3338
  108MOL   O16538899   5.009   6.570   7.368 -0.0469  0.1639  0.8532
  108MOL   C16638900   5.058   6.414   7.545 -0.6237 -0.1139 -1.4846
  108MOL   C16738901   5.160   6.322   7.496  0.1222 -0.3391 -0.6009
  108MOL   C16838902   5.109   6.189   7.453 -0.1942  0.9883 -0.1061
  108MOL   C16938903   5.209   6.079   7.433 -0.3003  0.1852 -0.0677
  108MOL   C17038904   5.149   5.949   7.381  0.4528 -0.1194 -0.3994
  108MOL   O17138905   5.253   5.849   7.382  0.4510  0.6120 -0.6946
  108MOL   H17238906   4.999   6.378   7.629  2.4064  0.8362  1.1581
  108MOL   H17338907   5.115   6.496   7.589  0.3614 -1.5772  0.0339
  108MOL   H17438908   5.226   6.303   7.582 -0.1121  1.2718 -0.0316
  108MOL   H17538909   5.239   6.354   7.428  1.4050  0.2882  1.1350
  108MOL   H17638910   5.063   6.202   7.356 -1.3732 -3.0420 -0.1435
  108MOL   H17738911   5.034   6.157   7.526  0.1590 -0.4734 -0.3823
  108MOL   H17838912   5.263   6.069   7.528 -0.1216  0.4164 -0.1452
  108MOL   H17938913   5.282   6.104   7.356 -1.2887  1.2374 -0.6727
  108MOL   H18038914   5.063   5.924   7.443  1.6696 -0.2550  1.2431
  108MOL   H18138915   5.111   5.978   7.282 -0.5163  2.5156  0.7021
  108MOL   C18238916   5.342   5.844   7.290  0.4984 -0.7493 -0.2619
  108MOL   O18338917   5.348   5.909   7.184 -0.3974  0.4629  0.2360
  108MOL   C18438918   5.445   5.729   7.301 -0.2559  0.1370 -0.1489
  108MOL   C18538919   5.392   5.588   7.277 -0.0934  0.3073  0.4255
  108MOL   C18638920   5.496   5.478   7.278 -0.1800  0.2393  0.0505
  108MOL   C18738921   5.444   5.333   7.272 -0.2021 -0.1881  0.2015
  108MOL   C18838922   5.535   5.213   7.252  0.4007 -0.8318 -0.1206
  108MOL   O18938923   5.457   5.096   7.282  0.0285  0.5491  0.1361
  108MOL   H19038924   5.481   5.726   7.404 -2.6171 -2.0667  0.6503
  108MOL   H19138925   5.526   5.756   7.233 -0.4220  0.2881 -0.2893
  108MOL   H19238926   5.331   5.586   7.186  0.8236 -1.9402 -0.1808
  108MOL   H19338927   5.330   5.567   7.364 -0.4775 -2.0955 -0.3988
  108MOL   H19438928   5.566   5.494   7.360  0.4060 -1.7330 -0.0578
  108MOL   H19538929   5.552   5.497   7.187 -1.9581  1.5928 -0.7903
  108MOL   H19638930   5.371   5.319   7.192 -0.7341 -0.1526  0.6802
  108MOL   H19738931   5.385   5.308   7.360 -2.6023 -3.4328 -2.1645
  108MOL   H19838932   5.578   5.215   7.152 -1.7002  0.8806 -1.0444
  108MOL   H19938933   5.619   5.217   7.320 -1.7325 -1.4394  2.6472
  108MOL   C20038934   5.518   4.979   7.293  0.9733 -0.5315  0.0158
  108MOL   O20138935   5.642   4.962   7.284 -0.2181  0.7751  0.1269
  108MOL   C20238936   5.430   4.858   7.320 -0.3021 -0.0517 -0.1410
  108MOL   C20338937   5.397   4.839   7.467 -0.5460  0.4905 -0.4595
  108MOL   C20438938   5.503   4.765   7.541  0.1085 -0.3009  0.1535
  108MOL   C20538939   5.488   4.758   7.695 -0.3432  0.0256 -0.6136
  108MOL   C20638940   5.575   4.654   7.773  0.1713 -0.0324 -0.0417
  108MOL   O20738941   5.694   4.706   7.820 -0.0676  0.6597 -0.2919
  108MOL   H20838942   5.484   4.771   7.283  2.6513  0.5553  2.5352
  108MOL   H20938943   5.335   4.869   7.268 -0.7432 -1.0082  0.4469
  108MOL   H21038944   5.306   4.779   7.473  0.5542 -0.9290  3.3674
  108MOL   H21138945   5.376   4.937   7.509  0.2966 -0.6261  2.6358
  108MOL   H21238946   5.592   4.825   7.526 -0.0757 -0.3471 -1.1695
  108MOL   H21338947   5.506   4.667   7.493 -2.0662  0.2628 -1.1766
  108MOL   H21438948   5.386   4.732   7.722  0.8764 -1.0201  3.3492
  108MOL   H21538949   5.508   4.856   7.739  4.3977 -1.7499  1.5306
  108MOL   H21638950   5.519   4.604   0.008 -2.1185  1.4211 -0.6926
  108MOL   H21738951   5.588   4.573   7.701  1.2590 -0.5959  0.7703
  108MOL   C21838952   5.691   4.775   0.091  0.1758  0.6125  0.5101
  108MOL   O21938953   5.586   4.795   0.159  0.0353  0.2087  0.1938
  108MOL   C22038954   5.834   4.808   0.141 -0.0282  0.5288 -0.3918
  108MOL   C22138955   5.852   4.955   0.203 -0.0992  0.1151  0.0277
  108MOL   C22238956   5.882   5.059   0.100  0.1535 -0.2306 -0.2160
  108MOL   C22338957   5.879   5.191   0.162  0.1858 -0.4770 -0.9723
  108MOL   C22438958   5.899   5.300   0.061  0.2860  0.2975 -0.3503
  108MOL   O22538959   5.789   5.294   7.810  0.2373 -0.4699 -0.3134
  108MOL   H22638960   5.892   4.800   0.049  0.7128  1.6323 -0.0364
  108MOL   H22738961   5.868   4.739   0.218  1.1695  1.1305 -0.3703
  108MOL   H22838962   5.928   4.966   0.281 -1.0665  0.9879  0.8691
  108MOL   H22938963   5.759   4.982   0.253  0.4956  0.1891  1.1103
  108MOL   H23038964   5.819   5.042   0.013 -0.5112  1.6847 -0.1303
  108MOL   H23138965   5.982   5.035   0.063  0.3469 -2.5190  1.6528
  108MOL   H23238966   5.944   5.201   0.248 -2.0751  1.0177  0.6014
  108MOL   H23338967   5.779   5.206   0.202  0.8664  0.0926  0.5520
  108MOL   H23438968   5.894   5.398   0.108  0.8437 -0.3593  1.1283
  108MOL   H23538969   5.998   5.281   0.018  0.8410  1.8497  0.2071
  108MOL   C23638970   5.804   5.256   7.680  0.5596 -0.5060 -0.4418
  108MOL   O23738971   5.911   5.219   7.627 -0.9410  0.0604  0.1673
  108MOL   C23838972   5.672   5.262   7.601  0.3242  0.4214  0.4026
  108MOL   C23938973   5.545   5.311   7.679 -0.2855 -0.0678 -0.2889
  108MOL   C24038974   5.481   5.186   7.743 -0.3138 -0.0729 -0.8828
  108MOL   C24138975   5.356   5.211   7.831  0.0753  0.5033 -0.3406
  108MOL   C24238976   5.332   5.084   0.076  0.0960  0.1001 -0.2599
  108MOL   O24338977   5.412   5.081   0.192 -0.6161 -0.0005 -0.7550
  108MOL   H24438978   5.653   5.164   7.556 -1.5950  0.8121  0.3436
  108MOL   H24538979   5.681   5.330   7.516  0.8707 -0.4444 -0.2400
  108MOL   H24638980   5.476   5.363   7.612  0.0889 -0.6848 -1.1606
  108MOL   H24738981   5.574   5.385   7.754  1.2774 -0.3198 -0.6098
  108MOL   H24838982   5.557   5.135   7.802  0.3004  0.1961 -1.4338
  108MOL   H24938983   5.460   5.107   7.671  4.6256  0.3966 -3.0286
  108MOL   H25038984   5.276   5.239   7.764 -0.3780  0.8822  0.3539
  108MOL   H25138985   5.362   5.290   0.061  1.0042 -0.3059  0.4676
  108MOL   H25238986   5.230   5.093   0.114 -0.2334 -1.2130 -0.8207
  108MOL   H25338987   5.335   4.986   0.029  0.6475 -0.5787  1.1505
  108MOL   C25438988   5.377   5.009   0.304 -0.2700  0.9308  0.3317
  108MOL   O25538989   5.274   4.950   0.312  0.0860  0.1504  0.9893
  108MOL   C25638990   5.484   4.995   0.416 -0.7052  0.3595 -0.0789
  108MOL   C25738991   5.516   5.136   0.465 -0.2460 -0.0109 -0.7673
  108MOL   C25838992   5.627   5.125   0.575  0.1393 -0.0821  0.6011
  108MOL   C25938993   5.579   5.067   0.712  0.2385 -0.0061  0.7643
  108MOL   C26038994   5.690   5.003   0.791 -0.1227  0.0908 -0.2886
  108MOL   O26138995   5.737   4.902   0.697  0.4767  0.3491 -0.1956
  108MOL   H26238996   5.568   4.944   0.369  0.5742 -0.0217  2.5687
  108MOL   H26338997   5.457   4.922   0.492  2.3296 -1.2789 -0.4687
  108MOL   H26438998   5.436   5.187   0.518  0.4283 -0.4610  0.7013
  108MOL   H26538999   5.550   5.200   0.384  1.1442 -1.2039 -1.1611
  108MOL   H26639000   5.653   5.229   0.594 -1.6565  0.1996  1.6437
  108MOL   H26739001   5.712   5.072   0.532  0.3618 -1.2587  2.4390
  108MOL   H26839002   5.502   4.991   0.705  1.7030 -1.1730 -4.7687
  108MOL   H26939003   5.530   5.147   0.767  2.1096  1.7818 -0.1095
  108MOL   H27039004   5.759   5.087   0.802  0.0826 -0.5315  3.6216
  108MOL   H27139005   5.655   4.962   0.885 -1.9721  0.9153 -0.5937
  108MOL   C27239006   5.854   4.842   0.723 -0.6757 -0.8664  0.5225
  108MOL   O27339007   5.926   4.868   0.820 -0.5298 -0.0260  0.2285
  108MOL   C27439008   5.879   4.729   0.627 -0.0245  0.3845 -0.4657
  108MOL   C27539009   5.785   4.610   0.634  0.2338  0.2009  0.0066
  108MOL   C27639010   5.670   4.619   0.528  0.2144 -0.4265 -0.0831
  108MOL   C27739011   5.566   4.500   0.534 -0.0956  0.1202  0.2017
  108MOL   C27839012   5.427   4.548   0.498 -0.1759  0.3277 -1.1449
  108MOL   O27939013   5.353   4.439   0.440 -0.1186  0.6598 -0.5296
  108MOL   H28039014   5.977   4.695   0.659 -0.4227 -1.8600 -1.5714
  108MOL   H28139015   5.890   4.763   0.524  1.4229  0.2682 -0.3515
  108MOL   H28239016   5.744   4.595   0.734 -0.5490  2.2870  0.0350
  108MOL   H28339017   5.844   4.522   0.610 -2.8254 -1.7006 -0.9181
  108MOL   H28439018   5.706   4.620   0.425 -1.9266  0.4981 -0.8428
  108MOL   H28539019   5.611   4.710   0.540 -0.9766 -1.5873  3.7805
  108MOL   H28639020   5.555   4.463   0.636 -0.5466  0.4115  0.2591
  108MOL   H28739021   5.600   4.420   0.468 -0.4464 -1.4890  1.9273
  108MOL   H28839022   5.391   4.603   0.585 -1.3204 -2.7708  0.4260
  108MOL   H28939023   5.425   4.610   0.408  1.0638 -0.4910 -1.7428
  108MOL   C29039024   5.241   4.399   0.490 -0.1605 -0.3828 -0.6207
  108MOL   O29139025   5.191   4.460   0.589  0.4128  0.3926 -0.1939
  108MOL   C29239026   5.176   4.286   0.422 -0.0109 -0.5800  0.5438
  108MOL   C29339027   5.258   4.181   0.348 -0.1776 -0.5961 -0.1547
  108MOL   C29439028   5.331   4.086   0.448 -0.3479  0.4496  0.1295
  108MOL   C29539029   5.425   3.990   0.369 -0.0097  0.9211 -0.0412
  108MOL   C29639030   5.524   3.908   0.456  0.0429 -0.2870  0.1399
  108MOL   O29739031   5.454   3.839   0.557 -0.1994  0.2676 -0.6243
  108MOL   H29839032   5.108   4.328   0.348  0.1534 -1.5633 -0.1743
  108MOL   H29939033   5.107   4.243   0.495 -1.9112 -0.7012 -1.2680
  108MOL   H30039034   5.333   4.230   0.285 -1.7096  0.5463 -1.1058
  108MOL   H30139035   5.192   4.124   0.283  1.7814 -0.5063 -2.2807
  108MOL   H30239036   5.262   4.021   0.502  0.5096  1.0228  1.9708
  108MOL   H30339037   5.386   4.140   0.526  0.9110 -1.5314  0.6582
  108MOL   H30439038   5.470   4.045   0.287 -1.1280  0.3505 -1.0547
  108MOL   H30539039   5.369   3.911   0.319 -1.5832  1.6391  0.5513
  108MOL   H30639040   5.577   3.840   0.390 -2.8771 -0.6666 -1.9088
  108MOL   H30739041   5.595   3.979   0.498 -1.8938  0.8718  1.5627
  108MOL   C30839042   5.395   3.726   0.533  0.2909  0.2254  0.1582
  108MOL   O30939043   5.395   3.669   0.424  0.2215 -0.4573 -0.6063
  108MOL   C31039044   5.348   3.660   0.667  0.6690  0.6053 -0.8198
  108MOL   C31139045   5.275   3.526   0.639 -0.5941  0.5910  0.3037
  108MOL   C31239046   5.221   3.462   0.770  0.1543  0.4082  0.9464
  108MOL   C31339047   5.151   3.332   0.739  0.0941 -0.5972  0.1653
  108MOL   C31439048   5.108   3.244   0.859 -0.5878 -0.6519 -0.6430
  108MOL   O31539049   5.224   3.210   0.924  0.2348  0.6872  0.0143
  108MOL   H31639050   5.289   3.729   0.726  1.3935  0.4262  0.1202
  108MOL   H31739051   5.432   3.639   0.733  0.6821  2.1200 -0.3242
  108MOL   H31839052   5.340   3.457   0.586  1.3807  1.2907  1.7503
  108MOL   H31939053   5.193   3.558   0.575  0.4605  2.7875 -0.0010
  108MOL   H32039054   5.149   3.527   0.820  0.1755  0.0538  1.4441
  108MOL   H32139055   5.306   3.449   0.837  0.7441  3.9316  1.0120
  108MOL   H32239056   5.219   3.273   0.678 -1.0365 -0.3255 -1.3910
  108MOL   H32339057   5.055   3.341   0.687 -0.3045 -1.9618  0.6508
  108MOL   H32439058   5.055   3.310   0.927  0.1659  0.1434 -0.8291
  108MOL   H32539059   5.050   3.155   0.834 -2.2503  0.5922 -1.3289
  108MOL   C32639060   5.282   3.092   0.898  0.4198 -0.6111  0.8019
  108MOL   O32739061   5.250   3.010   0.812  0.2405  0.5676  0.2237
  108MOL   C32839062   5.398   3.066   0.991 -0.2153 -0.0016 -0.0389
  108MOL   C32939063   5.513   2.998   0.927  0.0151  0.1808  0.0048
  108MOL   C33039064   5.636   3.000   1.017  0.3148  0.4452 -0.6742
  108MOL   C33139065   5.625   2.891   1.128  0.6994  0.2693  0.0764
  108MOL   C33239066   5.742   2.890   1.219 -0.4732 -0.6639  0.2895
  108MOL   O33339067   5.742   2.762   1.277  0.0536  0.2529 -0.2184
  108MOL   H33439068   5.355   3.012   1.075  3.3988 -0.4630  1.6091
  108MOL   H33539069   5.435   3.162   1.026  1.4966 -0.4196 -0.6568
  108MOL   H33639070   5.536   3.043   0.831 -1.2635  0.7895 -0.0295
  108MOL   H33739071   5.490   2.893   0.911  0.1202 -0.0696  1.4136
  108MOL   H33839072   5.653   3.096   1.065 -0.3207 -0.6586  1.8551
  108MOL   H33939073   5.724   2.964   0.963  0.2334 -0.2772 -0.3376
  108MOL   H34039074   5.611   2.799   1.071  0.2271 -0.3627  1.1771
  108MOL   H34139075   5.535   2.893   1.191  0.8579 -1.0244  0.3732
  108MOL   H34239076   5.835   2.921   1.171 -1.3203 -1.3302 -1.8313
  108MOL   H34339077   5.719   2.960   1.299  0.5535 -0.9678  0.8508
  108MOL   C34439078   5.834   2.734   1.358  0.3016  0.3032 -0.3268
  108MOL   O34539079   5.931   2.796   1.387 -0.0015  0.0793  0.0212
  108MOL   C34639080   5.806   2.602   1.432 -0.2033 -0.2963 -0.0807
  108MOL   C34739081   5.897   2.496   1.370  0.7291 -0.6675 -0.3116
  108MOL   C34839082   5.873   2.347   1.416  0.5230  0.5253  0.8333
  108MOL   C34939083   5.742   2.290   1.350  0.1894 -0.1923 -0.0111
  108MOL   C35039084   5.704   2.149   1.407 -0.1300  0.0480  0.0496
  108MOL   O35139085   5.573   2.121   1.367 -0.1262 -0.1021  0.2247
  108MOL   H35239086   5.700   2.577   1.432 -0.3142  0.1709 -0.1949
  108MOL   H35339087   5.824   2.625   1.537  3.1499 -0.2315 -0.6126
  108MOL   H35439088   6.000   2.529   1.385  1.2262 -2.0181 -0.6093
  108MOL   H35539089   5.882   2.494   1.262 -0.7921 -1.1583 -0.1088
  108MOL   H35639090   5.863   2.336   1.524  1.1449 -1.2973  0.7301
  108MOL   H35739091   5.948   2.271   1.393 -0.4049  0.0851 -0.8645
  108MOL   H35839092   5.742   2.284   1.241 -2.0142  0.8792 -0.0952
  108MOL   H35939093   5.664   2.359   1.382 -0.7719 -1.5595  0.6519
  108MOL   H36039094   5.761   2.064   1.371 -0.9093 -0.9262  1.0840
  108MOL   H36139095   5.725   2.146   1.514  1.1634 -1.1208 -0.2296
  108MOL   H36239096   5.514   2.193   1.386  0.5362 -0.1391  2.6216
  109MOL     C139097   4.691   5.665   0.992  0.9200 -0.3870  0.1581
  109MOL     O239098   4.742   5.755   0.919  0.5800 -0.1488 -0.3303
  109MOL     C339099   4.753   5.597   1.117  0.3109  0.9192 -0.7894
  109MOL     C439100   4.889   5.644   1.154  0.4372  0.4939 -0.2441
  109MOL     C539101   5.005   5.583   1.074 -0.4737 -0.6169  0.4223
  109MOL     C639102   5.001   5.426   1.079 -0.4456 -0.1983  0.3815
  109MOL     C739103   5.131   5.361   1.047  0.2423 -0.8467  0.2595
  109MOL     O839104   5.160   5.401   0.910 -0.3469 -0.7786  0.2578
  109MOL     H939105   4.735   5.490   1.128 -0.3794  1.2742  1.7657
  109MOL    H1039106   4.687   5.642   1.191 -1.9826  0.0484 -2.2458
  109MOL    H1139107   4.892   5.618   1.260 -0.5674 -1.8013 -0.7477
  109MOL    H1239108   4.889   5.753   1.157  0.7182  0.4920 -0.1582
  109MOL    H1339109   5.100   5.621   1.110 -0.0448 -0.6037 -0.7165
  109MOL    H1439110   4.996   5.618   0.971 -0.7049  0.1360  0.6927
  109MOL    H1539111   4.929   5.379   1.012 -0.4235 -3.0128  2.2404
  109MOL    H1639112   4.950   5.396   1.170 -1.4589 -0.5792 -0.3012
  109MOL    H1739113   5.214   5.406   1.102  1.7879  0.0651 -2.7298
  109MOL    H1839114   5.135   5.253   1.058  1.6175 -0.9890 -1.4566
  109MOL    H1939115   4.586   5.643   0.974  0.1778  1.1739  2.2763
  109MOL    C2039116   5.257   5.344   0.842  0.5159 -0.0347  0.6674
  109MOL    O2139117   5.317   5.240   0.870 -0.4975 -0.1565 -0.3674
  109MOL    C2239118   5.292   5.422   0.718  0.1050 -0.0413 -0.2642
  109MOL    C2339119   5.368   5.555   0.758  0.3471  0.0282  0.3775
  109MOL    C2439120   5.517   5.525   0.794 -0.2708  0.3379  0.1527
  109MOL    C2539121   5.594   5.516   0.666 -0.0329  0.4350 -0.1698
  109MOL    C2639122   5.741   5.497   0.695  0.5613  0.7878 -0.4295
  109MOL    O2739123   5.817   5.469   0.576 -0.0311  0.0601 -0.1624
  109MOL    H2839124   5.203   5.461   0.670 -0.0510 -1.0215 -0.7839
  109MOL    H2939125   5.362   5.372   0.651  1.0392  2.3170 -1.0776
  109MOL    H3039126   5.329   5.593   0.852 -1.7239 -1.2194  0.0588
  109MOL    H3139127   5.342   5.626   0.680 -1.7464 -0.7012  0.3772
  109MOL    H3239128   5.530   5.437   0.857 -0.2081  0.3511  0.1583
  109MOL    H3339129   5.550   5.607   0.857 -1.4176 -0.5072  1.8655
  109MOL    H3439130   5.568   5.601   0.604 -1.1494 -0.0554 -0.3924
  109MOL    H3539131   5.548   5.432   0.613 -1.8629  2.0650 -1.2373
  109MOL    H3639132   5.774   5.587   0.747  0.1551  0.4196  0.4734
  109MOL    H3739133   5.762   5.411   0.759 -2.1021  0.7220  0.4291
  109MOL    C3839134   5.897   5.562   0.523 -0.3732 -0.2101 -1.3385
  109MOL    O3939135   5.906   5.680   0.567  0.1657  0.3257  0.0038
  109MOL    C4039136   5.999   5.516   0.421  0.1142  0.6580 -0.0383
  109MOL    C4139137   6.106   5.618   0.395 -0.4858  0.0608  0.9508
  109MOL    C4239138   6.209   5.570   0.286 -0.2910  0.2326  0.5988
  109MOL    C4339139   6.324   5.663   0.260  0.5152  0.0457 -0.0206
  109MOL    C4439140   6.401   5.632   0.126 -0.0590 -0.8829 -0.4990
  109MOL    O4539141   6.540   5.667   0.130 -0.2332 -0.0828  0.0381
  109MOL    H4639142   5.943   5.494   0.330 -1.3690 -0.6804  1.1535
  109MOL    H4739143   6.043   5.425   0.461  0.8365  0.1164 -2.0185
  109MOL    H4839144   6.160   5.639   0.487  0.7504  1.7380 -0.1304
  109MOL    H4939145   6.070   5.711   0.352 -6.9552 -2.2671  0.7439
  109MOL    H5039146   6.156   5.560   0.192 -0.5432  2.0935  0.5292
  109MOL    H5139147   6.246   5.468   0.300  0.5657  0.3380 -0.9059
  109MOL    H5239148   6.394   5.645   0.341  1.1841  1.1653 -0.3365
  109MOL    H5339149   6.295   5.769   0.262 -1.4271 -0.4112 -2.2615
  109MOL    H5439150   6.402   5.524   0.113 -0.0342 -1.1439  1.4897
  109MOL    H5539151   6.349   5.686   0.047  1.7320  2.2915  0.4121
  109MOL    C5639152   6.632   5.598   0.055 -0.6907  0.0431 -0.8151
  109MOL    O5739153   6.622   5.488   0.010  0.1481 -0.0400 -0.1053
  109MOL    C5839154   6.759   5.681   0.047  0.3813 -0.6969 -0.0973
  109MOL    C5939155   6.882   5.600   7.826 -0.6882 -0.5562  0.4801
  109MOL    C6039156   6.927   5.664   7.686 -0.4480  0.2889  0.9335
  109MOL    C6139157   7.012   5.794   7.705  0.4266  0.0471  0.2541
  109MOL    C6239158   7.073   5.856   7.572  0.7098 -0.6217  0.2937
  109MOL    O6339159   7.123   5.987   7.602 -0.4722  0.0389 -0.4331
  109MOL    H6439160   6.788   5.709   0.148 -2.4052 -1.0150  0.8464
  109MOL    H6539161   6.735   5.773   7.839 -2.9918 -0.9352  0.9143
  109MOL    H6639162   6.873   5.492   7.816  1.1202 -0.5260 -1.6595
  109MOL    H6739163   6.962   5.601   0.056  0.4557  0.8331 -0.7435
  109MOL    H6839164   6.839   5.683   7.624  0.7241  1.6943 -0.3378
  109MOL    H6939165   6.989   5.589   7.638  0.3527  0.2715  1.9862
  109MOL    H7039166   7.097   5.781   7.772  0.5648 -0.9991 -0.1033
  109MOL    H7139167   6.955   5.874   7.752 -1.9810 -1.1525 -0.4975
  109MOL    H7239168   7.155   5.793   7.538 -0.4416 -0.4622 -2.9032
  109MOL    H7339169   6.993   5.849   7.498  1.2234  1.8342 -0.5246
  109MOL    C7439170   7.157   6.063   7.500 -0.9017  0.0574 -0.1549
  109MOL    O7539171   7.120   6.042   7.385  0.1131 -0.2302 -0.8991
  109MOL    C7639172   7.243   6.179   7.542 -0.4361 -0.5837  0.0935
  109MOL    C7739173   7.385   6.163   7.493  0.3128  0.1802 -0.7686
  109MOL    C7839174   7.463   6.302   7.497 -0.3869 -0.5985  0.4535
  109MOL    C7939175   7.605   6.290   7.452  0.6477 -0.4874  0.9072
  109MOL    C8039176   7.686   6.415   7.483  0.4335 -0.0775 -0.2071
  109MOL    O8139177   7.793   6.449   7.397 -0.4006  0.5393 -0.0980
  109MOL    H8239178   7.238   6.192   7.650 -1.8847 -0.9879  0.0845
  109MOL    H8339179   7.199   6.272   7.506 -1.6755 -0.8355  0.9115
  109MOL    H8439180   7.384   6.107   7.399  3.2017  0.4667 -1.0306
  109MOL    H8539181   7.435   6.097   7.563  0.4039 -1.8601 -2.6829
  109MOL    H8639182   7.462   6.357   7.591  0.2644  0.9544 -0.4383
  109MOL    H8739183   7.428   6.371   7.420 -0.4869 -1.3198 -0.1589
  109MOL    H8839184   7.608   6.266   7.346 -0.5549  2.3119  0.2032
  109MOL    H8939185   7.659   6.209   7.502  0.6247  0.1295  1.9524
  109MOL    H9039186   7.618   6.499   7.467  0.4353 -0.2418 -1.1268
  109MOL    H9139187   7.714   6.414   7.588  0.1895  2.2765 -0.0768
  109MOL    C9239188   0.069   6.440   7.443  0.0160  0.2617 -0.0068
  109MOL    O9339189   0.096   6.428   7.558  0.0927  0.0875 -0.4013
  109MOL    C9439190   0.170   6.433   7.330  0.6175 -0.0877 -1.0152
  109MOL    C9539191   0.290   6.334   7.352 -0.0144  0.0013  0.0109
  109MOL    C9639192   0.422   6.400   7.402 -0.0233 -0.5251 -0.5391
  109MOL    C9739193   0.534   6.301   7.417 -0.5474 -0.4478 -0.0173
  109MOL    C9839194   0.663   6.366   7.460  0.8528 -0.3150  0.1063
  109MOL    O9939195   0.661   6.451   7.576  0.3365 -0.0396 -0.1991
  109MOL   H10039196   0.225   6.527   7.329 -0.7519  0.7795  1.3140
  109MOL   H10139197   0.126   6.411   7.233  1.3937 -3.1522 -0.7557
  109MOL   H10239198   0.315   6.291   7.255 -1.4649  0.2057 -0.4655
  109MOL   H10339199   0.251   6.255   7.417 -2.0850 -0.4199 -1.6660
  109MOL   H10439200   0.412   6.456   7.495  0.6227  0.1318 -0.8629
  109MOL   H10539201   0.446   6.462   7.315 -0.1599  1.9530  1.1270
  109MOL   H10639202   0.564   6.241   7.330 -1.0787 -1.3381  0.4020
  109MOL   H10739203   0.502   6.237   7.499  0.8178 -1.9630 -0.6388
  109MOL   H10839204   0.731   6.282   7.475 -0.4433 -1.2868  0.6337
  109MOL   H10939205   0.714   6.423   7.382  0.9885  2.8472  2.3911
  109MOL   C11039206   0.710   6.408   7.692 -0.8425  0.0501  0.2605
  109MOL   O11139207   0.782   6.309   7.717  0.0996 -0.0810  0.1005
  109MOL   C11239208   0.672   6.496   7.809 -0.8940  0.6075  0.5057
  109MOL   C11339209   0.688   6.417   0.100 -0.1602 -0.2344  0.7015
  109MOL   C11439210   0.626   6.501   0.208  0.4895  0.1969 -0.0992
  109MOL   C11539211   0.653   6.439   0.351 -0.3751 -0.5574  0.3736
  109MOL   C11639212   0.801   6.451   0.393  0.3893  0.1728 -0.1244
  109MOL   O11739213   0.861   6.331   0.370 -0.5752 -1.0019 -0.1467
  109MOL   H11839214   0.566   6.518   7.793 -1.1643 -0.1594  1.2155
  109MOL   H11939215   0.737   6.583   7.806  0.1857 -0.2447 -1.5300
  109MOL   H12039216   0.794   6.392   0.107  0.0056 -0.0390 -0.8169
  109MOL   H12139217   0.632   6.323   0.098 -1.2741  0.4331 -1.6275
  109MOL   H12239218   0.518   6.500   0.193  0.3882 -0.7597  0.6962
  109MOL   H12339219   0.659   6.605   0.202 -2.1188  1.0389 -0.7397
  109MOL   H12439220   0.619   6.338   0.372  1.1470 -0.8388  1.6413
  109MOL   H12539221   0.609   6.512   0.420 -0.3495 -0.2270  0.0373
  109MOL   H12639222   0.844   6.533   0.335  1.6219 -0.1394  0.3310
  109MOL   H12739223   0.814   6.471   0.499 -2.4736  0.8749  0.1302
  109MOL   C12839224   0.998   6.322   0.364  0.9682  0.9052  0.1492
  109MOL   O12939225   1.073   6.409   0.406  0.3610 -0.2752 -0.5812
  109MOL   C13039226   1.043   6.197   0.291  0.4186  0.1863  0.0399
  109MOL   C13139227   0.986   6.167   0.157  0.0634  0.1888  0.2699
  109MOL   C13239228   0.864   6.081   0.156  1.3496  0.2103  0.8117
  109MOL   C13339229   0.819   6.017   0.025 -0.2095 -0.2766 -0.0087
  109MOL   C13439230   0.680   5.953   0.040 -0.3077 -0.4734  0.1367
  109MOL   O13539231   0.579   6.055   0.038 -0.3424  0.4908  0.5149
  109MOL   H13639232   1.065   6.114   0.359 -0.3762 -0.0628  0.0028
  109MOL   H13739233   1.146   6.228   0.277  0.2614  1.1604  0.9672
  109MOL   H13839234   1.053   6.106   0.096 -0.3115 -1.3127  1.3386
  109MOL   H13939235   0.964   6.259   0.101 -2.8127 -0.6102  0.0378
  109MOL   H14039236   0.794   6.153   0.197  0.7404 -0.4992  1.0229
  109MOL   H14139237   0.873   6.000   0.228 -0.4851 -0.3557  0.4284
  109MOL   H14239238   0.889   5.934   0.018 -0.3227 -0.5193  1.5805
  109MOL   H14339239   0.823   6.084   7.783  0.4327 -0.7338 -0.3376
  109MOL   H14439240   0.668   5.883   7.802 -0.4437 -1.0484  0.6352
  109MOL   H14539241   0.674   5.894   0.132 -3.1195 -0.0515  0.2860
  109MOL   C14639242   0.451   6.043   7.827  0.6960  0.1566 -0.1352
  109MOL   O14739243   0.399   5.942   7.791  0.2248 -0.2513 -0.1061
  109MOL   C14839244   0.375   6.175   7.831  0.3757 -0.0883 -0.0181
  109MOL   C14939245   0.304   6.191   0.124 -0.1851  0.4284 -0.0866
  109MOL   C15039246   0.160   6.242   0.124 -0.0938 -0.1579  0.3974
  109MOL   C15139247   0.137   6.373   0.046  0.5437  0.9080  0.3135
  109MOL   C15239248   7.840   6.427   0.060 -0.7239 -0.7236  0.5859
  109MOL   O15339249   7.738   6.341   7.844  0.5843 -0.2599 -0.4944
  109MOL   H15439250   0.303   6.186   7.750 -1.6352  1.5868  1.9590
  109MOL   H15539251   0.441   6.259   7.810 -0.6632  1.2382  1.9425
  109MOL   H15639252   0.359   6.262   0.185  0.4053 -0.8677  0.9023
  109MOL   H15739253   0.297   6.095   0.176 -0.1200  1.4470  1.8475
  109MOL   H15839254   0.129   6.253   0.228 -1.0438 -1.3445  0.2409
  109MOL   H15939255   0.100   6.156   0.093 -2.3231  0.9058  1.6112
  109MOL   H16039256   0.166   6.368   7.785 -2.1428  0.0684 -0.4434
  109MOL   H16139257   0.202   6.448   0.088  0.5500  1.7492 -1.1649
  109MOL   H16239258   7.824   6.457   0.164 -1.2034  0.7672  0.0833
  109MOL   H16339259   7.829   6.519   0.003 -2.7018 -1.8493 -0.8889
  109MOL   C16439260   7.684   6.239   0.078  0.4767  0.1884  0.6229
  109MOL   O16539261   7.697   6.231   0.199  0.1224 -0.3540 -0.2007
  109MOL   C16639262   7.604   6.128   0.008  1.1180 -0.4319 -0.4961
  109MOL   C16739263   7.692   6.022   7.788  0.2247  0.7540  0.4446
  109MOL   C16839264   7.629   5.942   7.674  0.2952  0.0586 -0.1376
  109MOL   C16939265   7.500   5.864   7.723  0.1898 -0.3478  0.1065
  109MOL   C17039266   7.450   5.755   7.627 -0.7349 -0.6241 -0.4643
  109MOL   O17139267   7.401   5.818   7.511  0.1384 -0.4948  0.0229
  109MOL   H17239268   7.551   6.173   7.768  0.5590 -0.2850 -0.0702
  109MOL   H17339269   7.528   6.088   0.074 -0.6221  3.3753 -0.0548
  109MOL   H17439270   7.731   5.962   0.026 -0.1560  0.5637  0.4849
  109MOL   H17539271   7.785   6.070   7.758  0.4831  0.9150  1.5063
  109MOL   H17639272   7.698   5.859   7.659 -0.2931 -0.3814 -0.4603
  109MOL   H17739273   7.609   5.997   7.581  0.7073  0.9619  0.3013
  109MOL   H17839274   7.419   5.937   7.730 -0.7356 -1.2030 -1.3683
  109MOL   H17939275   7.520   5.827   7.823  1.3756 -1.5998 -0.5757
  109MOL   H18039276   7.526   5.677   7.615 -0.9596 -0.7402 -1.1525
  109MOL   H18139277   7.359   5.710   7.667 -0.2951 -0.3564  0.8667
  109MOL   C18239278   7.459   5.789   7.395 -0.2226  0.7320 -0.4357
  109MOL   O18339279   7.557   5.717   7.375 -0.4742 -0.0918 -0.0320
  109MOL   C18439280   7.384   5.851   7.285  0.5952  0.4664 -0.2441
  109MOL   C18539281   7.296   5.747   7.205  0.2316 -0.4520  0.5145
  109MOL   C18639282   7.232   5.810   7.080  0.9399  0.6285 -0.0879
  109MOL   C18739283   7.130   5.720   7.011 -0.6468 -0.1017  0.1111
  109MOL   C18839284   6.999   5.708   7.086 -0.3165 -0.1633  0.6210
  109MOL   O18939285   6.924   5.831   7.070 -0.1386  0.0418  0.4430
  109MOL   H19039286   7.457   5.897   7.218  0.2416 -0.0362 -0.9765
  109MOL   H19139287   7.322   5.928   7.329 -0.7804 -0.2630 -0.8767
  109MOL   H19239288   7.221   5.712   7.276  0.9350 -0.5218  1.2255
  109MOL   H19339289   7.359   5.663   7.176  2.4545  0.2063  3.3315
  109MOL   H19439290   7.314   5.833   7.012  0.0598  0.7844 -1.1062
  109MOL   H19539291   7.179   5.903   7.096 -1.9483 -1.0864  0.6698
  109MOL   H19639292   7.181   5.627   6.987  1.7376  0.8821  1.1750
  109MOL   H19739293   7.116   5.775   6.918 -0.8244 -0.2394  0.0563
  109MOL   H19839294   6.948   5.616   7.057  3.3221 -2.5170  1.3548
  109MOL   H19939295   7.006   5.679   7.190 -0.6515 -0.5852  0.5251
  109MOL   C20039296   6.805   5.843   7.123  0.1039 -0.0420  0.6853
  109MOL   O20139297   6.735   5.756   7.181  0.2458 -0.1341  0.2635
  109MOL   C20239298   6.748   5.992   7.108  0.3590  0.4575  0.4620
  109MOL   C20339299   6.826   6.102   7.184  0.0429 -0.0275 -0.2004
  109MOL   C20439300   6.773   6.136   7.325  0.2495  0.0777  0.2535
  109MOL   C20539301   6.759   6.022   7.427 -0.3035  0.7171 -0.4974
  109MOL   C20639302   6.681   6.063   7.551  0.1594 -0.3042 -0.0304
  109MOL   O20739303   6.751   6.176   7.615 -1.3383  0.4243  0.1664
  109MOL   H20839304   6.639   6.004   7.102  0.5982  2.9154  0.6742
  109MOL   H20939305   6.771   6.012   7.003  0.4718 -0.1513  0.3671
  109MOL   H21039306   6.826   6.192   7.122 -1.3541  0.1746  0.0615
  109MOL   H21139307   6.932   6.079   7.197  0.2295  2.0620  2.6380
  109MOL   H21239308   6.676   6.186   7.319  0.6426  1.1617  2.3288
  109MOL   H21339309   6.839   6.208   7.372 -1.1324  0.5697  1.5150
  109MOL   H21439310   6.853   5.988   7.471 -1.3779 -1.0284  0.5426
  109MOL   H21539311   6.708   5.935   7.385  1.1971 -0.2440 -0.3778
  109MOL   H21639312   6.580   6.092   7.523  1.2262  2.3571 -1.3977
  109MOL   H21739313   6.671   5.977   7.617 -0.1026  1.0985  1.8135
  109MOL   C21839314   6.782   6.173   7.746 -0.0247  0.2112 -0.2051
  109MOL   O21939315   6.771   6.076   7.822  0.4356 -0.4411  0.0629
  109MOL   C22039316   6.817   6.316   7.802  0.4707 -0.6194 -0.1431
  109MOL   C22139317   6.950   6.378   7.760 -0.2128 -0.3072  0.5997
  109MOL   C22239318   6.952   6.433   7.611  0.0243  0.1456 -0.0128
  109MOL   C22339319   7.068   6.531   7.596  0.4503  0.5964 -0.0832
  109MOL   C22439320   7.072   6.558   7.442 -0.6372  0.1783  0.2766
  109MOL   O22539321   7.169   6.656   7.423  0.3973  0.6665  0.7246
  109MOL   H22639322   6.804   6.314   0.066 -1.2870 -1.3818 -0.3493
  109MOL   H22739323   6.740   6.383   7.765  2.4364  1.6070 -0.2896
  109MOL   H22839324   7.025   6.299   7.773 -0.8382 -0.5818  2.8653
  109MOL   H22939325   6.963   6.456   7.835 -1.3343 -0.4081  0.9075
  109MOL   H23039326   6.859   6.485   7.587 -0.5736 -1.2249 -0.6890
  109MOL   H23139327   6.957   6.352   7.539  0.1202 -0.9970  1.2605
  109MOL   H23239328   7.161   6.493   7.636  0.6650 -0.5019 -1.5881
  109MOL   H23339329   7.038   6.628   7.636 -1.0848  0.7666 -1.5747
  109MOL   H23439330   7.094   6.459   7.402  1.4338  0.1016  1.5360
  109MOL   H23539331   6.971   6.591   7.415  0.2682  2.7167 -0.1011
  109MOL   C23639332   7.143   6.759   7.346  0.3488  0.7534  0.8301
  109MOL   O23739333   7.031   6.788   7.293  0.2379 -0.3439 -0.3718
  109MOL   C23839334   7.270   6.836   7.311 -0.0902  0.2859 -0.4894
  109MOL   C23939335   7.340   6.777   7.183 -0.3117  0.6028  0.0502
  109MOL   C24039336   7.424   6.645   7.205  1.2768  0.4487 -0.4319
  109MOL   C24139337   7.524   6.626   7.089 -0.5606 -0.9491 -0.2752
  109MOL   C24239338   7.616   6.502   7.103  0.0906 -0.6063  0.1347
  109MOL   O24339339   7.673   6.489   6.978 -0.2887  0.5782  0.2195
  109MOL   H24439340   7.339   6.805   7.389  3.0712 -0.8269 -3.6100
  109MOL   H24539341   7.259   6.944   7.302 -0.1542  0.5845  2.6009
  109MOL   H24639342   7.399   6.860   7.143 -1.3110  1.6361  0.6777
  109MOL   H24739343   7.258   6.759   7.114 -0.3204 -1.7815  0.6420
  109MOL   H24839344   7.360   6.558   7.216  0.3735  1.3022  1.3064
  109MOL   H24939345   7.471   6.668   7.301 -0.6570  1.3733  0.3214
  109MOL   H25039346   7.587   6.715   7.087  2.0743 -2.7749 -1.4612
  109MOL   H25139347   7.469   6.623   6.995 -0.3042  1.0595 -0.5203
  109MOL   H25239348   7.685   6.515   7.186 -1.1231  0.3107  1.0231
  109MOL   H25339349   7.548   6.423   7.135  0.4474 -0.5006  1.1828
  109MOL   C25439350   7.797   6.531   6.955  0.7153  0.3670  0.6571
  109MOL   O25539351   0.040   6.547   7.038 -0.1785  0.9158  0.0709
  109MOL   C25639352   7.839   6.520   6.806  0.1477 -0.6109 -0.1901
  109MOL   C25739353   7.809   6.656   6.733  0.6968  0.2570 -0.2239
  109MOL   C25839354   7.829   6.647   6.580 -0.0213  0.0498  0.3998
  109MOL   C25939355   7.724   6.727   6.505  0.0611 -0.2763 -0.1892
  109MOL   C26039356   7.745   6.733   6.351 -0.7086  0.3402 -0.2581
  109MOL   O26139357   7.747   6.597   6.309 -0.0478 -0.7077  0.0865
  109MOL   H26239358   7.783   6.432   6.773 -3.7244  1.4126  0.6477
  109MOL   H26339359   0.102   6.502   6.808  0.1737 -0.8983 -2.2285
  109MOL   H26439360   0.018   6.739   6.779  0.7123 -1.3491  2.7901
  109MOL   H26539361   7.705   6.684   6.748  0.5603 -0.2219 -0.2651
  109MOL   H26639362   7.827   6.544   6.546 -1.7253  0.2554 -0.1475
  109MOL   H26739363   0.086   6.675   6.550 -0.2288  1.6050  1.0688
  109MOL   H26839364   7.705   6.823   6.553  2.1158 -1.6182  3.4985
  109MOL   H26939365   7.633   6.672   6.530 -0.1730 -0.7632 -2.0391
  109MOL   H27039366   7.666   6.790   6.302 -0.2941  0.3236 -0.9533
  109MOL   H27139367   7.840   6.782   6.330  0.6214 -1.4549  1.4054
  109MOL   C27239368   7.762   6.567   6.174  0.3583 -0.6065 -0.2827
  109MOL   O27339369   7.780   6.648   6.082  0.0966 -0.0903  0.0152
  109MOL   C27439370   7.758   6.415   6.151  0.3720 -0.3514  0.4027
  109MOL   C27539371   0.044   6.348   6.116 -0.4553 -0.8201  0.3479
  109MOL   C27639372   0.024   6.206   6.055  0.1849  0.3116  0.1001
  109MOL   C27739373   0.146   6.115   6.071  0.1099 -0.5501 -0.6787
  109MOL   C27839374   0.135   5.972   6.009  0.6128  0.4236  0.3308
  109MOL   O27939375   0.261   5.906   6.012  0.1245  0.1114 -0.7975
  109MOL   H28039376   7.681   6.403   6.075  0.0707  3.7318 -0.0240
  109MOL   H28139377   7.724   6.355   6.236  0.4416  0.4198  0.9783
  109MOL   H28239378   0.089   6.342   6.215  0.8618 -0.0466 -0.1876
  109MOL   H28339379   0.111   6.403   6.050 -0.7029 -3.7439 -2.4602
  109MOL   H28439380   0.017   6.227   5.948  1.4022  1.1559  0.1741
  109MOL   H28539381   7.778   6.159   6.093  0.6082  0.1592  0.9236
  109MOL   H28639382   0.169   6.116   6.177 -1.2203 -1.9192 -0.3529
  109MOL   H28739383   0.225   6.169   6.019  0.2757 -0.7832 -0.6702
  109MOL   H28839384   0.060   5.910   6.059  3.0656 -2.4420  0.6070
  109MOL   H28939385   0.113   5.989   5.903  1.2744  1.2107  0.3163
  109MOL   C29039386   0.288   5.802   5.946 -1.1101  0.0373 -0.0843
  109MOL   O29139387   0.212   5.744   5.874 -0.0364  0.0797  0.7907
  109MOL   C29239388   0.441   5.771   5.963  0.1594  0.1660 -0.2328
  109MOL   C29339389   0.466   5.619   5.940 -0.2545 -0.3224  0.0473
  109MOL   C29439390   0.442   5.544   6.068  0.1459  1.0561 -0.4493
  109MOL   C29539391   0.439   5.395   6.035 -0.1192 -0.0757  0.4459
  109MOL   C29639392   0.387   5.310   6.149 -0.3049  1.2100 -0.2972
  109MOL   O29739393   0.404   5.171   6.110 -0.3512 -0.2757  0.6460
  109MOL   H29839394   0.480   5.793   6.063  0.9566 -2.3444  0.0445
  109MOL   H29939395   0.503   5.835   5.901  3.6230 -3.1001 -0.3688
  109MOL   H30039396   0.570   5.605   5.912 -0.2198  0.1330 -0.0615
  109MOL   H30139397   0.408   5.587   5.854 -0.0108  0.1457 -0.2958
  109MOL   H30239398   0.344   5.569   6.107  0.4475  1.9117 -0.2284
  109MOL   H30339399   0.509   5.583   6.144 -1.7646  4.7507 -0.5366
  109MOL   H30439400   0.533   5.355   5.997 -0.6372 -1.7362  0.8799
  109MOL   H30539401   0.371   5.373   5.953  0.1951 -2.1478  0.7197
  109MOL   H30639402   0.447   5.329   6.238  0.0575 -1.9670  0.1890
  109MOL   H30739403   0.281   5.328   6.165 -0.9751 -1.0150 -1.9515
  109MOL   C30839404   0.393   5.079   6.202  0.1442  0.2070 -0.1766
  109MOL   O30939405   0.368   5.096   6.318 -0.6731 -0.2102 -0.4888
  109MOL   C31039406   0.419   4.943   6.150 -0.2076 -0.1566 -0.3162
  109MOL   C31139407   0.335   4.824   6.201  0.3474 -0.1107  0.6711
  109MOL   C31239408   0.187   4.835   6.151  0.1201 -0.2449 -0.7069
  109MOL   C31339409   0.122   4.696   6.157 -0.4657  0.0431  0.1944
  109MOL   C31439410   7.820   4.694   6.108  0.1075 -0.5018 -0.8329
  109MOL   O31539411   7.725   4.743   6.202 -0.0823  0.0500  1.2131
  109MOL   H31639412   0.522   4.919   6.177 -0.4411  0.2929  1.0340
  109MOL   H31739413   0.406   4.959   6.043  1.2209 -2.8840 -0.9467
  109MOL   H31839414   0.331   4.811   6.309  0.8336  0.3202  0.7395
  109MOL   H31939415   0.381   4.733   6.161 -3.1221 -2.0772  0.9915
  109MOL   H32039416   0.182   4.878   6.051  0.4952  2.0964  0.2528
  109MOL   H32139417   0.136   4.913   6.208  1.2056 -0.7107  0.9433
  109MOL   H32239418   0.115   4.661   6.260 -1.9147  2.4084  0.9407
  109MOL   H32339419   0.185   4.626   6.102 -0.6103 -1.2486  1.6314
  109MOL   H32439420   7.808   4.751   6.016 -0.8033 -0.0663 -0.4444
  109MOL   H32539421   7.795   4.590   6.084  0.5541 -1.0299  0.8905
  109MOL   C32639422   7.597   4.751   6.166 -0.1902 -0.4239 -0.2372
  109MOL   O32739423   7.551   4.714   6.054  0.2126 -0.2163 -0.0671
  109MOL   C32839424   7.492   4.800   6.272  0.4957 -0.1652 -0.0877
  109MOL   C32939425   7.371   4.700   6.302 -0.1047 -0.0941  0.1243
  109MOL   C33039426   7.235   4.758   6.351 -0.6689  0.1752  0.3050
  109MOL   C33139427   7.107   4.676   6.334  0.3428  0.2580  0.2792
  109MOL   C33239428   6.996   4.730   6.428 -0.2934 -0.0348  0.1180
  109MOL   O33339429   6.868   4.680   6.395 -0.3024 -0.1439 -0.2383
  109MOL   H33439430   7.453   4.896   6.238  0.1854  0.3210  1.6329
  109MOL   H33539431   7.542   4.823   6.366  0.1589 -2.7652  0.7771
  109MOL   H33639432   7.400   4.627   6.377 -1.4699 -0.1131  0.6523
  109MOL   H33739433   7.360   4.634   6.216 -0.8004 -0.5018  0.5230
  109MOL   H33839434   7.221   4.861   6.316 -0.5437  0.3756  0.8376
  109MOL   H33939435   7.248   4.771   6.458 -0.9134  1.5921  0.1689
  109MOL   H34039436   7.138   4.572   6.341  2.3063  0.6993 -1.4921
  109MOL   H34139437   7.066   4.685   6.233  0.3199  1.0983  0.3617
  109MOL   H34239438   7.016   4.719   6.535  2.6755  0.4221 -0.3471
  109MOL   H34339439   6.997   4.838   6.421  2.0160 -0.1347 -1.5816
  109MOL   C34439440   6.766   4.718   6.485 -0.2118  1.0021  0.0915
  109MOL   O34539441   6.772   4.797   6.577 -0.2238 -0.9122 -0.1628
  109MOL   C34639442   6.643   4.634   6.447 -0.5626 -0.7861  0.9904
  109MOL   C34739443   6.509   4.708   6.450  0.0239 -0.5696  0.5173
  109MOL   C34839444   6.389   4.646   6.368  0.0996 -0.5706  0.3986
  109MOL   C34939445   6.247   4.717   6.361 -0.4603 -0.0345 -0.1299
  109MOL   C35039446   6.139   4.636   6.295  0.5902 -0.6553  0.4795
  109MOL   O35139447   6.176   4.603   6.169  0.4043  0.6908  0.6745
  109MOL   H35239448   6.643   4.555   6.522 -0.4435 -2.1408 -0.4180
  109MOL   H35339449   6.649   4.594   6.346 -4.0645 -1.3486  0.9270
  109MOL   H35439450   6.524   4.813   6.425 -1.7142  0.2127  2.6169
  109MOL   H35539451   6.479   4.714   6.554 -0.0592  0.4593  0.4393
  109MOL   H35639452   6.365   4.553   6.420 -0.6311 -0.5489  0.1125
  109MOL   H35739453   6.414   4.638   6.262  0.3172  1.2665  0.2944
  109MOL   H35839454   6.266   4.813   6.315  0.8826 -0.1007  0.2660
  109MOL   H35939455   6.211   4.744   6.460 -0.4043 -0.1766 -0.0711
  109MOL   H36039456   6.139   4.536   6.336  1.6604  0.2802  2.8772
  109MOL   H36139457   6.036   4.672   6.300  0.3145 -1.7651  4.1768
  109MOL   H36239458   6.204   4.513   6.174 -2.0921 -0.2604 -1.1435
  110MOL     C139459   3.890   1.100   5.161  0.0760 -0.3245 -0.0837
  110MOL     O239460   3.993   1.056   5.214 -0.1055  0.3279 -0.3113
  110MOL     C339461   3.780   0.997   5.126  0.4540 -0.3570 -0.3530
  110MOL     C439462   3.739   0.897   5.241 -0.1144 -0.3693 -0.0285
  110MOL     C539463   3.675   0.956   5.364  0.8697 -0.9130  0.0724
  110MOL     C639464   3.565   1.058   5.332 -0.3211 -0.0806 -0.8353
  110MOL     C739465   3.518   1.129   5.465  0.0805 -0.2798 -0.1376
  110MOL     O839466   3.433   1.042   5.541 -0.1384 -0.4279  0.0954
  110MOL     H939467   3.807   0.931   5.044  2.6063 -1.1359  0.9535
  110MOL    H1039468   3.688   1.051   5.101  0.8134  0.1236 -0.6334
  110MOL    H1139469   3.825   0.834   5.267  1.7926  2.7531  1.4434
  110MOL    H1239470   3.668   0.826   5.198  0.3681 -1.9911  1.8101
  110MOL    H1339471   3.753   0.999   5.425  0.0669  1.2473 -0.3954
  110MOL    H1439472   3.632   0.866   5.408  0.8276 -0.9683 -0.0818
  110MOL    H1539473   3.481   1.013   5.281  1.2798 -1.1171 -2.6436
  110MOL    H1639474   3.599   1.137   5.264 -0.7424  1.9285  1.2141
  110MOL    H1739475   3.604   1.164   5.522 -2.1537  0.4015  2.9382
  110MOL    H1839476   3.470   1.222   5.435 -2.2033 -1.6294 -0.7602
  110MOL    H1939477   3.859   1.202   5.142  0.1175 -0.8286 -3.1781
  110MOL    C2039478   3.299   1.061   5.536  0.2382  0.9378  0.1727
  110MOL    O2139479   3.239   1.138   5.461  0.4298  0.3921 -0.4286
  110MOL    C2239480   3.216   0.985   5.646 -0.1168  0.0587  0.2867
  110MOL    C2339481   3.272   1.008   5.789  0.2244  0.5106 -0.2146
  110MOL    C2439482   3.272   1.148   5.843 -0.2119 -0.1000 -0.0090
  110MOL    C2539483   3.265   1.153   6.001 -0.3468 -1.0488  0.2464
  110MOL    C2639484   3.390   1.121   6.083  0.2504  0.2379  0.3109
  110MOL    O2739485   3.495   1.211   6.052 -0.1222 -1.0864 -0.0536
  110MOL    H2839486   3.199   0.880   5.624  2.8719 -0.4934  0.3544
  110MOL    H2939487   3.116   1.028   5.650  0.8398  2.3323  0.8737
  110MOL    H3039488   3.374   0.970   5.794  0.3297  0.5953 -1.6426
  110MOL    H3139489   3.219   0.946   5.861 -1.4761  0.9378 -1.0727
  110MOL    H3239490   3.184   1.203   5.810 -0.6376 -0.5630  0.3599
  110MOL    H3339491   3.357   1.201   5.799  0.3714 -0.5021  0.6344
  110MOL    H3439492   3.180   1.091   6.030 -0.6088 -3.1541 -4.4838
  110MOL    H3539493   3.237   1.255   6.023  1.2520 -0.0967 -1.9388
  110MOL    H3639494   3.360   1.118   6.188  0.4489 -2.0360  0.3337
  110MOL    H3739495   3.423   1.018   6.071 -1.5576 -0.5495  1.7972
  110MOL    C3839496   3.610   1.167   6.008 -0.5952 -0.2174 -0.4605
  110MOL    O3939497   3.649   1.048   6.021  0.7755  0.4783  0.5240
  110MOL    C4039498   3.698   1.274   5.952 -0.3496 -0.2034 -0.3607
  110MOL    C4139499   3.653   1.311   5.812  0.6555 -0.7183 -0.1804
  110MOL    C4239500   3.741   1.417   5.744 -0.0560 -0.1377 -0.0604
  110MOL    C4339501   3.704   1.447   5.608 -0.4111 -0.6293  0.9041
  110MOL    C4439502   3.798   1.548   5.542 -0.5801  0.4101  0.2277
  110MOL    O4539503   3.921   1.497   5.512 -0.2981  0.0751 -0.3197
  110MOL    H4639504   3.802   1.242   5.947 -0.2023  0.2613 -0.2887
  110MOL    H4739505   3.701   1.361   6.017  0.8370 -1.0355  0.6995
  110MOL    H4839506   3.549   1.343   5.811  0.1547 -2.2684  1.2260
  110MOL    H4939507   3.648   1.219   5.753  2.7214 -0.7645 -0.3185
  110MOL    H5039508   3.845   1.386   5.746 -0.2274 -0.6502  1.5750
  110MOL    H5139509   3.752   1.510   5.800 -1.1329  0.1661 -0.3339
  110MOL    H5239510   3.603   1.490   5.614 -0.2966 -0.2064 -0.0792
  110MOL    H5339511   3.685   1.360   5.545  1.7299 -2.6935  3.0550
  110MOL    H5439512   3.747   1.582   5.453  0.2985 -1.1086 -0.8827
  110MOL    H5539513   3.810   1.637   5.604 -2.2702  1.2144 -0.5796
  110MOL    C5639514   3.935   1.411   5.394 -0.4493  0.0234 -0.5442
  110MOL    O5739515   3.836   1.365   5.335 -0.0610  0.0446  0.0185
  110MOL    C5839516   4.083   1.380   5.364 -0.2927 -0.3984  0.3496
  110MOL    C5939517   4.126   1.359   5.218 -0.2748 -0.9242  0.5937
  110MOL    C6039518   4.269   1.411   5.194  0.3600  0.5570  0.4727
  110MOL    C6139519   4.322   1.405   5.054 -0.0361  0.3252  0.4010
  110MOL    C6239520   4.468   1.452   5.052  0.0413  0.0784 -0.1187
  110MOL    O6339521   4.512   1.492   4.919 -0.4642 -0.1304 -0.2651
  110MOL    H6439522   4.118   1.295   5.423  2.5314  0.1414 -0.5188
  110MOL    H6539523   4.136   1.468   5.398  0.3265 -0.6418  0.0156
  110MOL    H6639524   4.055   1.394   5.143  0.7804 -1.5550 -0.7222
  110MOL    H6739525   4.138   1.252   5.196 -1.5898 -0.7901 -0.8137
  110MOL    H6839526   4.339   1.358   5.258 -0.5083  0.1712  1.1240
  110MOL    H6939527   4.282   1.514   5.228  0.0705  0.3841  1.1160
  110MOL    H7039528   4.273   1.480   4.992 -1.2980 -1.4639 -0.8116
  110MOL    H7139529   4.320   1.305   5.012 -0.0089  1.1676 -1.6881
  110MOL    H7239530   4.492   1.516   5.137 -0.0800 -0.1803  0.1091
  110MOL    H7339531   4.523   1.361   5.076 -0.0927 -0.8803 -3.2180
  110MOL    C7439532   4.515   1.621   4.886  0.0893  0.0224 -0.1550
  110MOL    O7539533   4.460   1.707   4.947 -0.3075  0.0964  0.1417
  110MOL    C7639534   4.594   1.646   4.759  0.2513  0.0459 -0.0181
  110MOL    C7739535   4.535   1.563   4.638  0.2229  0.2679 -0.6238
  110MOL    C7839536   4.601   1.583   4.505 -0.3017 -0.0381  0.0963
  110MOL    C7939537   4.736   1.519   4.495 -0.5204 -0.2240  0.2219
  110MOL    C8039538   4.797   1.497   4.356 -0.8514  0.2937 -0.0358
  110MOL    O8139539   4.743   1.382   4.289 -0.1787 -0.1611  0.0622
  110MOL    H8239540   4.699   1.618   4.772 -0.1827 -2.3174 -1.2929
  110MOL    H8339541   4.583   1.753   4.741  0.0934  0.6071  3.1433
  110MOL    H8439542   4.431   1.594   4.629  0.1924  1.3876  2.6097
  110MOL    H8539543   4.531   1.456   4.661  0.7244  0.5307  0.7240
  110MOL    H8639544   4.608   1.689   4.481  0.1759  0.3612  1.9172
  110MOL    H8739545   4.532   1.533   4.436  0.6098 -0.7625 -0.2912
  110MOL    H8839546   4.743   1.419   4.537 -3.1050 -1.1672 -1.4458
  110MOL    H8939547   4.809   1.582   4.546 -0.0492 -0.4362 -0.1952
  110MOL    H9039548   4.780   1.583   4.291 -3.3117 -0.4063 -0.3665
  110MOL    H9139549   4.904   1.491   4.374 -1.0439 -2.0969  0.4845
  110MOL    C9239550   4.796   1.340   4.170 -0.0255  0.6027 -0.1789
  110MOL    O9339551   4.884   1.393   4.104 -0.0138  0.3140  0.0553
  110MOL    C9439552   4.734   1.210   4.124 -0.6089  0.1180  0.4791
  110MOL    C9539553   4.772   1.083   4.199  0.2730  0.4299  0.0899
  110MOL    C9639554   4.906   1.028   4.164 -0.3640  0.3130  0.1386
  110MOL    C9739555   4.902   0.930   4.051 -1.2869  0.5164  0.1474
  110MOL    C9839556   5.048   0.885   4.007  0.5005 -0.4928  0.3171
  110MOL    O9939557   5.108   0.998   3.946  0.6119 -0.1649 -0.2907
  110MOL   H10039558   4.753   1.193   4.018 -0.4266 -1.3699  0.7304
  110MOL   H10139559   4.629   1.233   4.142 -0.1818  0.4258  2.7674
  110MOL   H10239560   4.700   1.006   4.173  1.2167 -0.5697  0.3654
  110MOL   H10339561   4.766   1.106   4.306 -2.5490 -1.3109  0.3772
  110MOL   H10439562   4.942   0.972   4.250  0.6495 -0.5096 -0.7919
  110MOL   H10539563   4.980   1.107   4.150 -0.0836 -0.0002 -0.1783
  110MOL   H10639564   4.844   0.964   3.965 -1.4184 -1.6888 -0.6808
  110MOL   H10739565   4.854   0.836   4.080 -1.0530  0.2975 -0.1664
  110MOL   H10839566   5.113   0.848   4.087 -0.7422 -1.0170  1.0930
  110MOL   H10939567   5.030   0.802   3.939 -1.8675  1.4623 -1.5191
  110MOL   C11039568   5.241   1.021   3.974  0.3832  0.2795 -0.3370
  110MOL   O11139569   5.306   0.962   4.062 -0.5770 -0.6278 -0.0475
  110MOL   C11239570   5.304   1.124   3.887  0.4385  0.2562  0.5559
  110MOL   C11339571   5.339   1.257   3.965  0.2954 -0.1178 -0.0706
  110MOL   C11439572   5.230   1.339   4.020 -0.0152  1.3711 -0.1009
  110MOL   C11539573   5.277   1.470   4.092  0.4579 -0.0534 -0.4051
  110MOL   C11639574   5.171   1.523   4.192 -0.8465 -0.3650 -0.2879
  110MOL   O11739575   5.238   1.613   4.272  0.7267  0.1021  0.2277
  110MOL   H11839576   5.235   1.153   3.809 -0.1959  1.0355  1.3953
  110MOL   H11939577   5.394   1.099   3.832 -0.1838  0.1793 -0.4290
  110MOL   H12039578   5.394   1.318   3.894 -1.2360  0.6443 -0.6428
  110MOL   H12139579   5.411   1.235   4.043 -1.0752 -1.7011  0.7891
  110MOL   H12239580   5.184   1.276   4.095 -0.9694  0.8505 -1.0947
  110MOL   H12339581   5.165   1.353   3.933  0.2514  1.0979 -0.3418
  110MOL   H12439582   5.305   1.541   4.015  1.6089 -1.0793 -0.9518
  110MOL   H12539583   5.369   1.440   4.142  0.2867  0.0314 -0.0386
  110MOL   H12639584   5.094   1.570   4.131  1.4367  1.2735 -1.9868
  110MOL   H12739585   5.129   1.444   4.254 -1.8450 -1.5255 -2.3901
  110MOL   C12839586   5.171   1.697   4.358 -0.4866  0.0835 -0.2971
  110MOL   O12939587   5.058   1.671   4.391  0.3523 -0.2095  0.0604
  110MOL   C13039588   5.264   1.809   4.419 -0.0564  0.4834 -0.4368
  110MOL   C13139589   5.373   1.756   4.508 -0.0023 -0.3443  0.3149
  110MOL   C13239590   5.415   1.864   4.603  1.0281 -0.4557  0.3317
  110MOL   C13339591   5.552   1.847   4.655 -0.3658 -0.1357  0.1968
  110MOL   C13439592   5.593   1.974   4.734 -0.5492  0.4208 -0.1661
  110MOL   O13539593   5.726   1.990   4.776  0.4124  0.6680  0.4649
  110MOL   H13639594   5.191   1.864   4.478 -1.5811  0.8571 -2.6351
  110MOL   H13739595   5.294   1.877   4.339  0.8433  0.3814 -0.2013
  110MOL   H13839596   5.448   1.723   4.436  0.4914  1.5477 -0.0683
  110MOL   H13939597   5.332   1.676   4.570  1.4401 -2.0801 -0.9046
  110MOL   H14039598   5.343   1.854   4.685 -0.0210 -0.6986 -0.6004
  110MOL   H14139599   5.396   1.961   4.558  1.2749 -1.3292 -1.6953
  110MOL   H14239600   5.622   1.836   4.572 -1.4948  3.0765 -1.2745
  110MOL   H14339601   5.559   1.765   4.726  1.9293  0.3105  0.5125
  110MOL   H14439602   5.573   2.065   4.679  1.1148  1.0694  0.2489
  110MOL   H14539603   5.534   1.994   4.823  0.4241  3.7305 -0.2144
  110MOL   C14639604   5.762   2.092   4.862 -0.4392  0.2197 -0.6432
  110MOL   O14739605   5.685   2.175   4.907  0.4642  0.8904 -0.2815
  110MOL   C14839606   5.913   2.106   4.878 -0.2838 -0.7500 -0.8874
  110MOL   C14939607   5.972   2.247   4.847 -0.4754 -0.5986 -0.1232
  110MOL   C15039608   6.018   2.251   4.699 -0.7729  0.1534  0.5830
  110MOL   C15139609   6.099   2.380   4.657 -0.1914  0.8205  0.1168
  110MOL   C15239610   6.063   2.408   4.518 -0.2624 -0.3868  0.0846
  110MOL   O15339611   6.138   2.515   4.477 -0.0960 -0.4733  0.1581
  110MOL   H15439612   5.964   2.038   4.811  0.3701 -0.9037 -0.2461
  110MOL   H15539613   5.935   2.077   4.981 -1.1840  2.3021  0.2348
  110MOL   H15639614   6.057   2.267   4.912  0.1177  2.5464 -1.7833
  110MOL   H15739615   5.900   2.329   4.858  0.4703  0.2523 -0.2258
  110MOL   H15839616   5.937   2.237   4.627  2.8377  0.5709 -3.8323
  110MOL   H15939617   6.084   2.166   4.680 -0.2334  0.5375  0.7197
  110MOL   H16039618   6.207   2.377   4.674 -0.0822  1.7476 -0.3578
  110MOL   H16139619   6.046   2.458   4.712  1.5110  1.0139  1.5256
  110MOL   H16239620   6.077   2.318   4.458  1.3572 -0.8692  1.1318
  110MOL   H16339621   5.959   2.435   4.502 -0.0386  0.2935 -0.2269
  110MOL   C16439622   6.224   2.511   4.374 -0.5896 -0.7539 -0.1713
  110MOL   O16539623   6.248   2.412   4.301 -0.1141 -0.2130 -0.2235
  110MOL   C16639624   6.316   2.634   4.375  1.0070  1.1185 -0.3353
  110MOL   C16739625   6.365   2.669   4.233 -0.0519 -0.0496 -0.6898
  110MOL   C16839626   6.460   2.795   4.231 -0.0103  0.3402 -0.1865
  110MOL   C16939627   6.557   2.805   4.352  0.1928  0.1651  0.7738
  110MOL   C17039628   6.673   2.908   4.334 -0.1524 -0.2123 -0.7473
  110MOL   O17139629   6.756   2.873   4.232 -0.0529  0.4781  0.1369
  110MOL   H17239630   6.397   2.589   4.432 -0.2843 -0.9818 -0.1045
  110MOL   H17339631   6.276   2.717   4.433  0.1710  0.3429  0.2163
  110MOL   H17439632   6.293   2.701   4.158 -0.9947 -2.5869 -0.9236
  110MOL   H17539633   6.427   2.592   4.187 -0.7089 -1.1292  0.2023
  110MOL   H17639634   6.394   2.881   4.229 -0.8718 -0.3396 -1.1467
  110MOL   H17739635   6.514   2.801   4.136 -1.4924  1.0193 -0.9862
  110MOL   H17839636   6.592   2.705   4.374  0.0148 -0.1516 -0.3482
  110MOL   H17939637   6.498   2.834   4.439  0.5719  2.2439  0.3643
  110MOL   H18039638   6.631   3.001   4.294  0.4605  0.2930 -0.2344
  110MOL   H18139639   6.726   2.928   4.427 -1.9812  2.8474 -0.2809
  110MOL   C18239640   6.857   2.785   4.254  0.0287 -0.1757  0.0896
  110MOL   O18339641   6.862   2.714   4.358  0.1488 -0.6433  0.3093
  110MOL   C18439642   6.960   2.766   4.143  0.4677  0.2359 -0.1324
  110MOL   C18539643   7.094   2.832   4.157 -0.3688 -0.5049 -0.2589
  110MOL   C18639644   7.198   2.739   4.216 -0.8359  0.4718  0.8655
  110MOL   C18739645   7.251   2.632   4.124  0.1767 -0.3291  0.4847
  110MOL   C18839646   7.371   2.563   4.184  0.4952  0.0846 -0.2052
  110MOL   O18939647   7.421   2.480   4.083  0.0950 -0.4090  0.4520
  110MOL   H19039648   6.927   2.798   4.045 -0.6435  2.7536  1.0323
  110MOL   H19139649   6.975   2.660   4.122 -1.8786  0.2134 -1.8574
  110MOL   H19239650   7.076   2.926   4.209 -0.4047 -0.3044 -0.6344
  110MOL   H19339651   7.130   2.860   4.058 -0.6145 -2.6016 -0.9620
  110MOL   H19439652   7.154   2.697   4.307  0.5257  0.3442  1.4726
  110MOL   H19539653   7.276   2.807   4.251 -1.5584  1.1146  1.2607
  110MOL   H19639654   7.289   2.687   4.038  2.2418  0.5619  1.9188
  110MOL   H19739655   7.173   2.563   4.092  1.4997 -1.2592 -0.7918
  110MOL   H19839656   7.449   2.630   4.222  1.9498 -2.5792  1.6448
  110MOL   H19939657   7.349   2.501   4.271  0.8651 -1.7052 -1.3616
  110MOL   C20039658   7.548   2.449   4.087 -0.3416 -0.6398 -0.6856
  110MOL   O20139659   7.623   2.476   4.181 -0.1322 -0.5478  0.1588
  110MOL   C20239660   7.598   2.364   3.976  0.4002  0.0751  0.0655
  110MOL   C20339661   7.594   2.212   4.011  0.2022 -0.2465 -0.1336
  110MOL   C20439662   7.649   2.141   3.886  0.3255 -0.5499  0.3243
  110MOL   C20539663   7.686   1.996   3.919  0.3117  0.1515 -0.0625
  110MOL   C20639664   7.711   1.920   3.788 -0.0198  0.1235 -0.5093
  110MOL   O20739665   7.800   1.979   3.692  0.6220  0.3435  0.4477
  110MOL   H20839666   7.703   2.392   3.960  0.6077 -1.5004 -1.4258
  110MOL   H20939667   7.545   2.386   3.884  0.7634 -0.5513 -0.2892
  110MOL   H21039668   7.492   2.184   4.036 -0.1710  1.3650  0.2140
  110MOL   H21139669   7.659   2.195   4.097  0.9326  0.7260 -0.4724
  110MOL   H21239670   7.737   2.183   3.838 -0.2283 -0.1511 -0.3615
  110MOL   H21339671   7.568   2.153   3.814  1.4909 -0.1389 -0.9390
  110MOL   H21439672   7.615   1.943   3.981 -0.1104  0.2367 -0.4659
  110MOL   H21539673   7.783   2.003   3.967  1.2468 -2.1719 -1.5503
  110MOL   H21639674   7.763   1.827   3.814 -0.6650 -0.1685 -0.2429
  110MOL   H21739675   7.619   1.893   3.735 -0.9650 -1.1223  1.7025
  110MOL   C21839676   7.783   1.944   3.565 -0.1338 -0.1343  0.5431
  110MOL   O21939677   7.718   1.852   3.524  0.2339 -0.2571 -0.4253
  110MOL   C22039678   7.840   2.055   3.476  0.5917  0.2203 -0.9601
  110MOL   C22139679   0.127   2.121   3.521 -0.4965  0.3986  0.0407
  110MOL   C22239680   0.198   2.209   3.416  1.3555 -0.0345  0.3639
  110MOL   C22339681   0.338   2.247   3.461  0.1321 -0.3649 -0.0711
  110MOL   C22439682   0.389   2.358   3.374  0.3678  0.3291  0.1804
  110MOL   O22539683   0.415   2.303   3.248 -0.2299  0.0139  0.0325
  110MOL   H22639684   7.770   2.136   3.453  1.5874  1.5491  0.5264
  110MOL   H22739685   0.022   2.010   3.380  0.6484 -0.9673 -0.3969
  110MOL   H22839686   0.194   2.035   3.523  0.8701  1.4517  4.0641
  110MOL   H22939687   0.127   2.161   3.622 -0.2462  0.9626 -0.1849
  110MOL   H23039688   0.139   2.296   3.386  1.0603 -0.0393  0.9159
  110MOL   H23139689   0.208   2.142   3.331 -0.9947 -0.1240  0.1312
  110MOL   H23239690   0.411   2.166   3.469  1.3081  0.6307 -0.5675
  110MOL   H23339691   0.325   2.294   3.558  0.9305  2.2617 -1.1955
  110MOL   H23439692   0.314   2.436   3.363  0.3574  0.7855  3.0430
  110MOL   H23539693   0.482   2.406   3.404  0.2020  1.3340 -0.8946
  110MOL   C23639694   0.432   2.397   3.148  0.6877 -0.8714  0.3020
  110MOL   O23739695   0.428   2.517   3.162 -0.0280  0.1738 -0.1015
  110MOL   C23839696   0.436   2.345   3.003  0.2360  0.7348 -1.3509
  110MOL   C23939697   0.578   2.360   2.952  0.1830 -0.3387  0.0814
  110MOL   C24039698   0.599   2.281   2.818 -0.3358  0.2329  0.0082
  110MOL   C24139699   0.738   2.231   2.794 -0.5325  0.1733 -0.1106
  110MOL   C24239700   0.830   2.345   2.736  0.5033  0.2265 -0.1234
  110MOL   O24339701   0.967   2.303   2.732  0.6277 -0.3106 -0.2677
  110MOL   H24439702   0.381   2.413   2.938  0.4668  1.4333 -0.8203
  110MOL   H24539703   0.394   2.246   2.990  1.1528 -0.2493  2.3900
  110MOL   H24639704   0.652   2.326   3.024  0.3098  0.6970  0.4513
  110MOL   H24739705   0.602   2.464   2.930  1.0955 -0.3502  1.0281
  110MOL   H24839706   0.570   2.359   2.748  2.8140  0.8814 -0.6273
  110MOL   H24939707   0.518   2.213   2.791 -0.6884  1.2263 -1.4901
  110MOL   H25039708   0.740   2.141   2.734 -0.5388 -0.3927  0.7348
  110MOL   H25139709   0.780   2.197   2.889 -0.7942  3.1188  1.1206
  110MOL   H25239710   0.792   2.368   2.637 -0.0453  2.0679  0.5122
  110MOL   H25339711   0.829   2.435   2.798  0.1682  0.9704 -1.1975
  110MOL   C25439712   1.032   2.294   2.611 -0.0492  0.4522  0.0713
  110MOL   O25539713   0.973   2.291   2.504 -0.7890  0.3849 -0.5343
  110MOL   C25639714   1.178   2.267   2.619 -0.2684 -0.0555  0.6111
  110MOL   C25739715   1.194   2.116   2.642 -0.5945  0.6723 -0.4650
  110MOL   C25839716   1.345   2.072   2.634  1.2402  0.1602 -0.0653
  110MOL   C25939717   1.366   1.926   2.672  0.1573 -0.3821 -0.5340
  110MOL   C26039718   1.506   1.874   2.621 -1.2189  0.5208  0.9038
  110MOL   O26139719   1.609   1.947   2.685  0.0002  0.9201  0.0310
  110MOL   H26239720   1.227   2.316   2.703 -2.7096  0.5976  1.6767
  110MOL   H26339721   1.218   2.308   2.526  2.2352 -2.2840  0.6602
  110MOL   H26439722   1.139   2.055   2.570 -1.7804  1.3395 -0.1423
  110MOL   H26539723   1.150   2.086   2.737 -1.2853  3.9921  0.3234
  110MOL   H26639724   1.411   2.149   2.675  1.2599  0.7488 -1.1679
  110MOL   H26739725   1.375   2.081   2.529  1.2476  2.0940  0.0777
  110MOL   H26839726   1.288   1.860   2.636  0.6275 -0.8826 -0.6320
  110MOL   H26939727   1.364   1.900   2.778  2.9092 -1.6176 -0.7499
  110MOL   H27039728   1.506   1.773   2.664 -1.8237  0.6500  1.2066
  110MOL   H27139729   1.513   1.882   2.513  1.6311 -2.0855  0.8054
  110MOL   C27239730   1.722   1.890   2.707 -0.8277  0.7895 -0.0653
  110MOL   O27339731   1.757   1.773   2.680  0.3422 -0.4109  0.1023
  110MOL   C27439732   1.815   1.990   2.788 -0.3592  0.0423  0.2087
  110MOL   C27539733   1.968   1.948   2.783  0.3780  0.7698 -0.0066
  110MOL   C27639734   2.026   1.942   2.925 -0.4771  0.1857 -0.3777
  110MOL   C27739735   2.177   1.911   2.917 -0.4820  0.3676  0.4633
  110MOL   C27839736   2.227   1.861   3.051 -0.3250 -0.3264 -0.4757
  110MOL   O27939737   2.206   1.957   3.157  0.0069  0.5970 -0.0595
  110MOL   H28039738   1.784   1.989   2.892 -2.4366  0.9458 -0.3546
  110MOL   H28139739   1.801   2.093   2.753 -0.1682  0.6659  1.9260
  110MOL   H28239740   2.022   2.002   2.706  0.7898 -3.0094 -2.4525
  110MOL   H28339741   1.974   1.847   2.744 -0.2534  0.7344 -0.0144
  110MOL   H28439742   1.980   1.876   2.998 -0.7111  0.3868 -0.3424
  110MOL   H28539743   2.015   2.044   2.963 -1.7441  0.0489 -0.3552
  110MOL   H28639744   2.228   2.005   2.896 -0.0434 -0.2073 -1.1186
  110MOL   H28739745   2.209   1.841   2.839  0.1320 -0.7097  1.6652
  110MOL   H28839746   2.162   1.778   3.080 -0.9938 -0.8039 -3.2043
  110MOL   H28939747   2.332   1.830   3.057  0.0541  1.0684  0.3863
  110MOL   C29039748   2.132   1.920   3.266  0.1538  0.2668 -0.1990
  110MOL   O29139749   2.064   1.820   3.274 -0.4026 -0.3808  0.4889
  110MOL   C29239750   2.130   2.022   3.379  0.6489  0.2858  0.3001
  110MOL   C29339751   2.045   2.147   3.336  0.2847 -0.3404 -0.4003
  110MOL   C29439752   1.901   2.122   3.286  0.6454  0.0842 -0.6094
  110MOL   C29539753   1.828   2.256   3.277  0.1711 -0.4545  0.1725
  110MOL   C29639754   1.682   2.239   3.220 -0.5568  0.7248  0.6687
  110MOL   O29739755   1.596   2.182   3.319 -0.3202 -0.0942  0.8775
  110MOL   H29839756   2.234   2.048   3.402  1.3019 -1.1705 -0.9208
  110MOL   H29939757   2.087   1.987   3.472  0.8681 -0.6103  0.0690
  110MOL   H30039758   2.106   2.184   3.254  1.0701 -2.3499 -0.7444
  110MOL   H30139759   2.055   2.224   3.413 -0.4564  0.6071 -1.2303
  110MOL   H30239760   1.842   2.066   3.358  3.2378  3.5649  4.4690
  110MOL   H30339761   1.888   2.061   3.196  0.6772  0.3626 -0.8023
  110MOL   H30439762   1.879   2.335   3.222 -0.6836  0.4679  0.7043
  110MOL   H30539763   1.815   2.306   3.373  0.4380  1.0790 -0.5751
  110MOL   H30639764   1.627   2.332   3.203 -1.5227 -0.2248 -1.7646
  110MOL   H30739765   1.686   2.176   3.131 -1.7086  0.7058  0.6204
  110MOL   C30839766   1.520   2.077   3.296 -0.0869  0.9186 -0.3465
  110MOL   O30939767   1.500   2.020   3.190 -0.6493 -0.3523 -0.1509
  110MOL   C31039768   1.465   2.020   3.426  0.5480  0.0439 -0.2308
  110MOL   C31139769   1.576   1.945   3.512 -0.6788 -0.5838  0.6688
  110MOL   C31239770   1.618   1.810   3.470 -0.5279 -0.8196 -0.1176
  110MOL   C31339771   1.720   1.739   3.559 -0.1935 -0.3504  0.5362
  110MOL   C31439772   1.864   1.800   3.553  0.3339  0.5359 -0.1846
  110MOL   O31539773   1.940   1.698   3.615  0.1394 -0.4540 -0.6311
  110MOL   H31639774   1.379   1.954   3.413  0.2912 -0.1447  2.2277
  110MOL   H31739775   1.408   2.096   3.480 -1.4956 -1.8643  0.4317
  110MOL   H31839776   1.541   1.932   3.614 -0.0665 -2.4325  0.6626
  110MOL   H31939777   1.661   2.013   3.520 -1.5182  0.8113 -1.7199
  110MOL   H32039778   1.650   1.818   3.366  1.0290 -0.9163  0.3435
  110MOL   H32139779   1.527   1.752   3.455 -0.0812 -0.8611 -3.1153
  110MOL   H32239780   1.725   1.635   3.528  0.4064 -0.0653 -0.3406
  110MOL   H32339781   1.694   1.730   3.665  0.2201  0.1888  0.6857
  110MOL   H32439782   1.897   1.817   3.450 -1.7113  1.5446 -0.6994
  110MOL   H32539783   1.876   1.888   3.615 -1.3170  0.2403  0.5648
  110MOL   C32639784   1.951   1.693   3.754 -0.2287 -0.0136 -0.0454
  110MOL   O32739785   1.884   1.762   3.834  0.3330 -0.0851  0.0976
  110MOL   C32839786   2.046   1.584   3.800 -0.1443  0.9968 -0.1605
  110MOL   C32939787   2.135   1.639   3.908 -0.4554 -0.6877  0.1903
  110MOL   C33039788   2.271   1.557   3.911  0.4462 -0.1517  0.1137
  110MOL   C33139789   2.335   1.564   4.046 -0.5689  0.5817  0.0163
  110MOL   C33239790   2.450   1.462   4.039 -0.0137  0.4492 -0.3220
  110MOL   O33339791   2.415   1.330   4.013 -0.4454  0.0584  0.2595
  110MOL   H33439792   2.106   1.542   3.720 -2.5727 -0.3243 -1.3418
  110MOL   H33539793   1.988   1.499   3.835  1.6512 -0.4043 -0.5270
  110MOL   H33639794   2.092   1.627   4.008  2.9857 -0.7031  1.7196
  110MOL   H33739795   2.153   1.744   3.887  1.6542 -1.2287 -0.8350
  110MOL   H33839796   2.335   1.609   3.840 -1.1830  0.0025 -1.2664
  110MOL   H33939797   2.253   1.456   3.875 -1.3587  0.5175 -0.9653
  110MOL   H34039798   2.263   1.539   4.123 -0.0224 -0.3930  0.2089
  110MOL   H34139799   2.364   1.667   4.069 -1.0194  0.5365  0.8092
  110MOL   H34239800   2.520   1.497   3.964  0.4974 -1.5023 -0.7774
  110MOL   H34339801   2.499   1.460   4.137 -0.0662 -2.9679 -0.3080
  110MOL   C34439802   2.517   1.248   3.987 -0.0041 -0.1161  0.2504
  110MOL   O34539803   2.633   1.276   3.998 -0.4480  0.6984 -0.4185
  110MOL   C34639804   2.469   1.108   3.931 -0.4512  0.8777 -0.6141
  110MOL   C34739805   2.458   0.984   4.025  0.1070 -0.4207  0.0756
  110MOL   C34839806   2.364   0.988   4.144  0.2272  0.1172 -0.0066
  110MOL   C34939807   2.383   0.865   4.234 -0.1331  0.2174  0.0038
  110MOL   C35039808   2.293   0.870   4.361  0.1548  0.1285 -0.3482
  110MOL   O35139809   2.160   0.873   4.324  0.7616  0.0743 -0.4290
  110MOL   H35239810   2.524   1.080   3.841  1.6693  2.8654  0.0040
  110MOL   H35339811   2.367   1.106   3.893 -0.5229 -4.1559 -0.3996
  110MOL   H35439812   2.558   0.954   4.057  0.4387 -0.9075 -1.3586
  110MOL   H35539813   2.439   0.886   3.981 -0.6272  0.0233 -0.5893
  110MOL   H35639814   2.262   1.002   4.109  0.3256 -1.9223 -1.1913
  110MOL   H35739815   2.388   1.074   4.206 -1.0122 -0.4728  1.3186
  110MOL   H35839816   2.483   0.879   4.276  0.9594 -1.5363 -1.9052
  110MOL   H35939817   2.365   0.772   4.180 -1.3238 -1.9608  4.0197
  110MOL   H36039818   2.311   0.781   4.421 -2.0424 -1.8696 -2.5397
  110MOL   H36139819   2.313   0.963   4.415 -0.5529  1.4578 -2.2974
  110MOL   H36239820   2.141   0.786   4.293 -3.0685  1.2181 -1.5912
  111MOL     C139821   5.662   1.051   3.878  0.1557 -0.1934  0.1871
  111MOL     O239822   5.660   1.070   3.757  0.2662 -0.3857 -0.0671
  111MOL     C339823   5.619   0.926   3.948  1.1004 -0.3646 -0.2252
  111MOL     C439824   5.710   0.805   3.913 -0.0705 -0.4796  0.7397
  111MOL     C539825   5.686   0.737   3.779  0.7026 -0.4631 -0.4358
  111MOL     C639826   5.757   0.601   3.761 -0.2427 -0.0367 -0.8632
  111MOL     C739827   5.909   0.611   3.737  0.4156 -0.4971  0.8286
  111MOL     O839828   5.970   0.485   3.732  0.2431  0.3715  0.5533
  111MOL     H939829   5.519   0.911   3.908  1.4291  1.7535 -1.9549
  111MOL    H1039830   5.617   0.939   4.056 -4.8555  0.3895 -0.2542
  111MOL    H1139831   5.681   0.726   3.981 -1.2182 -1.7433 -1.1579
  111MOL    H1239832   5.816   0.806   3.936 -0.3213 -1.4607  1.9600
  111MOL    H1339833   5.709   0.809   3.701  1.2585  2.2681  2.1480
  111MOL    H1439834   5.578   0.724   3.776  0.7687 -1.0537 -0.4375
  111MOL    H1539835   5.718   0.541   3.679  0.7783  0.1894 -1.5272
  111MOL    H1639836   5.732   0.539   3.847 -0.6210  3.0556  1.3551
  111MOL    H1739837   5.931   0.679   3.654  0.9019  0.9063  2.0791
  111MOL    H1839838   5.952   0.660   3.824 -2.1766 -0.5299  2.1642
  111MOL    H1939839   5.689   1.136   3.941 -0.0061 -1.1806  1.6329
  111MOL    C2039840   6.098   0.482   3.696  0.1160 -0.1412  0.7992
  111MOL    O2139841   6.184   0.572   3.709 -0.2664 -0.2936  0.3180
  111MOL    C2239842   6.145   0.340   3.649 -0.5994 -1.3053  0.4708
  111MOL    C2339843   6.065   0.280   3.535 -0.7586 -0.3844 -0.0440
  111MOL    C2439844   6.051   0.374   3.418 -0.0079  0.8387  0.2440
  111MOL    C2539845   6.003   0.293   3.297  0.4944 -0.1433  0.0324
  111MOL    C2639846   5.983   0.382   3.174 -0.4803 -0.3258  0.7864
  111MOL    O2739847   5.862   0.455   3.191  0.2354 -0.1921 -0.2268
  111MOL    H2839848   6.144   0.288   3.745  2.3583  3.0936  3.0562
  111MOL    H2939849   6.251   0.351   3.625 -0.7571 -0.2320  0.2423
  111MOL    H3039850   5.971   0.238   3.572 -1.6477  0.9081 -0.7731
  111MOL    H3139851   6.116   0.190   3.502  0.1895 -0.4779  1.6243
  111MOL    H3239852   6.152   0.409   3.397 -0.3733  0.8079 -1.6392
  111MOL    H3339853   5.988   0.457   3.450  0.1564  1.8469 -1.9371
  111MOL    H3439854   5.910   0.239   3.314  2.2466 -3.4767 -0.4807
  111MOL    H3539855   6.081   0.223   3.266  0.3341  0.8915 -2.8366
  111MOL    H3639856   6.065   0.453   3.168 -0.3045 -0.6174 -0.4415
  111MOL    H3739857   5.983   0.325   3.081 -0.5425  0.8259  0.0720
  111MOL    C3839858   5.825   0.550   3.115 -0.0770  0.5568 -0.0078
  111MOL    O3939859   5.891   0.585   3.023 -0.6296  0.4764  1.1202
  111MOL    C4039860   5.691   0.603   3.150  1.1099 -0.0481  0.4410
  111MOL    C4139861   5.693   0.683   3.286 -0.5456 -0.3389  0.2581
  111MOL    C4239862   5.577   0.769   3.304 -0.2507 -0.2836 -0.4020
  111MOL    C4339863   5.586   0.845   3.438 -0.8814 -0.0021 -0.5083
  111MOL    C4439864   5.488   0.954   3.461 -0.0578 -0.0843 -0.3886
  111MOL    O4539865   5.363   0.902   3.434 -0.2482  0.2651  0.1489
  111MOL    H4639866   5.618   0.523   3.160  0.7707  0.1732 -0.2478
  111MOL    H4739867   5.648   0.667   3.073 -0.3882 -1.0373  0.4394
  111MOL    H4839868   5.772   0.758   3.287  0.1730 -1.0812 -0.3853
  111MOL    H4939869   5.703   0.611   3.367 -0.4711  0.3933  0.9042
  111MOL    H5039870   5.492   0.702   3.316  0.1293 -1.0763 -1.8884
  111MOL    H5139871   5.555   0.843   3.227  0.4996 -2.1505 -2.5052
  111MOL    H5239872   5.683   0.895   3.438 -1.0405  0.3215  0.7121
  111MOL    H5339873   5.589   0.784   3.529  0.0034  0.3789 -0.2725
  111MOL    H5439874   5.503   0.988   3.564  1.8146  0.4742 -0.8269
  111MOL    H5539875   5.498   1.037   3.391  2.3351  0.7026  0.8113
  111MOL    C5639876   5.288   0.836   3.523  0.2305  0.1095 -0.0585
  111MOL    O5739877   5.310   0.820   3.643  0.0721  0.3187 -0.1296
  111MOL    C5839878   5.157   0.796   3.455 -0.0816  0.3143 -0.2658
  111MOL    C5939879   5.118   0.888   3.333 -0.2560  0.2260 -0.0311
  111MOL    C6039880   4.979   0.842   3.285 -0.1084  0.0973 -0.3793
  111MOL    C6139881   4.933   0.911   3.159  0.0692  0.0754  0.4010
  111MOL    C6239882   4.799   0.857   3.116 -0.1281 -0.1488 -0.1048
  111MOL    O6339883   4.746   0.931   2.998  0.2549 -0.1809  0.0778
  111MOL    H6439884   5.077   0.801   3.530  2.0797  0.3703  2.1164
  111MOL    H6539885   5.165   0.691   3.427 -4.1524 -0.5047  1.1493
  111MOL    H6639886   5.190   0.870   3.253 -1.9870 -0.4837 -1.4633
  111MOL    H6739887   5.121   0.992   3.365  1.9095 -0.0025  0.5904
  111MOL    H6839888   4.909   0.860   3.367  3.5507 -0.3843  2.9806
  111MOL    H6939889   4.977   0.734   3.267  1.4761  0.1700 -1.0006
  111MOL    H7039890   5.002   0.893   3.076 -0.5644 -1.1264  0.1233
  111MOL    H7139891   4.929   1.017   3.185  1.4649 -0.3201  2.2940
  111MOL    H7239892   4.795   0.750   3.096 -2.2115  0.0468 -0.8518
  111MOL    H7339893   4.740   0.875   3.205  0.4831 -0.5767  0.3910
  111MOL    C7439894   4.694   0.867   2.893 -0.1425 -0.7087 -0.2803
  111MOL    O7539895   4.702   0.744   2.877  0.1585 -0.4834  0.1472
  111MOL    C7639896   4.630   0.964   2.786 -1.1265  0.3363  0.1180
  111MOL    C7739897   4.631   0.891   2.656  0.2517 -0.3429 -0.4659
  111MOL    C7839898   4.757   0.905   2.571  0.1841 -0.2794  0.4935
  111MOL    C7939899   4.728   0.864   2.430  0.3772 -0.5832  0.5753
  111MOL    C8039900   4.858   0.849   2.350  0.6196 -0.6257  0.0170
  111MOL    O8139901   4.932   0.972   2.363  0.3118 -0.7275 -0.3279
  111MOL    H8239902   4.678   1.062   2.792 -0.1729 -0.2020  1.5235
  111MOL    H8339903   4.530   0.988   2.821 -1.4692  0.8180 -1.1891
  111MOL    H8439904   4.557   0.950   2.601  1.9866  0.1467 -2.3486
  111MOL    H8539905   4.601   0.786   2.657 -0.4400 -0.1642 -1.4047
  111MOL    H8639906   4.840   0.846   2.608 -0.2473 -2.3652 -1.7519
  111MOL    H8739907   4.788   1.010   2.574  0.0277 -0.2525  1.2812
  111MOL    H8839908   4.666   0.943   2.387 -0.0071 -0.3416  1.5636
  111MOL    H8939909   4.673   0.769   2.425 -0.4646 -0.2551  3.0789
  111MOL    H9039910   4.920   0.761   2.365  0.7047 -0.4478  0.7130
  111MOL    H9139911   4.818   0.840   2.249 -3.9697 -0.3932  1.6906
  111MOL    C9239912   5.050   0.996   2.308 -0.4458 -0.4650  1.1038
  111MOL    O9339913   5.096   0.923   2.221 -0.2804 -0.3644  0.0851
  111MOL    C9439914   5.112   1.130   2.349 -0.0610 -0.6914 -0.2253
  111MOL    C9539915   5.251   1.152   2.293 -0.3541 -0.5126 -0.6799
  111MOL    C9639916   5.354   1.065   2.358 -1.3243  0.3788 -0.2387
  111MOL    C9739917   5.497   1.097   2.324  0.1051  0.2529  0.5662
  111MOL    C9839918   5.599   0.987   2.349  0.3397 -0.1140  0.8938
  111MOL    O9939919   5.722   1.028   2.295 -0.4895 -0.2041  0.1176
  111MOL   H10039920   5.112   1.143   2.458  2.8547  0.1324 -0.2947
  111MOL   H10139921   5.044   1.200   2.300 -1.7859 -1.7782  0.5313
  111MOL   H10239922   5.284   1.255   2.304 -1.6271 -0.0435 -1.2161
  111MOL   H10339923   5.235   1.152   2.185  0.3279  0.5573 -0.7910
  111MOL   H10439924   5.335   0.969   2.311  0.3699 -0.6700  1.1962
  111MOL   H10539925   5.333   1.050   2.463 -2.9591  0.0655 -0.5940
  111MOL   H10639926   5.518   1.192   2.371  1.0180 -0.3013  1.2964
  111MOL   H10739927   5.503   1.124   2.218 -0.8326  1.7581  0.8896
  111MOL   H10839928   5.617   0.968   2.455  2.0595 -3.6734  0.0418
  111MOL   H10939929   5.569   0.893   2.302  0.4418  0.8089 -1.0684
  111MOL   C11039930   5.831   0.968   2.338 -0.9686 -0.1025 -0.0645
  111MOL   O11139931   5.838   0.889   2.435  0.0011  0.4143 -0.2841
  111MOL   C11239932   5.957   1.003   2.255  0.0176  0.1465 -0.5471
  111MOL   C11339933   6.047   0.880   2.220 -0.6309 -0.1605 -0.1796
  111MOL   C11439934   5.991   0.796   2.111 -0.2126  0.4986  0.1781
  111MOL   C11539935   6.056   0.651   2.125  0.4487  0.4668 -0.3580
  111MOL   C11639936   5.992   0.545   2.029 -0.5487  0.2428 -0.1812
  111MOL   O11739937   5.853   0.517   2.049 -0.3070 -0.1739  0.4939
  111MOL   H11839938   6.020   1.070   2.314 -0.9790  0.3227  0.3233
  111MOL   H11939939   5.924   1.049   2.162  1.7824 -0.0419 -1.2895
  111MOL   H12039940   6.054   0.826   2.314  0.7365  0.1172 -0.1060
  111MOL   H12139941   6.147   0.913   2.192 -0.8681 -0.2981 -1.2022
  111MOL   H12239942   6.018   0.833   2.012  0.0149 -0.7523 -0.2457
  111MOL   H12339943   5.883   0.782   2.119  0.1072 -1.2998  1.7844
  111MOL   H12439944   6.034   0.623   2.228  0.6615  0.1799 -0.3901
  111MOL   H12539945   6.163   0.647   2.108  0.3529  0.0176 -0.8677
  111MOL   H12639946   6.020   0.566   1.926 -2.0418  3.7616  0.0730
  111MOL   H12739947   6.038   0.447   2.045 -1.9360 -0.4939 -0.6434
  111MOL   C12839948   5.764   0.548   1.952  0.6234  0.3656  0.0664
  111MOL   O12939949   5.790   0.620   1.852 -0.3104 -0.0362  0.2541
  111MOL   C13039950   5.628   0.476   1.966  0.3403 -0.6148  0.4976
  111MOL   C13139951   5.508   0.565   2.005  0.2309 -0.3912 -0.2636
  111MOL   C13239952   5.518   0.611   2.149  0.7384 -0.5332 -0.7097
  111MOL   C13339953   5.395   0.691   2.187  0.3984  0.2706  0.1183
  111MOL   C13439954   5.358   0.658   2.331 -0.3249  0.2128 -0.0883
  111MOL   O13539955   5.347   0.520   2.364 -0.1362  0.0847  0.5997
  111MOL   H13639956   5.628   0.396   2.040 -0.6360 -0.5082  0.6156
  111MOL   H13739957   5.609   0.425   1.872  0.9723 -0.4713  0.2869
  111MOL   H13839958   5.416   0.509   1.988 -1.5057  1.9643  1.1279
  111MOL   H13939959   5.518   0.651   1.939  0.8366  1.1510  1.7635
  111MOL   H14039960   5.604   0.676   2.166  1.2710 -1.7471  1.4592
  111MOL   H14139961   5.539   0.525   2.213  2.0537  1.9568  2.3596
  111MOL   H14239962   5.313   0.663   2.120 -1.9951  0.4803  2.8793
  111MOL   H14339963   5.426   0.795   2.185 -1.5150  0.8355 -1.7772
  111MOL   H14439964   5.432   0.704   2.397 -0.0666  1.5604 -1.2805
  111MOL   H14539965   5.269   0.715   2.355 -0.8578  0.7270 -3.0459
  111MOL   C14639966   5.296   0.478   2.477  0.0602  0.2998 -0.1829
  111MOL   O14739967   5.237   0.539   2.560  0.1436  0.2188 -0.5123
  111MOL   C14839968   5.329   0.330   2.495 -0.4750  0.1696 -0.4132
  111MOL   C14939969   5.308   0.276   2.641 -0.6226  0.1966 -0.3552
  111MOL   C15039970   5.438   0.316   2.717  0.3282 -0.0334  0.0414
  111MOL   C15139971   5.443   0.253   2.860 -0.1616 -1.1682 -0.2567
  111MOL   C15239972   5.539   0.323   2.959  0.3563 -1.0888 -0.9362
  111MOL   O15339973   5.667   0.329   2.895  0.1971  0.0888  0.1413
  111MOL   H15439974   5.435   0.318   2.470 -0.2443  0.3076  0.4754
  111MOL   H15539975   5.270   0.276   2.422  0.2274 -0.6367 -0.3890
  111MOL   H15639976   5.295   0.168   2.637  2.9885 -0.4110  1.9990
  111MOL   H15739977   5.216   0.314   2.686  0.3045  2.2925 -0.1489
  111MOL   H15839978   5.441   0.424   2.730  0.7474  0.0287 -0.5209
  111MOL   H15939979   5.534   0.298   2.669  1.7157  2.0372  1.9052
  111MOL   H16039980   5.470   0.149   2.845 -0.5578 -1.1143 -1.3356
  111MOL   H16139981   5.342   0.250   2.901  0.3565  1.5541  1.3380
  111MOL   H16239982   5.508   0.424   2.985  0.1658 -1.1631 -0.8711
  111MOL   H16339983   5.543   0.263   3.049 -1.7366  1.2567  0.7948
  111MOL   C16439984   5.747   0.220   2.919 -0.1506  0.0483 -0.3507
  111MOL   O16539985   5.720   0.122   2.993  0.0001 -0.0274 -0.0076
  111MOL   C16639986   5.879   0.236   2.839 -0.3557 -0.1480 -1.0761
  111MOL   C16739987   6.003   0.155   2.884  0.3104  0.0204 -0.0798
  111MOL   C16839988   6.005   0.017   2.818 -0.5842 -0.8321 -0.0584
  111MOL   C16939989   6.144   7.791   2.836 -0.1886 -0.1997  0.0540
  111MOL   C17039990   6.150   7.645   2.786 -0.0690 -0.0088  0.2598
  111MOL   O17139991   6.063   7.560   2.856 -0.0691 -0.0433  0.0996
  111MOL   H17239992   5.901   0.342   2.855  0.8639 -0.6440  0.7542
  111MOL   H17339993   5.848   0.214   2.737  3.0256 -1.2093 -1.9566
  111MOL   H17439994   6.001   0.141   2.992 -4.2140 -1.1284 -0.2489
  111MOL   H17539995   6.085   0.224   2.861  1.7507 -2.1839 -1.8116
  111MOL   H17639996   5.974   0.022   2.714  0.9534  0.3438 -0.4648
  111MOL   H17739997   5.926   7.801   2.864 -2.0851  0.4243 -0.9392
  111MOL   H17839998   6.177   7.801   2.939  2.7167 -1.1993 -0.7347
  111MOL   H17939999   6.218   0.001   2.778 -1.1254  0.7726 -0.2464
  111MOL   H18040000   6.124   7.643   2.680  1.1052 -0.9991 -0.0142
  111MOL   H18140001   6.250   7.603   2.796 -0.1320  0.3840  2.9348
  111MOL   C18240002   5.957   7.505   2.803 -0.1289 -0.1432 -0.5509
  111MOL   O18340003   5.906   7.528   2.690 -0.0194  0.3231  0.2712
  111MOL   C18440004   5.894   7.405   2.904 -0.1893 -0.5587  0.3143
  111MOL   C18540005   5.755   7.350   2.870 -0.4688 -0.2359 -0.1020
  111MOL   C18640006   5.721   7.235   2.967 -0.2721 -0.0091 -0.1626
  111MOL   C18740007   5.744   7.265   3.116  0.2788  0.2152 -0.5987
  111MOL   C18840008   5.678   7.155   3.213 -0.6438 -0.0659  0.5077
  111MOL   O18940009   5.542   7.173   3.211  0.6440  0.0503  0.4587
  111MOL   H19040010   5.885   7.462   2.996 -2.4592 -0.6235  0.1467
  111MOL   H19140011   5.961   7.327   2.940  1.0765  0.4580  0.2001
  111MOL   H19240012   5.735   7.325   2.765 -0.4715  1.2333 -0.4610
  111MOL   H19340013   5.679   7.428   2.881 -0.3741 -0.3164  1.2077
  111MOL   H19440014   5.786   7.148   2.959 -0.1336 -0.0314  1.0424
  111MOL   H19540015   5.616   7.209   2.955 -0.1611 -0.8278  0.5770
  111MOL   H19640016   5.697   7.363   3.128  2.1495  1.2445 -1.3827
  111MOL   H19740017   5.852   7.268   3.131 -0.1747  0.4565  3.1707
  111MOL   H19840018   5.711   7.053   3.194  2.0548  0.6895  0.8944
  111MOL   H19940019   5.715   7.179   3.313 -1.9122 -3.2763  1.8359
  111MOL   C20040020   5.461   7.072   3.162  0.2720  0.6221  0.8222
  111MOL   O20140021   5.502   6.970   3.113 -0.0509 -0.1950 -0.4796
  111MOL   C20240022   5.314   7.106   3.163 -0.1387  0.0007  0.3316
  111MOL   C20340023   5.282   7.231   3.077  0.4808 -0.0316  0.7602
  111MOL   C20440024   5.288   7.377   3.128 -0.0759 -0.0029 -0.3838
  111MOL   C20540025   5.250   7.487   3.032 -0.8794  0.1284  0.1895
  111MOL   C20640026   5.318   7.619   3.075 -0.1804 -0.6405 -0.0732
  111MOL   O20740027   5.231   7.678   3.179  0.5351  0.2992 -0.3000
  111MOL   H20840028   5.285   7.131   3.265 -0.6986  1.2798 -0.1350
  111MOL   H20940029   5.256   7.017   3.140  2.4092 -1.4179 -0.8210
  111MOL   H21040030   5.186   7.203   3.033 -0.2902  1.9205  1.1291
  111MOL   H21140031   5.344   7.238   2.989 -0.3082  0.3779  0.2316
  111MOL   H21240032   5.391   7.403   3.155  0.1099 -1.6086  0.5420
  111MOL   H21340033   5.234   7.382   3.223  0.7761 -0.3553  0.1255
  111MOL   H21440034   5.142   7.497   3.031 -0.7617  1.9356  2.0323
  111MOL   H21540035   5.281   7.474   2.928 -0.0672 -0.4622  0.5036
  111MOL   H21640036   5.421   7.600   3.104  0.1078 -1.9643 -1.9200
  111MOL   H21740037   5.322   7.691   2.994 -2.0469  1.9154  1.9956
  111MOL   C21840038   5.253   7.788   3.234 -0.0021 -0.1109  0.2917
  111MOL   O21940039   5.352   0.014   3.223 -0.4269 -0.3367 -0.7128
  111MOL   C22040040   5.139   7.835   3.328  0.1120 -0.1934 -0.0733
  111MOL   C22140041   5.178   0.103   3.436  0.1237 -0.3810 -0.2017
  111MOL   C22240042   5.098   0.109   3.566 -0.1709 -0.2394  0.2250
  111MOL   C22340043   5.105   7.821   3.647  0.0355  0.2878  0.0166
  111MOL   C22440044   5.034   7.836   3.780  0.3191  0.2511  0.1291
  111MOL   O22540045   5.045   7.717   3.851  0.6629  0.2934  0.0878
  111MOL   H22640046   5.105   7.746   3.380  0.8233  0.0934  0.8964
  111MOL   H22740047   5.050   0.029   3.278  1.2445  1.8871 -0.5647
  111MOL   H22840048   5.183   0.203   3.392  0.1024 -0.7641 -1.0767
  111MOL   H22940049   5.282   0.088   3.465  0.1726  1.7379  0.8265
  111MOL   H23040050   4.996   0.127   3.533  0.3040  0.2642 -0.9734
  111MOL   H23140051   5.134   0.194   3.623  1.7651 -0.6706 -0.3339
  111MOL   H23240052   5.205   7.793   3.680 -0.4681 -1.1162  0.3748
  111MOL   H23340053   5.067   7.735   3.592  1.1674 -0.9207  1.0811
  111MOL   H23440054   5.063   0.069   3.851 -0.8481 -1.0119  2.0229
  111MOL   H23540055   4.929   0.016   3.767 -0.0550  0.4826  3.0973
  111MOL   C23640056   4.940   7.641   3.888 -0.4357 -0.8361  0.0064
  111MOL   O23740057   4.824   7.670   3.870  0.0392 -0.3396  0.1493
  111MOL   C23840058   4.979   7.508   3.959 -0.2823 -0.6085  1.3087
  111MOL   C23940059   5.106   7.508   4.040  0.2273  0.5868  0.0470
  111MOL   C24040060   5.225   7.465   3.950 -0.6112  0.3167  0.2908
  111MOL   C24140061   5.359   7.493   4.017 -0.2630  0.4716  0.7334
  111MOL   C24240062   5.474   7.478   3.917 -0.2934 -0.5849  0.0560
  111MOL   O24340063   5.601   7.475   3.966  0.6322  0.4253 -0.2339
  111MOL   H24440064   4.974   7.427   3.886 -0.6132  1.7284 -1.3820
  111MOL   H24540065   4.900   7.485   4.029 -0.1460 -2.3575  0.9162
  111MOL   H24640066   5.095   7.426   4.112 -2.9548  0.2738 -0.7090
  111MOL   H24740067   5.133   7.598   4.095  1.0752 -0.5134  1.4542
  111MOL   H24840068   5.228   7.534   3.866  0.9327  1.3244  1.1458
  111MOL   H24940069   5.200   7.368   3.906 -0.4518  1.2722 -1.9632
  111MOL   H25040070   5.377   7.418   4.094  2.2720  0.1086 -0.1586
  111MOL   H25140071   5.354   7.588   4.069 -2.1402  1.7123 -1.6634
  111MOL   H25240072   5.459   7.380   3.872  1.1324 -1.8065  2.1042
  111MOL   H25340073   5.466   7.552   3.838  1.5318  0.1575  0.5332
  111MOL   C25440074   5.662   7.365   4.028  0.5550  0.1187  0.1479
  111MOL   O25540075   5.608   7.260   4.067  0.3940  0.4139 -0.1894
  111MOL   C25640076   5.810   7.387   4.050  0.3278 -0.8367 -0.0948
  111MOL   C25740077   5.890   7.421   3.923 -0.5921 -0.8237  0.1612
  111MOL   C25840078   5.903   7.299   3.830  0.4089 -0.3507  0.6105
  111MOL   C25940079   5.930   7.338   3.685  0.2157 -0.2799  0.3458
  111MOL   C26040080   5.893   7.222   3.588  0.5347  0.1731 -0.0987
  111MOL   O26140081   5.973   7.105   3.620  0.2394  0.2255 -0.1911
  111MOL   H26240082   5.858   7.308   4.109  3.3300  0.6595 -0.4259
  111MOL   H26340083   5.807   7.465   4.127  0.9447  0.2123 -1.1162
  111MOL   H26440084   5.984   7.465   3.956 -0.7509  0.0609 -0.5426
  111MOL   H26540085   5.840   7.503   3.871  0.4952 -0.1412  0.1784
  111MOL   H26640086   5.805   7.251   3.829 -0.3662  1.1521  1.7675
  111MOL   H26740087   5.969   7.222   3.869  0.8454 -0.7129 -0.8486
  111MOL   H26840088   6.036   7.354   3.664 -0.4167  2.3503 -1.1153
  111MOL   H26940089   5.876   7.426   3.650  0.7656 -0.6820 -1.5368
  111MOL   H27040090   5.788   7.195   3.601  1.0189 -0.6907  2.3346
  111MOL   H27140091   5.905   7.253   3.484 -1.6691  0.2396 -0.3610
  111MOL   C27240092   5.978   7.013   3.530 -0.1085  0.6463  0.7150
  111MOL   O27340093   5.920   7.021   3.417 -1.0008  0.4163 -0.1610
  111MOL   C27440094   6.066   6.895   3.556  0.6754 -0.0051  0.2702
  111MOL   C27540095   6.017   6.764   3.484 -0.0848  0.6677 -0.0535
  111MOL   C27640096   6.069   6.634   3.548 -0.4449 -0.2871 -0.0489
  111MOL   C27740097   5.981   6.513   3.526  0.8201 -0.2467  0.0269
  111MOL   C27840098   6.025   6.400   3.619  0.0852 -0.1893 -0.1072
  111MOL   O27940099   6.138   6.327   3.559 -0.2710  0.5903 -0.0748
  111MOL   H28040100   6.080   6.888   3.664 -0.7316 -1.8889  0.3605
  111MOL   H28140101   6.170   6.915   3.531  1.7559 -1.9348  3.0070
  111MOL   H28240102   6.038   6.780   3.378  0.0944  0.7304 -0.0082
  111MOL   H28340103   5.908   6.763   3.484 -0.0792 -0.1650 -0.2968
  111MOL   H28440104   6.075   6.654   3.655 -0.4895  0.0793 -0.1116
  111MOL   H28540105   6.168   6.612   3.509  0.3868  0.4754  1.5912
  111MOL   H28640106   5.984   6.482   3.422 -1.5658  0.4125 -0.2662
  111MOL   H28740107   5.875   6.526   3.548  0.5904  1.4188 -1.9344
  111MOL   H28840108   6.047   6.430   3.722  0.8634  2.5486 -1.0189
  111MOL   H28940109   5.948   6.323   3.619 -0.2356  0.1320 -0.1802
  111MOL   C29040110   6.205   6.244   3.630 -0.2049  0.0846  0.3622
  111MOL   O29140111   6.195   6.215   3.749  0.0445 -0.6405 -0.1440
  111MOL   C29240112   6.317   6.188   3.539 -0.6016  0.3453 -0.0001
  111MOL   C29340113   6.437   6.286   3.525 -0.2442  0.2049  0.0019
  111MOL   C29440114   6.405   6.412   3.446 -0.5401  0.1031 -0.0813
  111MOL   C29540115   6.370   6.389   3.298  0.7941 -0.0169 -0.4312
  111MOL   C29640116   6.331   6.512   3.225 -0.5625 -0.3058  0.4480
  111MOL   O29740117   6.450   6.591   3.216 -0.0144  0.3923 -0.2904
  111MOL   H29840118   6.286   6.164   3.437 -3.0335  2.3990  0.1696
  111MOL   H29940119   6.343   6.097   3.592 -0.9815  0.6481  0.7265
  111MOL   H30040120   6.521   6.236   3.476 -0.3387 -1.2801  1.3221
  111MOL   H30140121   6.477   6.312   3.622 -0.8137  0.1172  0.2611
  111MOL   H30240122   6.496   6.473   3.446 -0.4667  0.0181  1.7086
  111MOL   H30340123   6.330   6.472   3.498 -1.9676  0.6346 -2.6982
  111MOL   H30440124   6.280   6.327   3.294  0.8977 -0.2742  0.9318
  111MOL   H30540125   6.453   6.337   3.250 -2.2226 -2.4026 -3.2812
  111MOL   H30640126   6.291   6.499   3.125  2.7130  0.6401 -1.0307
  111MOL   H30740127   6.255   6.568   3.281  0.1586  1.0705  0.0804
  111MOL   C30840128   6.454   6.718   3.259  0.0186 -0.4376  0.3520
  111MOL   O30940129   6.360   6.779   3.308  0.0131 -0.1551 -0.0428
  111MOL   C31040130   6.594   6.778   3.241  0.3645  0.1614  0.5427
  111MOL   C31140131   6.694   6.753   3.350  0.4214 -0.4412  0.2881
  111MOL   C31240132   6.669   6.811   3.485 -0.2867 -0.4182  0.9915
  111MOL   C31340133   6.584   6.726   3.583  0.4248  0.4170  0.5982
  111MOL   C31440134   6.568   6.799   3.717  0.2821 -0.3232 -0.1910
  111MOL   O31540135   6.502   6.710   3.808  0.0796 -0.1828 -0.6550
  111MOL   H31640136   6.574   6.882   3.215 -0.0420  0.1768  0.9087
  111MOL   H31740137   6.647   6.738   3.155  1.6190 -1.9068  2.2205
  111MOL   H31840138   6.792   6.781   3.312 -0.1752  2.6839  0.9352
  111MOL   H31940139   6.710   6.646   3.363 -0.8876 -0.5923  0.7460
  111MOL   H32040140   6.622   6.909   3.476 -2.4321 -1.4349  0.8323
  111MOL   H32140141   6.756   6.841   3.544 -1.5712 -2.1583  3.8832
  111MOL   H32240142   6.640   6.633   3.594 -0.4042 -0.4710 -2.1350
  111MOL   H32340143   6.489   6.702   3.536  1.9527 -2.5689 -1.0980
  111MOL   H32440144   6.669   6.820   3.754 -0.1381 -0.4355  1.0195
  111MOL   H32540145   6.512   6.891   3.701 -1.4798 -1.1401  1.1350
  111MOL   C32640146   6.369   6.708   3.807 -0.3642 -0.1215  0.1699
  111MOL   O32740147   6.299   6.773   3.731 -0.7150 -0.0877  0.0315
  111MOL   C32840148   6.321   6.615   3.914 -0.4169  0.0159 -0.2605
  111MOL   C32940149   6.296   6.690   4.047 -0.4547  0.2470 -0.8354
  111MOL   C33040150   6.417   6.759   4.123 -0.5401 -0.0606  0.0328
  111MOL   C33140151   6.403   6.766   4.275 -0.2980  0.0818 -0.0747
  111MOL   C33240152   6.529   6.838   4.334 -1.2102 -0.2419 -0.2595
  111MOL   O33340153   6.509   6.862   4.470  0.3224 -0.4569  0.1188
  111MOL   H33440154   6.380   6.524   3.923 -0.6625 -0.0485  0.7304
  111MOL   H33540155   6.229   6.581   3.866 -0.2281 -0.8499 -0.0041
  111MOL   H33640156   6.256   6.622   4.121 -0.5208  0.1817 -0.9317
  111MOL   H33740157   6.208   6.750   4.026  0.0930  0.9653 -1.1110
  111MOL   H33840158   6.443   6.852   4.072 -0.6953  0.2418  0.4988
  111MOL   H33940159   6.505   6.696   4.108 -0.4592  0.3662 -1.3740
  111MOL   H34040160   6.415   6.665   4.314 -1.9947 -1.2039 -2.7358
  111MOL   H34140161   6.306   6.805   4.304  0.0065  0.9962 -0.2632
  111MOL   H34240162   6.615   6.772   4.318 -1.5172 -0.9243  0.9301
  111MOL   H34340163   6.558   6.932   4.285  1.3385 -0.4707  0.7153
  111MOL   C34440164   6.606   6.908   4.542  0.3773  0.3586 -0.5600
  111MOL   O34540165   6.724   6.920   4.516 -0.5054 -0.3887  0.2857
  111MOL   C34640166   6.558   6.919   4.690 -0.2624  0.3025 -0.4460
  111MOL   C34740167   6.599   6.794   4.779 -0.2541 -0.4204  0.5217
  111MOL   C34840168   6.547   6.656   4.730  0.1958  0.0332  0.5241
  111MOL   C34940169   6.536   6.561   4.842  0.0884  0.3754 -0.2341
  111MOL   C35040170   6.407   6.569   4.926 -0.4542 -0.1567 -0.1931
  111MOL   O35140171   6.299   6.547   4.836 -0.2647  0.2214  0.0581
  111MOL   H35240172   6.450   6.937   4.692 -0.0280  1.7745 -0.0777
  111MOL   H35340173   6.609   6.998   4.747 -0.7209  1.6388 -1.8391
  111MOL   H35440174   6.556   6.807   4.878 -0.6331  0.4795  0.2430
  111MOL   H35540175   6.707   6.794   4.795 -0.1032  0.1067 -0.4849
  111MOL   H35640176   6.598   6.613   4.644  0.6743  2.3517 -0.3894
  111MOL   H35740177   6.449   6.679   4.691  0.2081  0.5108  0.7707
  111MOL   H35840178   6.625   6.565   4.905 -0.5827 -3.1221  1.1038
  111MOL   H35940179   6.546   6.464   4.794 -0.1895  1.0209 -1.5952
  111MOL   H36040180   6.414   6.489   5.000 -0.3262 -0.3078 -0.3674
  111MOL   H36140181   6.398   6.668   4.970  0.3146  0.0220 -0.4327
  111MOL   H36240182   6.293   6.453   4.841 -2.6918  0.3751  0.5528
  112MOL     C140183   3.655   5.313   5.497 -0.0833  0.6766 -0.1408
  112MOL     O240184   3.649   5.202   5.554 -0.1785  0.0788  0.5765
  112MOL     C340185   3.546   5.418   5.527 -0.3541 -0.1658 -0.7297
  112MOL     C440186   3.516   5.432   5.682  0.4353  0.4787 -0.3828
  112MOL     C540187   3.443   5.561   5.712 -0.3530  0.2069 -0.0730
  112MOL     C640188   3.378   5.568   5.852 -0.5367  0.0233 -0.5043
  112MOL     C740189   3.295   5.691   5.890  0.5350  0.1119  0.2554
  112MOL     O840190   3.383   5.804   5.885  0.1038  0.2053 -0.1115
  112MOL     H940191   3.456   5.381   5.479 -1.2130 -1.3453  1.7089
  112MOL    H1040192   3.574   5.512   5.479  1.4256 -0.8019 -0.9974
  112MOL    H1140193   3.606   5.423   5.743  1.0913  2.4293 -1.0366
  112MOL    H1240194   3.452   5.350   5.714  1.0083 -0.3786 -1.3863
  112MOL    H1340195   3.367   5.588   5.638 -0.0179  0.8037 -0.2081
  112MOL    H1440196   3.513   5.644   5.710  0.1060 -0.1087  1.9439
  112MOL    H1540197   3.455   5.548   5.927  1.0547  0.3783 -2.0271
  112MOL    H1640198   3.318   5.478   5.867  0.9980 -0.6065  2.2096
  112MOL    H1740199   3.218   5.702   5.813  1.9137  0.6011 -1.0918
  112MOL    H1840200   3.244   5.679   5.985 -0.8459 -0.1857 -0.5150
  112MOL    H1940201   3.725   5.342   5.420 -0.2025  4.1714  0.9693
  112MOL    C2040202   3.367   5.906   5.803  0.0618  0.2141  0.7226
  112MOL    O2140203   3.276   5.909   5.714 -0.1524  0.2677 -0.1253
  112MOL    C2240204   3.478   6.011   5.814 -0.5380  1.0370 -0.0439
  112MOL    C2340205   3.619   5.960   5.778 -0.0583 -0.1015  0.1449
  112MOL    C2440206   3.633   5.910   5.639  0.0787 -0.5100  0.0630
  112MOL    C2540207   3.775   5.847   5.604 -0.5510 -0.2412 -1.2327
  112MOL    C2640208   3.807   5.837   5.453 -0.0956 -0.3636  0.7811
  112MOL    O2740209   3.937   5.781   5.435 -0.2862  0.3215  0.6302
  112MOL    H2840210   3.485   6.033   5.920  1.0980 -0.9641  0.2969
  112MOL    H2940211   3.461   6.101   5.755  1.4185 -0.4289 -2.9601
  112MOL    H3040212   3.642   5.877   5.845 -0.2395 -0.3560 -0.1080
  112MOL    H3140213   3.686   6.044   5.793 -0.7193  0.7887 -1.6713
  112MOL    H3240214   3.607   5.995   5.575  0.9468 -2.8712 -3.5912
  112MOL    H3340215   3.553   5.839   5.623 -1.3350  0.2140  3.4673
  112MOL    H3440216   3.760   5.745   5.642  0.7519  0.2218  0.5580
  112MOL    H3540217   3.856   5.899   5.654  0.3166 -1.3923 -1.4136
  112MOL    H3640218   3.735   5.779   5.396  0.3957 -1.3457  1.1474
  112MOL    H3740219   3.809   5.941   5.420 -1.0011 -0.0664  1.6436
  112MOL    C3840220   3.944   5.651   5.415 -1.1793 -0.3405  0.0548
  112MOL    O3940221   3.856   5.566   5.422 -0.2969  0.3145  0.1201
  112MOL    C4040222   4.082   5.616   5.368 -0.0275 -1.0147  0.9551
  112MOL    C4140223   4.113   5.484   5.293 -0.4774 -0.8384  0.6501
  112MOL    C4240224   4.084   5.354   5.375  0.7110 -0.4240 -0.0472
  112MOL    C4340225   4.136   5.239   5.288  0.2237  0.1609 -0.2699
  112MOL    C4440226   4.166   5.109   5.367  0.1743 -0.1317 -0.7181
  112MOL    O4540227   4.064   5.085   5.454 -0.1142 -0.1024 -0.3661
  112MOL    H4640228   4.136   5.621   5.462  0.0163 -1.4095  0.9507
  112MOL    H4740229   4.125   5.699   5.311 -0.8227  0.0482  1.8963
  112MOL    H4840230   4.219   5.488   5.271 -0.4623 -0.4454  0.7865
  112MOL    H4940231   4.060   5.493   5.198 -0.6251 -1.4183  0.6785
  112MOL    H5040232   3.977   5.348   5.394 -0.0826 -0.5332 -4.1682
  112MOL    H5140233   4.146   5.356   5.464  2.3185 -1.1180 -1.1370
  112MOL    H5240234   4.217   5.270   5.222  1.4019 -1.6852  0.2705
  112MOL    H5340235   4.050   5.221   5.223  0.4250 -0.3868 -0.3881
  112MOL    H5440236   4.191   5.015   5.318  1.0114  0.1856 -0.8886
  112MOL    H5540237   4.248   5.123   5.437  1.6155 -1.3981 -2.1423
  112MOL    C5640238   3.963   5.014   5.413  0.5499 -0.0880  0.3089
  112MOL    O5740239   3.941   4.963   5.303  0.3534 -0.1723 -0.7623
  112MOL    C5840240   3.865   4.984   5.529 -0.0308  0.3740  0.4428
  112MOL    C5940241   3.877   4.848   5.605 -0.4283 -0.3391 -0.1391
  112MOL    C6040242   4.009   4.841   5.683 -0.1843  0.3212 -0.1465
  112MOL    C6140243   4.025   4.732   5.784 -0.0764  0.5296 -0.5647
  112MOL    C6240244   4.070   4.605   5.711 -0.5099 -0.3991  1.0274
  112MOL    O6340245   4.103   4.501   5.805  0.4491 -0.1800 -0.4579
  112MOL    H6440246   3.764   4.993   5.490 -0.3773 -0.8209  1.0296
  112MOL    H6540247   3.883   5.067   5.597  0.6312  1.1772 -0.6909
  112MOL    H6640248   3.871   4.760   5.542  0.1952 -1.1963  0.9753
  112MOL    H6740249   3.790   4.845   5.671 -0.6990  2.3020 -0.2859
  112MOL    H6840250   4.022   4.941   5.726 -2.0207  0.5054  0.0101
  112MOL    H6940251   4.091   4.830   5.612  0.2785  0.9524  0.2924
  112MOL    H7040252   3.933   4.725   5.841 -0.0302 -2.2061 -0.7368
  112MOL    H7140253   4.106   4.755   5.854  0.0020  0.3603 -0.5985
  112MOL    H7240254   4.007   4.575   5.627  0.3148 -0.1756  0.3217
  112MOL    H7340255   4.166   4.636   5.669 -1.4827 -0.0077 -0.9850
  112MOL    C7440256   4.170   4.390   5.761 -0.2062  0.5067  0.1413
  112MOL    O7540257   4.213   4.377   5.649 -0.0290  0.4015  0.1889
  112MOL    C7640258   4.186   4.283   5.870  0.1985 -0.3410 -0.1713
  112MOL    C7740259   4.057   4.206   5.903 -0.4335  0.0820  0.3184
  112MOL    C7840260   3.989   4.117   5.794  0.3961 -0.0456  0.4512
  112MOL    C7940261   3.901   4.011   5.843  0.9434  0.1873  0.0236
  112MOL    C8040262   3.831   3.944   5.720 -0.1006 -0.1277  0.1651
  112MOL    O8140263   3.728   3.862   5.769  0.2116 -0.1066  0.0989
  112MOL    H8240264   4.224   4.329   5.962 -0.1134 -1.9576  0.7986
  112MOL    H8340265   4.262   4.215   5.833 -0.1435 -1.0780  0.4556
  112MOL    H8440266   3.983   4.274   5.945 -1.5927 -0.8288 -0.2412
  112MOL    H8540267   4.079   4.146   5.991  0.2733  1.1935  0.9157
  112MOL    H8640268   4.065   4.074   5.729 -1.1760  0.4030 -1.7334
  112MOL    H8740269   3.935   4.185   5.728  1.8156  0.6724 -0.0015
  112MOL    H8840270   3.835   4.061   5.914  0.5523 -0.8988  0.4241
  112MOL    H8940271   3.966   3.944   5.899  1.0405 -0.0906 -0.4223
  112MOL    H9040272   3.780   4.027   5.672 -1.1309 -1.4883 -1.1171
  112MOL    H9140273   3.898   3.901   5.646  1.2852 -1.4347  2.1296
  112MOL    C9240274   3.645   3.802   5.681  0.1196 -0.6955 -0.3557
  112MOL    O9340275   3.657   3.813   5.560 -0.2232 -0.2910  0.0181
  112MOL    C9440276   3.518   3.738   5.749  0.1342 -0.6457 -0.3004
  112MOL    C9540277   3.535   3.659   5.877 -0.1347  0.1738 -0.2338
  112MOL    C9640278   3.564   3.752   6.006 -0.3277 -0.0818  0.4179
  112MOL    C9740279   3.569   3.665   6.136 -0.4955  0.2849 -0.1049
  112MOL    C9840280   3.633   3.734   6.265  0.4645  0.7794 -0.0766
  112MOL    O9940281   3.781   3.726   6.266  0.2744  0.1348  0.8341
  112MOL   H10040282   3.465   3.675   5.678 -3.1878 -0.0690  1.5969
  112MOL   H10140283   3.447   3.819   5.763  2.1924  1.4934 -1.7640
  112MOL   H10240284   3.611   3.583   5.857 -1.2838 -0.5798 -1.8275
  112MOL   H10340285   3.451   3.592   5.896  0.5269 -0.6085 -0.0426
  112MOL   H10440286   3.477   3.817   6.001 -0.4585 -0.1808  1.2969
  112MOL   H10540287   3.655   3.809   5.991 -1.1602  0.7132 -1.8936
  112MOL   H10640288   3.594   3.560   6.119  2.4561  0.6656  1.5353
  112MOL   H10740289   3.464   3.658   6.164  0.0226 -0.8988  1.6187
  112MOL   H10840290   3.593   3.833   6.285  0.2713  0.0972  3.2356
  112MOL   H10940291   3.620   3.672   6.354  2.7011  2.4986  1.5169
  112MOL   C11040292   3.848   3.839   6.226 -0.2571  0.1570  1.0852
  112MOL   O11140293   3.791   3.946   6.200 -0.4960 -0.1299 -0.2035
  112MOL   C11240294   3.999   3.825   6.220 -0.1606  0.0785 -0.0105
  112MOL   C11340295   4.053   3.691   6.163 -0.2747  0.0465  0.5615
  112MOL   C11440296   3.995   3.649   6.028  0.4409 -0.1226  0.7496
  112MOL   C11540297   4.034   3.510   5.985  0.3034 -0.1558 -0.6818
  112MOL   C11640298   3.970   3.469   5.858  0.1406  0.8902  0.3587
  112MOL   O11740299   3.967   3.325   5.853 -0.8701  0.0772  0.4883
  112MOL   H11840300   4.043   3.844   6.318  0.3595 -1.3916  0.0413
  112MOL   H11940301   4.036   3.900   6.150  0.2226 -1.5235 -1.5535
  112MOL   H12040302   4.037   3.609   6.233  0.7509 -0.3287  0.3694
  112MOL   H12140303   4.161   3.704   6.154 -0.5042  0.4043 -1.9795
  112MOL   H12240304   4.042   3.715   5.955 -0.8467  0.3739  0.3462
  112MOL   H12340305   3.887   3.661   6.017  0.4421 -2.3208 -2.0858
  112MOL   H12440306   3.984   3.446   6.058  2.1572  1.0264  1.6921
  112MOL   H12540307   4.140   3.486   5.993  0.3318  0.1094 -0.1819
  112MOL   H12640308   3.870   3.512   5.854  0.7910  2.5194  1.1588
  112MOL   H12740309   4.024   3.515   5.775  1.8042 -0.6997  0.4954
  112MOL   C12840310   3.856   3.252   5.826 -0.3777 -0.2144 -0.6521
  112MOL   O12940311   3.743   3.297   5.816 -0.4210 -0.1066 -0.0356
  112MOL   C13040312   3.882   3.105   5.805 -0.4981 -0.2915 -0.8672
  112MOL   C13140313   3.930   3.030   5.924  0.2081  0.0535 -0.5783
  112MOL   C13240314   4.081   3.033   5.937 -0.1765 -0.3508  0.4185
  112MOL   C13340315   4.115   3.016   6.082  0.2617 -0.1817  0.0731
  112MOL   C13440316   4.267   3.034   6.113  0.1349  0.2254  0.1334
  112MOL   O13540317   4.338   2.931   6.038 -0.3882  0.0230 -0.1259
  112MOL   H13640318   3.957   3.085   5.729 -0.1028 -1.6297 -0.1338
  112MOL   H13740319   3.794   3.056   5.762 -0.8502 -1.1054  0.7506
  112MOL   H13840320   3.898   2.926   5.914 -1.8250  0.6763 -0.7306
  112MOL   H13940321   3.870   3.053   6.012 -1.9871  0.5095 -2.1554
  112MOL   H14040322   4.118   3.130   5.904 -1.9940 -0.4039 -1.8938
  112MOL   H14140323   4.122   2.954   5.874  0.0747  0.2649 -0.1929
  112MOL   H14240324   4.069   2.930   6.130  0.4425 -0.3531 -0.0617
  112MOL   H14340325   4.065   3.101   6.129  1.7167 -0.2712  1.8019
  112MOL   H14440326   4.320   3.128   6.095  1.4779 -0.8600 -1.8476
  112MOL   H14540327   4.280   3.015   6.219  3.1541  1.6464  0.0565
  112MOL   C14640328   4.473   2.937   6.020  0.1943  0.6372 -0.3569
  112MOL   O14740329   4.547   3.012   6.081 -0.1025  0.0565  0.1102
  112MOL   C14840330   4.534   2.829   5.935 -0.5141 -0.6580  0.4273
  112MOL   C14940331   4.467   2.697   5.934  0.1332  0.6599  0.2468
  112MOL   C15040332   4.555   2.586   5.865  0.4469 -0.3641  0.3312
  112MOL   C15140333   4.577   2.606   5.721  0.0343 -0.9033 -0.1603
  112MOL   C15240334   4.659   2.490   5.652 -0.0068 -0.2690 -0.7452
  112MOL   O15340335   4.792   2.496   5.698  0.2113 -0.4061 -0.3670
  112MOL   H15440336   4.637   2.823   5.971 -0.5251 -0.4236  0.4937
  112MOL   H15540337   4.527   2.883   5.840 -2.8154  0.1437  1.0212
  112MOL   H15640338   4.372   2.694   5.881  0.2571  1.9500 -0.0571
  112MOL   H15740339   4.433   2.669   6.034 -2.0549 -0.5617 -0.8084
  112MOL   H15840340   4.509   2.489   5.884  2.4331 -1.6567 -1.2700
  112MOL   H15940341   4.650   2.575   5.918  0.6895  1.4734  0.3188
  112MOL   H16040342   4.639   2.696   5.723  3.5832 -3.2498  2.8986
  112MOL   H16140343   4.477   2.614   5.678 -0.0803 -1.0845  0.0698
  112MOL   H16240344   4.605   2.399   5.679 -1.1347  0.4995 -0.3488
  112MOL   H16340345   4.660   2.498   5.544  0.9214 -0.6070 -0.7678
  112MOL   C16440346   4.858   2.380   5.728  0.4391  0.1242  0.0935
  112MOL   O16540347   4.807   2.268   5.717 -0.0383  0.3046  0.0065
  112MOL   C16640348   4.987   2.393   5.798  0.1417 -0.4113 -0.1505
  112MOL   C16740349   5.056   2.254   5.808 -0.2481  0.4454  0.2241
  112MOL   C16840350   5.171   2.257   5.912 -0.3081 -0.6190 -0.1623
  112MOL   C16940351   5.247   2.120   5.904  0.2365  0.3572  0.2812
  112MOL   C17040352   5.382   2.131   5.980 -0.5837 -1.0205 -0.5839
  112MOL   O17140353   5.465   2.219   5.901 -0.2419 -0.4423 -0.2988
  112MOL   H17240354   4.962   2.433   5.896  1.0345 -0.2130  0.0014
  112MOL   H17340355   5.048   2.464   5.741 -0.0690  0.2765  0.4739
  112MOL   H17440356   5.093   2.222   5.711  1.1362  0.8774  0.5989
  112MOL   H17540357   4.983   2.184   5.850  1.1278 -0.1405  1.7009
  112MOL   H17640358   5.123   2.272   6.008 -1.8860  0.6129 -1.0997
  112MOL   H17740359   5.246   2.335   5.891  1.1295 -2.0521 -0.4743
  112MOL   H17840360   5.275   2.085   5.805  0.6700  1.1746  0.1149
  112MOL   H17940361   5.185   2.045   5.952 -2.7127  1.8057 -1.1349
  112MOL   H18040362   5.348   2.184   6.070 -0.6547 -1.8410 -0.1270
  112MOL   H18140363   5.422   2.037   6.017  0.2245 -1.4527 -2.5411
  112MOL   C18240364   5.577   2.270   5.962  0.2843  0.4720  0.4706
  112MOL   O18340365   5.607   2.248   6.077  0.2061 -0.1442 -0.5718
  112MOL   C18440366   5.660   2.356   5.867  0.1523  0.2764  0.2659
  112MOL   C18540367   5.770   2.439   5.936 -0.1344  0.6245 -0.6954
  112MOL   C18640368   5.855   2.542   5.857  0.7141  0.1002  0.3048
  112MOL   C18740369   5.954   2.620   5.942  0.4673 -0.1573 -0.6257
  112MOL   C18840370   6.035   2.708   5.839 -0.4440  0.4451  0.7337
  112MOL   O18940371   6.120   2.794   5.912 -0.3094  0.9118 -0.3048
  112MOL   H19040372   5.582   2.409   5.812 -0.8921 -1.2142  0.3062
  112MOL   H19140373   5.698   2.297   5.784 -0.7565 -1.3561  1.0020
  112MOL   H19240374   5.837   2.370   5.987 -0.0041  2.2770  1.4457
  112MOL   H19340375   5.713   2.502   6.005  2.0199  3.2582 -1.2102
  112MOL   H19440376   5.791   2.615   5.807  0.5030 -0.1241  0.2439
  112MOL   H19540377   5.895   2.494   5.768 -0.2019 -1.2825  0.6174
  112MOL   H19640378   6.028   2.562   5.998  0.4155 -0.0179 -0.4115
  112MOL   H19740379   5.900   2.678   6.017 -0.6593  0.5675 -1.9790
  112MOL   H19840380   6.089   2.635   5.779  1.8393  2.1155  0.6724
  112MOL   H19940381   5.967   2.761   5.772  0.4096  1.1993  0.4546
  112MOL   C20040382   6.179   2.889   5.856 -0.4770 -0.4042 -0.4658
  112MOL   O20140383   6.162   2.927   5.744  0.6090  1.1448  0.3276
  112MOL   C20240384   6.275   2.964   5.947  0.8346 -0.0814 -0.2324
  112MOL   C20340385   6.191   3.052   6.038  0.0463  0.0110 -0.6015
  112MOL   C20440386   6.286   3.145   6.125  0.1749 -0.1160 -0.0412
  112MOL   C20540387   6.212   3.269   6.176  0.1754 -0.3946  0.1334
  112MOL   C20640388   6.321   3.362   6.231  0.6054  0.0204 -0.0198
  112MOL   O20740389   6.247   3.469   6.291 -0.6898  0.3302  0.7236
  112MOL   H20840390   6.334   3.024   5.877  3.3261 -1.8379  0.3066
  112MOL   H20940391   6.345   2.898   5.998 -1.6800 -1.4495  1.5295
  112MOL   H21040392   6.122   2.997   6.100  2.6635 -1.2445  1.2816
  112MOL   H21140393   6.130   3.116   5.974  0.1628  0.3491 -0.3766
  112MOL   H21240394   6.373   3.163   6.062  0.1276 -0.7929 -0.3113
  112MOL   H21340395   6.334   3.089   6.205  2.5430 -0.2506 -1.5008
  112MOL   H21440396   6.150   3.233   6.258 -0.1784  0.0185  0.0457
  112MOL   H21540397   6.146   3.327   6.111 -0.3309 -0.9888  0.1146
  112MOL   H21640398   6.361   3.299   6.310  1.2051 -0.4120 -0.6678
  112MOL   H21740399   6.401   3.402   6.169 -0.4752 -1.5318 -2.4957
  112MOL   C21840400   6.284   3.514   6.415 -0.2686 -0.0453  0.1373
  112MOL   O21940401   6.370   3.463   6.492  0.6512 -0.2914 -0.2388
  112MOL   C22040402   6.205   3.641   6.454  0.8491  0.5846 -0.8038
  112MOL   C22140403   6.053   3.615   6.479  0.0753 -0.5139  0.4669
  112MOL   C22240404   6.009   3.524   6.594 -0.3842  0.0583 -0.1361
  112MOL   C22340405   5.852   3.535   6.623  0.9327 -0.3535 -0.0439
  112MOL   C22440406   5.811   3.459   6.740  0.7509 -0.4059  0.7570
  112MOL   O22540407   5.666   3.442   6.751 -0.4877  0.7037 -0.0938
  112MOL   H22640408   6.210   3.721   6.380  1.3502  2.0840  0.8300
  112MOL   H22740409   6.261   3.670   6.543 -0.8527  2.3788 -0.2971
  112MOL   H22840410   6.013   3.568   6.389 -1.7188 -0.5466  1.2510
  112MOL   H22940411   5.999   3.710   6.475  2.4663  0.9237  1.3749
  112MOL   H23040412   6.066   3.541   6.686 -0.6154 -0.5577  0.1243
  112MOL   H23140413   6.021   3.421   6.560 -0.8895 -0.0056 -0.1230
  112MOL   H23240414   5.813   3.481   6.537  0.7945  0.1903 -0.3236
  112MOL   H23340415   5.810   3.635   6.624 -0.4649 -0.9108 -0.9412
  112MOL   H23440416   5.843   3.357   6.715  0.1994 -0.6884  1.1898
  112MOL   H23540417   5.851   3.505   6.830 -0.3167 -0.3939  1.2378
  112MOL   C23640418   5.591   3.349   6.678 -0.1311 -0.3569 -0.1740
  112MOL   O23740419   5.632   3.267   6.600  0.0027  0.0950 -0.2818
  112MOL   C23840420   5.447   3.395   6.693 -0.2425  0.2432 -0.9543
  112MOL   C23940421   5.344   3.302   6.616 -0.2505  0.3037  0.2164
  112MOL   C24040422   5.204   3.373   6.611  0.6020 -0.1326  0.4406
  112MOL   C24140423   5.188   3.500   6.533  0.3326 -0.1243 -0.3161
  112MOL   C24240424   5.037   3.536   6.504  0.6580  0.1730  0.3929
  112MOL   O24340425   4.976   3.430   6.428  0.4517 -0.2774 -0.2941
  112MOL   H24440426   5.432   3.491   6.645 -0.6876  0.3635 -0.5652
  112MOL   H24540427   5.434   3.406   6.800 -3.7197  2.0945 -1.5135
  112MOL   H24640428   5.347   3.202   6.659 -1.8513  0.8032  1.5644
  112MOL   H24740429   5.381   3.283   6.516  0.7795 -0.6408  0.7702
  112MOL   H24840430   5.171   3.376   6.715  0.8798 -0.4886  0.5409
  112MOL   H24940431   5.137   3.301   6.563 -1.3339  1.0032  1.3891
  112MOL   H25040432   5.248   3.490   6.443 -0.7110  0.5347 -1.1006
  112MOL   H25140433   5.238   3.581   6.587  0.4179 -2.2450  2.9301
  112MOL   H25240434   4.982   3.542   6.598  1.1398 -0.1322  0.6955
  112MOL   H25340435   5.029   3.626   6.444 -0.4133  0.7967  1.4673
  112MOL   C25440436   4.843   3.413   6.426  0.0683 -0.3102  0.0584
  112MOL   O25540437   4.765   3.507   6.458 -1.0646 -0.0859  0.2601
  112MOL   C25640438   4.805   3.274   6.395  0.6148  0.7209  0.6330
  112MOL   C25740439   4.850   3.171   6.504 -0.4626 -0.5278  0.5097
  112MOL   C25840440   4.817   3.211   6.652 -0.6669 -0.7056  0.4291
  112MOL   C25940441   4.821   3.086   6.745  0.1102 -1.2055  0.6231
  112MOL   C26040442   4.826   3.120   6.897 -0.1646  0.2659  0.0961
  112MOL   O26140443   4.702   3.082   6.955 -0.3282 -0.6927  0.0257
  112MOL   H26240444   4.849   3.240   6.301 -1.3733  1.0027 -0.4212
  112MOL   H26340445   4.697   3.274   6.383  0.7677 -0.6760 -1.1184
  112MOL   H26440446   4.946   3.122   6.486  0.0462  0.4016  0.6561
  112MOL   H26540447   4.783   3.086   6.489  1.5508 -2.1746  0.5868
  112MOL   H26640448   4.716   3.251   6.662 -1.1091 -2.1083  1.7609
  112MOL   H26740449   4.881   3.293   6.683  0.0764 -1.1958  0.2115
  112MOL   H26840450   4.917   3.037   6.729  0.2782 -0.5818 -0.3295
  112MOL   H26940451   4.744   3.013   6.721 -2.2361  1.0880  0.8902
  112MOL   H27040452   4.889   3.052   6.955  0.1037  1.3830  1.1394
  112MOL   H27140453   4.838   3.227   6.915  0.5022  0.1782  0.1811
  112MOL   C27240454   4.700   3.070   7.085  0.3956 -1.3118 -0.1472
  112MOL   O27340455   4.799   3.091   7.156  0.0979 -0.2143 -0.3733
  112MOL   C27440456   4.567   3.036   7.147  0.3998 -0.5292 -0.3711
  112MOL   C27540457   4.535   3.119   7.270 -0.6740 -0.3178 -1.0605
  112MOL   C27640458   4.385   3.135   7.282 -0.2873 -0.6193  0.4166
  112MOL   C27740459   4.349   3.224   7.397  0.3809 -0.1314  0.1058
  112MOL   C27840460   4.202   3.247   7.427 -0.2671  0.3148  0.2571
  112MOL   O27940461   4.179   3.333   7.537  0.3439 -0.5909  0.1468
  112MOL   H28040462   4.576   2.931   7.173  1.5362 -0.0653  1.2261
  112MOL   H28140463   4.491   3.047   7.070  0.3716 -0.6708 -0.3625
  112MOL   H28240464   4.587   3.214   7.257 -0.2325 -0.1826  1.4404
  112MOL   H28340465   4.580   3.078   7.361 -0.0765  2.0024 -0.2886
  112MOL   H28440466   4.352   3.032   7.293 -2.7976 -0.2184 -2.5628
  112MOL   H28540467   4.348   3.178   7.189 -1.3464  0.9438  1.5489
  112MOL   H28640468   4.402   3.320   7.389  1.0745 -0.5687 -0.6593
  112MOL   H28740469   4.398   3.197   7.490  0.4560  1.7180  0.6390
  112MOL   H28840470   4.145   3.279   7.340 -1.8826 -1.8566  0.4724
  112MOL   H28940471   4.169   3.146   7.454  2.0759 -0.1357  1.6497
  112MOL   C29040472   4.068   3.318   7.613  0.0173  0.2404 -0.0255
  112MOL   O29140473   3.976   3.240   7.595  0.3044  0.1190  0.5017
  112MOL   C29240474   4.072   3.397   7.745 -0.3588  0.0261 -0.1777
  112MOL   C29340475   4.090   3.547   7.729 -0.5923  0.0132  0.3508
  112MOL   C29440476   3.971   3.619   7.665  0.4073 -0.4504  0.0394
  112MOL   C29540477   3.981   3.768   7.676 -0.2137  0.1141  0.2627
  112MOL   C29640478   3.849   3.833   7.626  0.9799 -1.1817 -0.5052
  112MOL   O29740479   3.862   3.974   7.643  0.8241  0.0716 -0.2771
  112MOL   H29840480   4.159   3.362   7.801  0.2098 -0.1250 -1.1330
  112MOL   H29940481   3.986   3.373   7.807  0.4417  1.9595  1.7079
  112MOL   H30040482   4.181   3.569   7.672 -0.1828 -1.1746  0.5240
  112MOL   H30140483   4.120   3.590   7.825 -1.5694 -0.9445  1.0898
  112MOL   H30240484   3.880   3.591   7.719  0.3563 -1.6937 -0.6874
  112MOL   H30340485   3.949   3.587   7.564  0.1549  2.5564 -0.9144
  112MOL   H30440486   4.053   3.807   7.603 -0.5986  1.1537  0.4211
  112MOL   H30540487   4.005   3.801   7.777 -0.8792 -2.6944  1.3611
  112MOL   H30640488   3.829   3.793   7.527 -0.7715  1.0109 -1.0706
  112MOL   H30740489   3.765   3.814   7.693  1.1694  0.7817  0.3113
  112MOL   C30840490   3.918   4.048   7.549 -0.5788 -0.0389  0.2191
  112MOL   O30940491   3.965   3.999   7.448 -0.4118  0.4089 -0.1739
  112MOL   C31040492   3.903   4.201   7.569 -0.3229  0.2928  0.3894
  112MOL   C31140493   3.764   4.260   7.522 -0.2328 -0.1719  0.2912
  112MOL   C31240494   3.678   4.300   7.644 -0.5891 -0.4730 -0.6104
  112MOL   C31340495   3.551   4.378   7.611 -0.7172 -0.0584  0.1543
  112MOL   C31440496   3.469   4.415   7.740  0.4087  0.4373  0.0064
  112MOL   O31540497   3.520   4.530   7.808 -0.6128 -0.1112  0.2089
  112MOL   H31640498   3.973   4.264   7.513 -1.2979  0.4414 -0.6827
  112MOL   H31740499   3.909   4.225   7.675  1.2597 -0.7602  0.5642
  112MOL   H31840500   3.708   4.198   7.452 -1.4566  0.5389  0.6222
  112MOL   H31940501   3.782   4.354   7.469 -0.0283 -0.2066  0.2998
  112MOL   H32040502   3.749   4.362   7.699 -0.8658 -0.1972 -0.5633
  112MOL   H32140503   3.654   4.210   7.700  2.4751 -0.1784  1.2567
  112MOL   H32240504   3.491   4.309   7.551  1.0377 -0.3636 -1.2919
  112MOL   H32340505   3.572   4.472   7.559 -1.2982 -0.5598 -1.0261
  112MOL   H32440506   3.366   4.441   7.715 -0.0240 -2.9273 -2.0152
  112MOL   H32540507   3.485   4.325   7.800  1.0186 -0.3384 -1.2922
  112MOL   C32640508   3.604   4.515   0.065 -0.2852 -0.6529  0.5034
  112MOL   O32740509   3.660   4.410   0.096  0.3466  0.4007  0.1104
  112MOL   C32840510   3.633   4.644   0.138 -0.5510 -0.4010 -0.4648
  112MOL   C32940511   3.709   4.629   0.280  1.3637  0.7985  0.3282
  112MOL   C33040512   3.734   4.760   0.347 -0.4908  0.2855 -0.1299
  112MOL   C33140513   3.844   4.754   0.456  0.7418  0.3956  0.4691
  112MOL   C33240514   3.877   4.889   0.521  0.1943  0.4839 -0.1668
  112MOL   O33340515   4.008   4.881   0.574 -0.4287 -0.0403  0.2841
  112MOL   H33440516   3.538   4.697   0.143 -0.2893 -0.0423  0.8227
  112MOL   H33540517   3.702   4.699   0.074  0.1036  1.4372  1.7459
  112MOL   H33640518   3.800   4.574   0.254 -0.3188 -1.4257 -1.0130
  112MOL   H33740519   3.645   4.562   0.338  1.7142 -2.3347 -2.7156
  112MOL   H33840520   3.637   4.789   0.390 -0.5620  0.5628 -0.4785
  112MOL   H33940521   3.773   4.833   0.277 -0.7970  0.2421 -0.3470
  112MOL   H34040522   3.936   4.705   0.423 -0.6364 -1.1526 -1.1371
  112MOL   H34140523   3.808   4.687   0.533  0.3189 -0.8980 -0.8263
  112MOL   H34240524   3.875   4.966   0.444 -1.5083  1.8664  1.2070
  112MOL   H34340525   3.802   4.925   0.591  1.0119  2.5375 -0.3152
  112MOL   C34440526   4.021   4.862   0.704  0.1204  0.5949  0.2771
  112MOL   O34540527   3.930   4.849   0.787 -0.3657  0.2054 -0.7008
  112MOL   C34640528   4.164   4.854   0.761 -0.3052  0.5146 -0.3592
  112MOL   C34740529   4.255   4.977   0.752  0.4302  0.0457  0.3225
  112MOL   C34840530   4.243   5.057   0.888 -0.0916  0.4797 -0.3272
  112MOL   C34940531   4.355   5.162   0.903  0.8091  0.0995  0.4330
  112MOL   C35040532   4.341   5.248   1.025  0.2075  0.3106 -0.1790
  112MOL   O35140533   4.457   5.327   1.050 -0.3137  0.4411 -0.2128
  112MOL   H35240534   4.220   4.784   0.700  0.7669  2.2787 -1.4309
  112MOL   H35340535   4.154   4.819   0.864 -0.8119 -1.3905 -1.0361
  112MOL   H35440536   4.227   5.042   0.669  2.3690  0.9390  0.3449
  112MOL   H35540537   4.361   4.950   0.752  0.1358 -1.1921  1.2365
  112MOL   H35640538   4.247   4.980   0.965 -3.1793 -0.5801 -1.1861
  112MOL   H35740539   4.141   5.095   0.881 -0.8540 -1.6837 -1.1403
  112MOL   H35840540   4.359   5.235   0.822  0.2943  1.8033  1.9043
  112MOL   H35940541   4.450   5.108   0.908  1.5689  1.4354  0.8408
  112MOL   H36040542   4.251   5.304   1.004 -0.2435 -0.9932 -1.7823
  112MOL   H36140543   4.331   5.198   1.122 -0.8517  0.6036 -0.1314
  112MOL   H36240544   4.431   5.416   1.035 -0.6353  0.1398 -1.5276
  113MOL     C140545   7.071   6.374   6.628 -0.6693 -0.1507 -0.5896
  113MOL     O240546   7.015   6.302   6.712  0.7744 -0.3805 -0.0582
  113MOL     C340547   7.001   6.405   6.493  0.0800 -0.4772 -0.2305
  113MOL     C440548   6.865   6.475   6.501 -0.2434  0.0878  0.2764
  113MOL     C540549   6.751   6.392   6.438  0.4706 -0.0450  0.6745
  113MOL     C640550   6.621   6.476   6.444  0.3032  0.7275  0.3387
  113MOL     C740551   6.515   6.432   6.343  0.2297  0.0416 -0.0995
  113MOL     O840552   6.435   6.324   6.387  0.1025 -0.3310 -0.3607
  113MOL     H940553   6.991   6.313   6.436 -0.3923 -0.3332 -0.3809
  113MOL    H1040554   7.074   6.451   6.426  0.7255 -0.4516  0.4771
  113MOL    H1140555   6.866   6.574   6.455  0.4418 -0.7186 -1.5168
  113MOL    H1240556   6.834   6.496   6.603  2.4467  0.6293  1.0164
  113MOL    H1340557   6.741   6.299   6.494 -1.3319 -0.6697 -0.6226
  113MOL    H1440558   6.779   6.368   6.336  0.3673 -1.6329  1.0000
  113MOL    H1540559   6.649   6.578   6.416 -0.4053  1.0976  0.9710
  113MOL    H1640560   6.581   6.490   6.544 -0.4058  0.7863  0.0494
  113MOL    H1740561   6.455   6.520   6.320 -1.2924 -0.7123  0.8942
  113MOL    H1840562   6.566   6.399   6.253 -2.3410 -1.7786 -0.9543
  113MOL    H1940563   7.167   6.422   6.645 -1.7330  1.6057  0.7043
  113MOL    C2040564   6.305   6.326   6.358  0.0894  0.6935 -0.4743
  113MOL    O2140565   6.255   6.403   6.271 -0.0512 -0.2317  0.3385
  113MOL    C2240566   6.222   6.214   6.407  0.3176 -0.1356 -0.1658
  113MOL    C2340567   6.179   6.129   6.282 -0.7398 -0.5381  0.6143
  113MOL    C2440568   6.126   5.983   6.324  0.1912 -0.5307  0.4561
  113MOL    C2540569   6.120   5.888   6.211 -0.4668 -0.0489  0.0705
  113MOL    C2640570   6.079   5.748   6.270  0.1641 -0.2465 -0.2975
  113MOL    O2740571   6.162   5.705   6.375 -0.0688 -0.5393 -0.3931
  113MOL    H2840572   6.139   6.247   6.469  0.1746 -1.1354  0.1920
  113MOL    H2940573   6.290   6.151   6.465 -0.3533 -0.2298  0.5156
  113MOL    H3040574   6.259   6.127   6.208 -0.4808  0.7073  0.8526
  113MOL    H3140575   6.090   6.167   6.231 -0.4787 -1.3073 -0.4411
  113MOL    H3240576   6.031   5.985   6.378 -1.9942  1.2061 -3.2729
  113MOL    H3340577   6.198   5.952   6.400  1.3453 -0.4168 -0.5732
  113MOL    H3440578   6.218   5.871   6.167 -0.4910 -1.2677  0.4714
  113MOL    H3540579   6.050   5.922   6.135 -0.6260  1.5119  0.8972
  113MOL    H3640580   5.981   5.756   6.317  0.2836  0.7995 -0.2235
  113MOL    H3740581   6.061   5.670   6.196 -2.3393  1.4273 -1.4879
  113MOL    C3840582   6.111   5.615   6.478  0.1500  0.2995 -0.5311
  113MOL    O3940583   6.001   5.560   6.474  0.1807 -0.3187  0.1542
  113MOL    C4040584   6.202   5.604   6.604 -0.6236 -0.7163 -0.3294
  113MOL    C4140585   6.352   5.577   6.580  0.6041 -0.8471  0.1033
  113MOL    C4240586   6.391   5.433   6.574 -0.9209 -0.3951  0.0752
  113MOL    C4340587   6.546   5.452   6.570 -0.8299  0.5855 -0.9825
  113MOL    C4440588   6.622   5.321   6.586  0.1791 -0.1790 -0.4231
  113MOL    O4540589   6.607   5.238   6.470  0.2782 -0.2496 -0.2439
  113MOL    H4640590   6.162   5.525   6.668 -0.8211 -0.8332 -0.5952
  113MOL    H4740591   6.195   5.698   6.657  0.3222 -0.9013  0.1175
  113MOL    H4840592   6.406   5.617   6.665 -0.0413  1.8813 -0.6899
  113MOL    H4940593   6.383   5.638   6.495  0.4967 -3.6289 -2.0249
  113MOL    H5040594   6.372   5.376   6.483  0.9687 -2.3543  0.8528
  113MOL    H5140595   6.352   5.374   6.657  0.8040 -1.3671  0.2145
  113MOL    H5240596   6.575   5.509   6.659  3.4170 -2.8212  0.0230
  113MOL    H5340597   6.589   5.505   6.486  1.1877 -1.2333 -1.1444
  113MOL    H5440598   6.725   5.352   6.603 -0.1599  0.1791  1.0288
  113MOL    H5540599   6.586   5.265   6.672  2.3463 -0.2737  0.4538
  113MOL    C5640600   6.690   5.137   6.451  0.4130  1.2574  0.0882
  113MOL    O5740601   6.790   5.120   6.527 -0.1067 -0.2804 -0.1575
  113MOL    C5840602   6.652   5.049   6.332  0.1494  0.1077  0.1692
  113MOL    C5940603   6.684   5.113   6.203 -0.5911 -0.6742  0.6032
  113MOL    C6040604   6.837   5.116   6.187 -0.1830  0.6542 -0.1240
  113MOL    C6140605   6.886   5.182   6.054  0.1803  0.1629  0.3602
  113MOL    C6240606   7.043   5.175   6.040 -0.3660  0.2590  0.0560
  113MOL    O6340607   7.079   5.038   6.003  0.0651 -0.5004  0.1148
  113MOL    H6440608   6.543   5.039   6.338 -0.1526  1.7703 -2.0203
  113MOL    H6540609   6.704   4.953   6.333  2.7380  1.3794 -3.0515
  113MOL    H6640610   6.645   5.215   6.195 -0.6565 -0.7377  0.1110
  113MOL    H6740611   6.641   5.073   6.112 -1.3702 -0.4657  0.8724
  113MOL    H6840612   6.875   5.014   6.185  0.1995  0.7764  0.6367
  113MOL    H6940613   6.886   5.164   6.272 -3.2823  1.1530  1.4368
  113MOL    H7040614   6.848   5.284   6.065  0.1910  0.4078 -1.7503
  113MOL    H7140615   6.829   5.141   5.971 -0.1097 -0.6373  0.9463
  113MOL    H7240616   7.068   5.232   5.951  2.7042 -0.1181  0.6196
  113MOL    H7340617   7.097   5.210   6.128 -0.4083 -0.9207  0.5618
  113MOL    C7440618   7.210   4.994   6.017 -0.4254 -0.6268  0.6009
  113MOL    O7540619   7.299   5.052   6.072  0.0882 -0.0421 -0.7852
  113MOL    C7640620   7.233   4.867   5.945  0.5483  0.7004  0.0514
  113MOL    C7740621   7.154   4.851   5.804 -0.2705  0.4702  0.4483
  113MOL    C7840622   7.192   4.720   5.731 -0.5906  0.1042 -0.9702
  113MOL    C7940623   7.139   4.703   5.589 -0.0833  1.0761  0.4575
  113MOL    C8040624   7.193   4.590   5.504  0.3406 -0.1403 -0.3036
  113MOL    O8140625   7.143   4.463   5.528 -0.4243  0.0513 -0.5753
  113MOL    H8240626   7.201   4.788   6.013 -2.8210  1.9881  0.0875
  113MOL    H8340627   7.339   4.857   5.921  0.4113 -0.9304  0.0908
  113MOL    H8440628   7.170   4.933   5.735  2.5353 -0.3713  0.0141
  113MOL    H8540629   7.048   4.846   5.826 -0.9106 -4.0205 -2.8834
  113MOL    H8640630   7.173   4.633   5.794  2.4753 -0.9974 -1.4462
  113MOL    H8740631   7.301   4.724   5.733 -0.4614 -2.6376  2.4312
  113MOL    H8840632   7.152   4.796   5.534 -1.2983  0.7615 -0.3990
  113MOL    H8940633   7.031   4.693   5.603  0.4246 -1.2254  3.2724
  113MOL    H9040634   7.174   4.619   5.401 -0.9553 -2.1728 -0.6733
  113MOL    H9140635   7.300   4.579   5.520  0.2817  0.1069  0.2661
  113MOL    C9240636   7.185   4.362   5.458 -0.6632 -0.2172  0.0061
  113MOL    O9340637   7.271   4.380   5.369  0.0587  0.4599 -0.2369
  113MOL    C9440638   7.139   4.223   5.518  0.0218  0.2522 -0.3527
  113MOL    C9540639   7.224   4.119   5.452  0.2317  0.2216  0.3053
  113MOL    C9640640   7.235   3.986   5.529  0.1028 -0.4055  0.3096
  113MOL    C9740641   7.108   3.904   5.503  0.4027 -0.3026 -0.0859
  113MOL    C9840642   7.096   3.780   5.591 -0.2522  0.1221  0.1062
  113MOL    O9940643   7.207   3.695   5.552  0.5250 -0.0772 -0.7559
  113MOL   H10040644   7.039   4.197   5.482  0.2289 -0.9927 -0.0329
  113MOL   H10140645   7.144   4.225   5.626 -3.7075  1.1144 -0.1108
  113MOL   H10240646   7.326   4.154   5.439  0.3235  0.5959  1.9476
  113MOL   H10340647   7.202   4.109   5.345  0.0287  0.6690  0.3084
  113MOL   H10440648   7.259   4.001   5.634  0.5494 -1.2512  0.3278
  113MOL   H10540649   7.328   3.936   5.502  1.1337 -0.5375  3.8612
  113MOL   H10640650   7.089   3.877   5.399  2.0626  0.8764 -0.7241
  113MOL   H10740651   7.021   3.962   5.533 -0.6842 -1.7041 -0.4755
  113MOL   H10840652   7.112   3.807   5.696  1.6489 -0.3333 -0.0497
  113MOL   H10940653   6.996   3.738   5.585 -1.2751  2.0864  2.3871
  113MOL   C11040654   7.187   3.566   5.576  0.0842  0.4863  0.2473
  113MOL   O11140655   7.086   3.516   5.631  0.4280  0.4528 -1.0434
  113MOL   C11240656   7.308   3.473   5.536 -0.0679  0.3815  0.3422
  113MOL   C11340657   7.417   3.464   5.640  0.2633  0.1567 -0.4864
  113MOL   C11440658   7.518   3.357   5.588  0.8005 -0.5034  0.4193
  113MOL   C11540659   7.637   3.367   5.680 -0.5925  0.3200 -1.1606
  113MOL   C11640660   7.729   3.246   5.673 -0.1027 -0.0010  0.2235
  113MOL   O11740661   7.834   3.272   5.757 -0.7697  0.1426  0.2218
  113MOL   H11840662   7.348   3.502   5.438 -0.9951 -1.3632 -0.5706
  113MOL   H11940663   7.265   3.374   5.521  1.8353 -0.3227 -0.6692
  113MOL   H12040664   7.375   3.447   5.739  2.1921  0.6824  0.4556
  113MOL   H12140665   7.467   3.561   5.647  0.1381  0.2120 -0.3432
  113MOL   H12240666   7.561   3.359   5.488  1.0769  1.0637  0.5579
  113MOL   H12340667   7.480   3.256   5.604 -0.2046 -0.6884 -2.7747
  113MOL   H12440668   7.599   3.390   5.780 -2.5155 -1.4383 -1.4642
  113MOL   H12540669   7.700   3.451   5.651  0.6386 -1.4003 -3.5806
  113MOL   H12640670   7.666   3.166   5.713 -1.1110  1.4441  1.6346
  113MOL   H12740671   7.761   3.230   5.571 -1.3029  0.1688 -0.1844
  113MOL   C12840672   0.059   3.167   5.801  0.1901  0.0793 -0.2518
  113MOL   O12940673   0.057   3.058   5.752 -0.2491 -0.1461 -0.3093
  113MOL   C13040674   0.159   3.212   5.914 -0.4444  0.4808  0.2330
  113MOL   C13140675   0.304   3.219   5.870 -0.3228 -1.2564 -0.0901
  113MOL   C13240676   0.336   3.357   5.811  0.2098  0.1313 -0.0411
  113MOL   C13340677   0.349   3.471   5.906  0.0250  0.2240  0.2247
  113MOL   C13440678   0.385   3.609   5.842 -0.3982  0.1764 -0.1163
  113MOL   O13540679   0.369   3.709   5.939  0.6750 -0.3791 -0.0429
  113MOL   H13640680   0.141   3.152   6.003  0.7855 -0.0279  0.1400
  113MOL   H13740681   0.111   3.306   5.942  0.6774  2.0421 -2.8374
  113MOL   H13840682   0.309   3.150   5.786  1.9049 -1.1952 -0.0292
  113MOL   H13940683   0.375   3.180   5.942  1.8424  1.9003 -0.3974
  113MOL   H14040684   0.260   3.390   5.740 -1.3605 -0.2725  1.4063
  113MOL   H14140685   0.424   3.351   5.747  1.1578  0.1526  1.2332
  113MOL   H14240686   0.427   3.448   5.978  0.3246  1.0949  0.1867
  113MOL   H14340687   0.254   3.476   5.960 -1.4621  1.9568 -2.4503
  113MOL   H14440688   0.489   3.604   5.809  0.1736  3.2206  1.0225
  113MOL   H14540689   0.322   3.615   5.753 -0.8417 -2.2654 -0.0095
  113MOL   C14640690   0.308   3.826   5.913 -0.4946  0.1057  0.3782
  113MOL   O14740691   0.252   3.855   5.805  0.6108  0.3064 -0.0456
  113MOL   C14840692   0.301   3.910   6.039  0.7494 -0.0138 -0.5510
  113MOL   C14940693   0.215   4.038   6.034  0.3427 -0.6292 -1.0722
  113MOL   C15040694   0.064   4.011   6.050  0.0224 -0.0278  0.0347
  113MOL   C15140695   7.833   4.141   6.017 -0.7519 -0.4528  0.3967
  113MOL   C15240696   7.676   4.124   6.018 -0.3773 -0.3414  0.3174
  113MOL   O15340697   7.633   4.217   5.920 -0.4553  0.5076  0.1133
  113MOL   H15440698   0.402   3.949   6.054 -0.6349  3.7125 -0.3704
  113MOL   H15540699   0.256   3.846   6.114 -0.9300 -0.2255 -1.7116
  113MOL   H15640700   0.239   4.104   5.950  2.0803 -0.0360 -0.1395
  113MOL   H15740701   0.244   4.105   6.115 -0.5725 -0.5458 -0.8157
  113MOL   H15840702   0.037   3.999   6.155  0.8723  0.3786  0.3035
  113MOL   H15940703   0.031   3.923   5.996  0.7655 -0.1907 -0.1582
  113MOL   H16040704   0.015   4.175   5.917 -0.6602 -0.8839  0.2727
  113MOL   H16140705   0.011   4.212   6.097  0.5358 -0.7570  0.3043
  113MOL   H16240706   7.654   4.020   5.994  0.8529 -1.2259  2.7829
  113MOL   H16340707   7.638   4.155   6.116  1.6699  3.1540  0.0979
  113MOL   C16440708   7.512   4.194   5.865 -0.4447 -0.5062  0.0146
  113MOL   O16540709   7.428   4.120   5.917 -0.2803  0.4138  0.0873
  113MOL   C16640710   7.481   4.274   5.737  0.3751  0.3906  0.5768
  113MOL   C16740711   7.461   4.425   5.742 -0.8327 -1.0421 -0.5489
  113MOL   C16840712   7.576   4.505   5.796  0.5518  0.3437  0.0549
  113MOL   C16940713   7.711   4.475   5.732  0.1480  0.4668 -0.3554
  113MOL   C17040714   7.818   4.566   5.782 -0.3882 -0.1796 -0.1925
  113MOL   O17140715   0.096   4.543   5.715  0.7825  0.2627 -0.3816
  113MOL   H17240716   7.392   4.223   5.698  0.8510  0.2820 -0.3648
  113MOL   H17340717   7.558   4.248   5.665  1.2184 -1.5316  2.0978
  113MOL   H17440718   7.378   4.459   5.804 -0.4076 -1.3522  0.1885
  113MOL   H17540719   7.437   4.458   5.641 -0.6091  0.4236 -0.1376
  113MOL   H17640720   7.586   4.489   5.903 -2.0920 -1.5558  0.0512
  113MOL   H17740721   7.553   4.610   5.778 -1.3340 -0.4090 -2.0801
  113MOL   H17840722   7.700   4.497   5.625  1.2326 -1.1064 -0.8094
  113MOL   H17940723   7.749   4.373   5.734  0.7638  0.6927 -0.3222
  113MOL   H18040724   7.791   4.671   5.773  0.6581  0.2692  1.7935
  113MOL   H18140725   7.831   4.540   5.887  1.0519 -1.3428 -0.6338
  113MOL   C18240726   0.179   4.639   5.670  0.5831 -0.3060  0.4954
  113MOL   O18340727   0.157   4.759   5.661  0.0728  0.7197  0.0359
  113MOL   C18440728   0.315   4.578   5.615 -0.3650 -0.4088 -0.2057
  113MOL   C18540729   0.412   4.506   5.720  0.9504  0.4216 -0.3690
  113MOL   C18640730   0.357   4.374   5.790 -0.7974  0.4349 -0.2684
  113MOL   C18740731   0.463   4.295   5.872  0.6033  0.0736 -0.1355
  113MOL   C18840732   0.519   4.386   5.988  0.1484 -0.9140 -0.0381
  113MOL   O18940733   0.423   4.421   6.089 -0.2435 -0.1155 -0.0695
  113MOL   H19040734   0.366   4.663   5.571 -1.0906 -0.3534 -0.9576
  113MOL   H19140735   0.284   4.509   5.537 -0.7609 -0.0659 -0.3526
  113MOL   H19240736   0.454   4.580   5.789  0.9347 -0.0665  0.1644
  113MOL   H19340737   0.500   4.466   5.669  0.7027  0.1137 -0.5507
  113MOL   H19440738   0.324   4.303   5.713  0.0974  0.7685 -0.9550
  113MOL   H19540739   0.261   4.394   5.839 -0.5784 -2.5167  1.4682
  113MOL   H19640740   0.540   4.273   5.799  0.8108 -0.3049  0.1948
  113MOL   H19740741   0.418   4.200   5.902 -1.4815 -0.2273 -3.9141
  113MOL   H19840742   0.595   4.325   6.036 -0.3752 -1.8232 -0.3516
  113MOL   H19940743   0.553   4.480   5.944 -0.3991 -1.2989 -1.3288
  113MOL   C20040744   0.440   4.389   6.213  0.6414 -0.4436 -0.5873
  113MOL   O20140745   0.541   4.336   6.258  0.0926  0.2413  0.3501
  113MOL   C20240746   0.314   4.417   6.302 -0.6375 -0.0880  0.2269
  113MOL   C20340747   0.338   4.419   6.450  0.1653  0.4207 -0.1635
  113MOL   C20440748   0.423   4.528   6.507  0.5751  0.0205  0.6771
  113MOL   C20540749   0.407   4.525   6.665 -0.5341  0.3483  0.3721
  113MOL   C20640750   0.457   4.652   6.736  0.2931  0.0016  0.8298
  113MOL   O20740751   0.387   4.770   6.693  0.0163  0.0906 -0.0679
  113MOL   H20840752   0.238   4.339   6.296  0.0252 -0.6672 -0.6540
  113MOL   H20940753   0.278   4.516   6.274 -0.7658  0.5406  2.5351
  113MOL   H21040754   0.384   4.326   6.483 -2.4635 -0.2577  1.7518
  113MOL   H21140755   0.236   4.421   6.489  0.4088 -1.1499  0.5903
  113MOL   H21240756   0.384   4.618   6.458 -0.3209 -2.0093 -2.5161
  113MOL   H21340757   0.522   4.524   6.460 -0.1021  4.3122 -1.3900
  113MOL   H21440758   0.458   4.439   6.707 -1.2416 -0.0684  0.3785
  113MOL   H21540759   0.299   4.514   6.675 -0.4400 -1.3082 -0.2496
  113MOL   H21640760   0.462   4.649   6.845  2.8242 -2.3076  0.6894
  113MOL   H21740761   0.561   4.674   6.713  0.7893 -1.6742  1.4279
  113MOL   C21840762   0.280   4.809   6.760  0.2137 -0.8140 -0.6922
  113MOL   O21940763   0.244   4.769   6.871 -0.0591 -0.6614  0.0455
  113MOL   C22040764   0.206   4.929   6.703 -0.9093  0.4331 -0.2721
  113MOL   C22140765   0.105   4.894   6.596  0.0526 -0.3499 -0.1911
  113MOL   C22240766   0.043   5.019   6.521 -0.3726  0.6259 -0.0026
  113MOL   C22340767   7.752   4.990   6.455 -0.0274  0.1933 -0.1882
  113MOL   C22440768   7.699   5.091   6.352 -0.2739  0.2993  0.4434
  113MOL   O22540769   7.769   5.103   6.228 -0.1902  0.4473  0.1206
  113MOL   H22640770   0.282   5.000   6.670 -0.6225  0.9788  1.5245
  113MOL   H22740771   0.143   4.975   6.778 -0.1822 -1.5171  1.5810
  113MOL   H22840772   0.030   4.828   6.639 -1.6502  1.2788 -0.6116
  113MOL   H22940773   0.152   4.825   6.526 -0.4037  0.2411 -1.0931
  113MOL   H23040774   0.123   5.061   6.459  0.1612  0.8001  0.7945
  113MOL   H23140775   0.012   5.094   6.594  0.1302  0.0017  0.8621
  113MOL   H23240776   7.678   4.966   6.532 -0.3202 -0.9106 -0.7985
  113MOL   H23340777   7.768   4.891   6.410  3.6869  0.3700  0.6001
  113MOL   H23440778   7.598   5.063   6.320  0.9483 -2.6392 -1.0082
  113MOL   H23540779   7.698   5.187   6.403 -0.7791 -0.2394  1.4811
  113MOL   C23640780   7.750   5.214   6.154  0.6677 -0.2497  0.7054
  113MOL   O23740781   7.694   5.313   6.189  0.7095  0.1854 -0.0169
  113MOL   C23840782   7.827   5.202   6.023 -0.2690 -0.5679  0.2237
  113MOL   C23940783   7.764   5.092   5.942 -0.0142  0.5409  0.5636
  113MOL   C24040784   7.618   5.106   5.890  0.6310  0.2818  0.2301
  113MOL   C24140785   7.564   4.993   5.790 -0.2850  1.0183 -0.3497
  113MOL   C24240786   7.437   5.023   5.712 -0.1550  0.4203  0.1632
  113MOL   O24340787   7.462   5.140   5.619  0.5393 -0.0511 -0.5535
  113MOL   H24440788   0.085   5.167   6.034  0.0834 -0.2711 -1.9961
  113MOL   H24540789   7.831   5.296   5.967  1.7333 -1.1885 -0.7288
  113MOL   H24640790   7.774   4.993   5.985 -1.1668 -0.2184 -0.8953
  113MOL   H24740791   7.831   5.075   5.858 -0.8810  0.2556 -0.0696
  113MOL   H24840792   7.618   5.199   5.834 -0.8271  0.6873  0.8873
  113MOL   H24940793   7.554   5.126   5.975  0.9787 -3.4627  1.4569
  113MOL   H25040794   7.548   4.904   5.850 -2.0597  1.1401 -0.6144
  113MOL   H25140795   7.643   4.958   5.723  1.6203 -1.9424  3.2884
  113MOL   H25240796   7.401   4.932   5.664 -0.7100 -0.4524  2.1929
  113MOL   H25340797   7.352   5.045   5.776 -0.0023  2.1323 -0.1995
  113MOL   C25440798   7.356   5.192   5.555  0.1659  0.0973 -0.2002
  113MOL   O25540799   7.238   5.161   5.568  0.1254 -0.5565  0.1260
  113MOL   C25640800   7.402   5.298   5.452  0.1469  0.2009 -1.1138
  113MOL   C25740801   7.352   5.437   5.487  0.1855 -0.8945  0.5885
  113MOL   C25840802   7.440   5.537   5.408  0.1789  0.8109 -0.2742
  113MOL   C25940803   7.387   5.680   5.416 -0.2948  0.4066  0.0214
  113MOL   C26040804   7.453   5.781   5.311 -0.0717  0.2666  0.0142
  113MOL   O26140805   7.596   5.775   5.308  0.2581  0.2758  0.0501
  113MOL   H26240806   7.392   5.272   5.347 -0.4171  0.6771 -1.1803
  113MOL   H26340807   7.510   5.308   5.455  0.2185 -0.5827 -1.0374
  113MOL   H26440808   7.359   5.474   5.590  1.6514 -1.5644  0.7501
  113MOL   H26540809   7.244   5.433   5.473  0.3818 -1.3546 -0.7978
  113MOL   H26640810   7.451   5.500   5.306 -1.0214 -2.2680  0.6673
  113MOL   H26740811   7.544   5.537   5.439 -0.1847 -0.9321  1.0273
  113MOL   H26840812   7.398   5.719   5.517  1.0435  1.1030 -0.3897
  113MOL   H26940813   7.278   5.690   5.407 -0.1724  2.2036  0.3575
  113MOL   H27040814   7.410   5.756   5.214 -0.3541 -0.6495  0.3716
  113MOL   H27140815   7.419   5.883   5.324  0.7929  0.6102 -0.3984
  113MOL   C27240816   7.653   5.798   5.196  0.9697 -0.0658  0.8362
  113MOL   O27340817   7.589   5.837   5.095 -0.5662 -0.2893  0.3065
  113MOL   C27440818   7.799   5.782   5.192  0.0663 -0.0501 -0.4699
  113MOL   C27540819   7.838   5.639   5.198  0.2732 -0.9529  0.3654
  113MOL   C27640820   0.143   5.610   5.179 -0.6564  0.4427  0.5286
  113MOL   C27740821   0.185   5.459   5.169 -0.0484  0.3129  0.2715
  113MOL   C27840822   0.335   5.446   5.153 -0.2596 -0.0482  0.0399
  113MOL   O27940823   0.376   5.312   5.164  0.4319  0.0670  0.1998
  113MOL   H28040824   7.838   5.843   5.274 -0.5912 -0.3894  0.0959
  113MOL   H28140825   7.827   5.824   5.095  0.2168  0.5777 -0.1584
  113MOL   H28240826   7.787   5.589   5.116  1.6622 -1.2589 -0.3147
  113MOL   H28340827   7.802   5.586   5.287  0.0478 -0.8045  0.3608
  113MOL   H28440828   0.189   5.662   5.262  0.1657  1.6673 -0.6649
  113MOL   H28540829   0.191   5.654   5.091  2.0843 -3.5528 -0.1108
  113MOL   H28640830   0.131   5.411   5.087  1.5417  2.3736 -2.0900
  113MOL   H28740831   0.159   5.416   5.265 -0.5002 -0.1445 -0.0519
  113MOL   H28840832   0.363   5.489   5.057 -0.0367  2.3575  1.1696
  113MOL   H28940833   0.376   5.505   5.235  0.0382 -0.5075  0.2230
  113MOL   C29040834   0.494   5.287   5.215  0.0031  0.1114 -0.2036
  113MOL   O29140835   0.557   5.375   5.273  0.2905  0.5850 -0.4660
  113MOL   C29240836   0.547   5.151   5.188 -0.0141  0.6374  0.1447
  113MOL   C29340837   0.688   5.120   5.248  0.4306  0.0647  0.3200
  113MOL   C29440838   0.693   5.089   5.398  0.2045  0.2511 -0.2516
  113MOL   C29540839   0.833   5.042   5.444  0.3131  0.2550 -0.0924
  113MOL   C29640840   0.864   5.040   5.596 -0.2875  0.5905 -0.9439
  113MOL   O29740841   1.000   5.019   5.613  0.0388  0.3541  0.0530
  113MOL   H29840842   0.552   5.144   5.080 -1.1131  0.2629  0.1156
  113MOL   H29940843   0.476   5.075   5.220  0.3564 -0.3861 -1.4080
  113MOL   H30040844   0.744   5.207   5.214 -0.8314  0.1391 -1.6158
  113MOL   H30140845   0.738   5.039   5.197 -0.0661  0.4307 -0.7537
  113MOL   H30240846   0.623   5.013   5.432  0.3259  0.5780  0.7607
  113MOL   H30340847   0.674   5.183   5.449  0.0525  0.4640 -0.6996
  113MOL   H30440848   0.913   5.097   5.395  0.0905  0.7329  0.0811
  113MOL   H30540849   0.850   4.939   5.412  1.7611 -0.0098  1.4638
  113MOL   H30640850   0.841   5.137   5.639 -1.6330 -0.8468  1.6571
  113MOL   H30740851   0.796   4.969   5.643  2.8106 -0.5649  2.0021
  113MOL   C30840852   1.055   4.918   5.687  0.3449 -0.6180 -0.0700
  113MOL   O30940853   0.996   4.844   5.761 -0.1440 -0.1026  0.5307
  113MOL   C31040854   1.200   4.894   5.656 -0.0148  0.4061  0.5167
  113MOL   C31140855   1.228   4.871   5.503 -0.0739  1.0941  0.3065
  113MOL   C31240856   1.141   4.783   5.421 -0.2721  0.0927 -0.1464
  113MOL   C31340857   1.213   4.737   5.296 -0.1933  0.0731  0.4442
  113MOL   C31440858   1.130   4.622   5.230  0.3267 -0.0960  0.2406
  113MOL   O31540859   1.163   4.496   5.279 -0.1944 -0.0703 -0.0471
  113MOL   H31640860   1.216   4.806   5.719 -0.6054  0.0460  0.1767
  113MOL   H31740861   1.262   4.972   5.701 -0.8745  0.0672  2.3306
  113MOL   H31840862   1.327   4.826   5.497 -1.2336 -1.5938  0.6147
  113MOL   H31940863   1.235   4.969   5.456  0.5626 -0.3596 -2.7292
  113MOL   H32040864   1.050   4.834   5.392  0.3346  1.0571 -0.3837
  113MOL   H32140865   1.114   4.704   5.490 -1.9327  1.3598  0.6810
  113MOL   H32240866   1.306   4.687   5.322  0.8326  1.2073 -0.9481
  113MOL   H32340867   1.225   4.823   5.230  1.7435 -0.9869 -0.6344
  113MOL   H32440868   1.025   4.649   5.233  0.9309  2.6721 -1.1552
  113MOL   H32540869   1.152   4.625   5.123  0.2776  1.4090  0.2594
  113MOL   C32640870   1.075   4.398   5.277  0.1626  0.1309  0.0721
  113MOL   O32740871   0.957   4.389   5.229 -0.1770 -0.6635 -0.5305
  113MOL   C32840872   1.125   4.278   5.366 -0.0952  0.1676 -0.5702
  113MOL   C32940873   1.015   4.190   5.426 -0.5817  0.2177  0.1946
  113MOL   C33040874   1.068   4.131   5.556  0.5457 -0.0502  0.1857
  113MOL   C33140875   0.957   4.058   5.629 -0.0695  0.3539 -0.3467
  113MOL   C33240876   0.994   4.011   5.779 -0.2898 -0.7547 -0.1015
  113MOL   O33340877   0.874   3.974   5.844 -0.0122 -0.5485 -0.1716
  113MOL   H33440878   1.179   4.327   5.447 -2.1472  1.2857  0.1699
  113MOL   H33540879   1.203   4.227   5.310 -0.5247  1.0601 -2.0110
  113MOL   H33640880   0.979   4.114   5.356  0.8157 -0.6082  0.3431
  113MOL   H33740881   0.932   4.259   5.439  0.3195  1.6175 -1.2249
  113MOL   H33840882   1.089   4.207   5.631 -0.1765  0.2028  0.1310
  113MOL   H33940883   1.159   4.070   5.555  0.4271 -0.2294  0.2294
  113MOL   H34040884   0.939   3.965   5.576  0.5833 -1.0564  1.8302
  113MOL   H34140885   0.863   4.113   5.637 -0.0742  0.4715 -1.2293
  113MOL   H34240886   1.046   3.916   5.772  0.0653 -0.5684 -0.0493
  113MOL   H34340887   1.051   4.086   5.835 -2.1401  1.0995 -0.6424
  113MOL   C34440888   0.861   3.997   5.973  0.2781 -0.3581  0.0809
  113MOL   O34540889   0.934   4.061   6.049 -0.2388 -0.0355  0.2071
  113MOL   C34640890   0.725   3.948   6.032  0.1677  0.2920 -0.2397
  113MOL   C34740891   0.736   3.810   6.098  0.2709 -0.9596  0.1054
  113MOL   C34840892   0.769   3.700   5.997  0.1094 -0.0175  0.0558
  113MOL   C34940893   0.808   3.571   6.064 -0.1713  0.5277 -0.6614
  113MOL   C35040894   0.833   3.458   5.966 -0.3708  1.1755 -0.4125
  113MOL   O35140895   0.712   3.396   5.917 -0.2249  0.1314 -0.0580
  113MOL   H35240896   0.652   3.941   5.951  0.0089  0.5347 -0.1176
  113MOL   H35340897   0.683   4.022   6.100 -0.0705 -0.1059  0.0484
  113MOL   H35440898   0.636   3.795   6.138  0.2043 -1.5884 -0.2959
  113MOL   H35540899   0.811   3.810   6.177  0.4183 -0.1703 -0.0304
  113MOL   H35640900   0.852   3.741   5.941 -1.2930  1.1975 -1.1743
  113MOL   H35740901   0.681   3.683   5.935  0.0899 -2.1657  0.6174
  113MOL   H35840902   0.736   3.537   6.138  0.6537 -0.7280 -0.4208
  113MOL   H35940903   0.907   3.579   6.110 -0.7072  2.1136  0.2406
  113MOL   H36040904   0.892   3.489   5.879 -1.5623  1.2831 -1.1977
  113MOL   H36140905   0.899   3.386   6.015 -2.7250 -0.8523 -0.1574
  113MOL   H36240906   0.739   3.319   5.870 -2.0508 -2.0954  2.4136
  114MOL     C140907   2.843   4.410   1.515  0.4649 -0.1852  0.4856
  114MOL     O240908   2.958   4.419   1.471 -0.3355 -0.2307  0.4739
  114MOL     C340909   2.719   4.462   1.434 -1.1404  0.6150  0.2956
  114MOL     C440910   2.751   4.565   1.329  1.0883 -0.2666  1.0392
  114MOL     C540911   2.759   4.701   1.398 -0.3574  0.1269  0.2983
  114MOL     C640912   2.820   4.811   1.308 -1.1455  0.0468  0.0172
  114MOL     C740913   2.749   4.844   1.176  0.2422  0.2456  0.1468
  114MOL     O840914   2.620   4.897   1.203 -0.0383 -0.1520  0.9407
  114MOL     H940915   2.652   4.512   1.505 -1.1015  0.9985  0.0649
  114MOL    H1040916   2.651   4.386   1.396  2.3221 -1.7478 -1.4402
  114MOL    H1140917   2.666   4.570   1.262  1.0697  0.1276  1.0881
  114MOL    H1240918   2.847   4.542   1.283  0.9967  2.2027 -0.5422
  114MOL    H1340919   2.826   4.682   1.482  1.9159  1.0295 -1.2583
  114MOL    H1440920   2.661   4.737   1.429 -0.5346 -1.1947  1.3272
  114MOL    H1540921   2.926   4.795   1.287 -0.9493 -0.2611  1.2020
  114MOL    H1640922   2.829   4.902   1.368  1.9800 -0.9775  1.1957
  114MOL    H1740923   2.815   4.920   1.134 -1.6021  1.8506  0.1450
  114MOL    H1840924   2.736   4.765   1.101  1.4285 -0.6187  0.8363
  114MOL    H1940925   2.817   4.348   1.601 -1.3386 -2.0256 -1.3228
  114MOL    C2040926   2.544   4.949   1.104  0.0273  0.0369  0.2909
  114MOL    O2140927   2.566   4.935   0.982  0.0627  0.1189 -0.3151
  114MOL    C2240928   2.438   5.040   1.158 -0.0654  0.4303  0.7404
  114MOL    C2340929   2.390   5.006   1.297 -0.3652 -0.3577 -0.3371
  114MOL    C2440930   2.314   4.877   1.306 -0.4523  0.1601  0.6582
  114MOL    C2540931   2.282   4.849   1.445 -0.3365 -0.2670 -0.2759
  114MOL    C2640932   2.177   4.943   1.499 -0.3185  0.4687 -0.4930
  114MOL    O2740933   2.151   4.932   1.645 -0.0376  0.3536 -0.1134
  114MOL    H2840934   2.352   5.052   1.091 -1.8098 -2.2226  2.4051
  114MOL    H2940935   2.479   5.141   1.158  1.3589 -0.1404  0.3526
  114MOL    H3040936   2.320   5.084   1.327 -2.0799 -1.3916 -1.5661
  114MOL    H3140937   2.465   5.014   1.376 -0.7328  0.6511 -0.0827
  114MOL    H3240938   2.376   4.792   1.277 -2.3181 -0.8076 -0.6262
  114MOL    H3340939   2.228   4.863   1.240  0.0722  0.5420 -0.1118
  114MOL    H3440940   2.371   4.848   1.508 -0.9232 -0.0606  0.5766
  114MOL    H3540941   2.251   4.745   1.443 -1.3415  0.0441 -1.5074
  114MOL    H3640942   2.210   5.047   1.491  0.8136  0.1366 -0.2631
  114MOL    H3740943   2.085   4.927   1.444  0.6052  1.3981 -2.3271
  114MOL    C3840944   2.090   4.825   1.688 -0.4800 -0.2621  0.1545
  114MOL    O3940945   2.050   4.738   1.615 -0.3804 -0.1156  0.0294
  114MOL    C4040946   2.082   4.835   1.843  1.0085  0.2156 -0.0459
  114MOL    C4140947   2.155   4.726   1.919  0.3777  0.1757 -0.9840
  114MOL    C4240948   2.149   4.743   2.075 -0.5736  0.7261  0.1429
  114MOL    C4340949   2.197   4.619   2.159  0.0805 -0.3147  0.2549
  114MOL    C4440950   2.216   4.639   2.314 -0.3737  0.3425  0.5722
  114MOL    O4540951   2.208   4.522   2.385  0.4897 -0.4647 -0.7725
  114MOL    H4640952   1.975   4.845   1.862  1.1593  1.9396 -0.0104
  114MOL    H4740953   2.119   4.932   1.878 -0.7237  0.6794  0.5693
  114MOL    H4840954   2.257   4.716   1.884  1.3738  0.0662  1.8190
  114MOL    H4940955   2.111   4.630   1.892  1.8411 -0.4964 -0.9770
  114MOL    H5040956   2.047   4.771   2.104 -0.6688  1.6924 -1.0759
  114MOL    H5140957   2.213   4.825   2.107  1.2188 -0.7752  0.5054
  114MOL    H5240958   2.297   4.586   2.131  0.1139 -0.4100  0.4864
  114MOL    H5340959   2.124   4.541   2.137 -0.7320  0.7755 -1.0365
  114MOL    H5440960   2.315   4.682   2.329 -1.0546  2.1434  0.0510
  114MOL    H5540961   2.140   4.710   2.347 -1.9942 -1.1487  0.1316
  114MOL    C5640962   2.215   4.526   2.517  0.9174 -1.2665  0.9563
  114MOL    O5740963   2.230   4.624   2.580  0.1837  0.6703 -0.4481
  114MOL    C5840964   2.198   4.388   2.579  1.0018 -0.3074  0.0225
  114MOL    C5940965   2.070   4.365   2.653 -0.5008 -0.2307 -0.3776
  114MOL    C6040966   2.067   4.414   2.798  0.5459  0.1004 -0.5690
  114MOL    C6140967   1.923   4.424   2.850  0.5249  0.1210  0.0141
  114MOL    C6240968   1.924   4.455   2.998  0.1492  0.2926  0.2552
  114MOL    O6340969   1.786   4.463   3.049  0.5076 -0.1433  0.5189
  114MOL    H6440970   2.275   4.367   2.653  0.3362 -2.8400  0.0215
  114MOL    H6540971   2.211   4.321   2.494  1.7421 -2.9285  2.1300
  114MOL    H6640972   2.078   4.256   2.656  2.0583 -0.0554  0.7860
  114MOL    H6740973   1.987   4.398   2.591 -0.3838  0.5687 -0.1209
  114MOL    H6840974   2.110   4.514   2.809 -3.7380  2.0226  0.2357
  114MOL    H6940975   2.123   4.350   2.866 -2.8773 -3.1225 -0.6185
  114MOL    H7040976   1.870   4.330   2.836  0.5835 -0.0179  0.6996
  114MOL    H7140977   1.876   4.496   2.783  1.1833  0.3077 -0.2509
  114MOL    H7240978   1.980   4.385   3.061  1.1477  0.0178 -0.9325
  114MOL    H7340979   1.963   4.556   3.003  0.4021  0.2110 -0.0629
  114MOL    C7440980   1.749   4.518   3.171  0.0724 -0.0600 -0.5598
  114MOL    O7540981   1.812   4.586   3.250 -0.1217 -0.2694 -0.0183
  114MOL    C7640982   1.617   4.462   3.210  0.0637  0.5150  0.3322
  114MOL    C7740983   1.509   4.540   3.139 -0.7298 -0.5773 -0.0937
  114MOL    C7840984   1.462   4.670   3.207 -0.4763  0.5838  0.5794
  114MOL    C7940985   1.342   4.740   3.135  0.3687  0.7734 -0.3163
  114MOL    C8040986   1.304   4.872   3.200  0.0359 -1.5400  0.2798
  114MOL    O8140987   1.202   4.928   3.118 -0.1288  0.0522  0.2240
  114MOL    H8240988   1.600   4.451   3.317 -2.1627 -2.9300 -0.3050
  114MOL    H8340989   1.601   4.358   3.183  1.0645 -0.2193  2.5292
  114MOL    H8440990   1.426   4.470   3.137 -1.9344  0.8072  0.5248
  114MOL    H8540991   1.519   4.559   3.032 -1.3077  0.0047 -0.0460
  114MOL    H8640992   1.539   4.746   3.209 -1.6855  1.8220  1.4578
  114MOL    H8740993   1.433   4.639   3.308 -0.8401  0.1428  0.3485
  114MOL    H8840994   1.261   4.667   3.126  0.2954  0.5352  2.0273
  114MOL    H8940995   1.370   4.760   3.032  0.0499  2.0411 -0.1678
  114MOL    H9040996   1.263   4.863   3.300 -2.5268  0.1721 -0.5644
  114MOL    H9140997   1.390   4.940   3.200 -2.0109  1.1640 -1.4747
  114MOL    C9240998   1.140   5.042   3.156 -0.1037  0.5276  0.5870
  114MOL    O9340999   1.150   5.105   3.260 -0.0751  1.1189 -0.1300
  114MOL    C9441000   1.035   5.094   3.052  0.2694 -0.4434  0.1465
  114MOL    C9541001   0.958   5.231   3.085 -0.5548  0.3372  0.1218
  114MOL    C9641002   0.848   5.210   3.193  0.1119  0.4559 -0.5085
  114MOL    C9741003   0.737   5.316   3.209 -0.1418 -1.0149 -0.5150
  114MOL    C9841004   0.687   5.315   3.356  0.3719 -0.3925  0.1995
  114MOL    O9941005   0.596   5.425   3.368  0.0223  0.6730  0.5669
  114MOL   H10041006   0.970   5.010   3.029 -1.3088  0.1465  2.3150
  114MOL   H10141007   1.091   5.101   2.958  1.3018  0.3385  0.8100
  114MOL   H10241008   0.909   5.262   2.993 -0.2714 -1.1517 -0.5373
  114MOL   H10341009   1.035   5.301   3.120  3.2486 -2.8358 -1.4829
  114MOL   H10441010   0.902   5.198   3.287  0.9472  0.4390 -0.9889
  114MOL   H10541011   0.806   5.109   3.191  4.2415 -1.3683 -0.4467
  114MOL   H10641012   0.661   5.293   3.134 -1.5477 -0.6432  0.7737
  114MOL   H10741013   0.778   5.414   3.186  0.6145 -1.0588  0.5758
  114MOL   H10841014   0.625   5.227   3.375  0.7673 -1.7036 -4.0859
  114MOL   H10941015   0.762   5.329   3.434  0.5873  2.2362 -0.4398
  114MOL   C11041016   0.637   5.534   3.425 -0.1657 -0.6332 -0.3971
  114MOL   O11141017   0.754   5.569   3.449 -0.1251  0.1880 -0.5193
  114MOL   C11241018   0.514   5.622   3.447 -0.3494  0.6534 -0.1983
  114MOL   C11341019   0.546   5.761   3.496 -0.2704 -0.0861 -0.2094
  114MOL   C11441020   0.439   5.841   3.551  0.5701 -0.4388 -0.0740
  114MOL   C11541021   0.320   5.844   3.458  0.0241 -0.4266  0.3939
  114MOL   C11641022   0.207   5.940   3.500 -0.7063 -0.0022 -0.4416
  114MOL   O11741023   0.262   6.065   3.546  0.0480 -0.0097  0.6480
  114MOL   H11841024   0.454   5.569   3.521 -0.5178  1.0420 -0.0539
  114MOL   H11941025   0.449   5.619   3.360 -0.0226  2.1629 -0.5104
  114MOL   H12041026   0.586   5.821   3.414 -0.5267  0.4222  0.0370
  114MOL   H12141027   0.620   5.755   3.577 -0.3063  1.5878 -0.0325
  114MOL   H12241028   0.472   5.944   3.565 -2.7117  0.7974 -0.9032
  114MOL   H12341029   0.405   5.805   3.648 -2.6629  2.2280 -0.1185
  114MOL   H12441030   0.288   5.749   3.413  1.2784 -0.2569 -0.8888
  114MOL   H12541031   0.357   5.893   3.368 -2.2937 -3.7743 -2.5787
  114MOL   H12641032   0.143   5.950   3.412  0.0684 -0.2601 -1.0443
  114MOL   H12741033   0.142   5.901   3.578 -0.8174  1.8116  0.4066
  114MOL   C12841034   0.186   6.177   3.556  0.5339 -0.2060  0.0733
  114MOL   O12941035   0.067   6.184   3.537  0.3106 -0.7331 -0.0390
  114MOL   C13041036   0.262   6.297   3.609 -0.4033  0.2940 -0.1115
  114MOL   C13141037   0.390   6.262   3.702 -0.0921 -0.3149 -0.2188
  114MOL   C13241038   0.450   6.392   3.756  0.6662 -0.6030  0.2664
  114MOL   C13341039   0.560   6.381   3.862 -0.1638 -0.1377 -0.3529
  114MOL   C13441040   0.631   6.516   3.884  0.1608  0.2714 -0.2408
  114MOL   O13541041   0.551   6.601   3.966  0.3221 -0.0425 -0.2316
  114MOL   H13641042   0.182   6.354   3.656 -0.8814 -1.7702  1.6578
  114MOL   H13741043   0.295   6.340   3.514 -0.2636  0.0662 -0.1673
  114MOL   H13841044   0.471   6.218   3.646  1.1007  2.6356 -0.8824
  114MOL   H13941045   0.367   6.201   3.790  1.1959 -2.8135 -1.5778
  114MOL   H14041046   0.365   6.447   3.798  1.1917  0.0064  0.5296
  114MOL   H14141047   0.482   6.429   3.659  0.1397 -0.6562  0.0676
  114MOL   H14241048   0.631   6.307   3.826  0.4424 -0.2599  1.0769
  114MOL   H14341049   0.510   6.348   3.954 -1.3333  2.7109  0.0865
  114MOL   H14441050   0.727   6.498   3.933  0.7899 -0.0968 -1.5822
  114MOL   H14541051   0.642   6.562   3.786  1.6834 -0.4063 -0.3969
  114MOL   C14641052   0.564   6.735   3.953  0.1675  0.4640  0.2979
  114MOL   O14741053   0.662   6.788   3.897  0.3264  0.8092 -0.1018
  114MOL   C14841054   0.452   6.826   4.008  0.0564 -0.0486  0.1180
  114MOL   C14941055   0.475   6.881   4.149 -0.5163  0.4267  0.4891
  114MOL   C15041056   0.581   6.993   4.148 -0.1988 -0.1088  0.2107
  114MOL   C15141057   0.631   7.032   4.287 -0.4825  0.3429  0.0015
  114MOL   C15241058   0.766   7.101   4.278  0.1617 -0.6838  0.0936
  114MOL   O15341059   0.826   7.148   4.394 -0.0976 -0.0752  0.2840
  114MOL   H15441060   0.362   6.765   3.998  0.2652 -0.6318  1.7233
  114MOL   H15541061   0.453   6.917   3.947 -1.9483  0.0010  0.1394
  114MOL   H15641062   0.489   6.796   4.216  0.8272  0.9737  0.9152
  114MOL   H15741063   0.384   6.933   4.179  1.1260  2.1520  2.6575
  114MOL   H15841064   0.538   7.080   4.100  0.4155 -0.4695 -1.0193
  114MOL   H15941065   0.655   6.952   4.079  0.9149  3.4969 -0.8334
  114MOL   H16041066   0.646   6.947   4.354  1.3249  0.6564  0.0347
  114MOL   H16141067   0.557   7.095   4.336  0.2513  0.3508  1.1160
  114MOL   H16241068   0.839   7.044   4.221  0.0532 -1.6612  0.9099
  114MOL   H16341069   0.740   7.192   4.224 -1.8044  0.0219  2.1185
  114MOL   C16441070   0.865   7.063   4.496  0.3879  0.3270 -0.1750
  114MOL   O16541071   0.878   6.939   4.489  0.1459 -0.6439  0.3942
  114MOL   C16641072   0.917   7.136   4.625 -0.3883 -0.2083 -0.5383
  114MOL   C16741073   1.035   7.235   4.606 -0.0267 -0.3173  0.3791
  114MOL   C16841074   1.066   7.314   4.736  0.5795 -0.4364 -0.0895
  114MOL   C16941075   1.181   7.406   4.736 -0.5758 -0.1335 -0.0299
  114MOL   C17041076   1.213   7.466   4.873 -0.4229 -0.6995  0.3119
  114MOL   O17141077   1.098   7.540   4.913 -0.3468  0.3108  0.2481
  114MOL   H17241078   0.945   7.057   4.695  1.7837  0.7445 -0.2882
  114MOL   H17341079   0.831   7.190   4.662 -0.3476 -0.8754  0.5402
  114MOL   H17441080   0.999   7.308   4.535 -0.5465  0.4446  1.4157
  114MOL   H17541081   1.121   7.178   4.569  0.8718  0.3960  1.3327
  114MOL   H17641082   1.078   7.234   4.809 -0.5633 -1.4590 -1.0058
  114MOL   H17741083   0.971   7.362   4.759  1.2578  0.8307  0.0923
  114MOL   H17841084   1.155   7.491   4.672  1.1220 -1.0767 -2.0140
  114MOL   H17941085   1.274   7.362   4.700 -0.9428 -1.0044  0.0834
  114MOL   H18041086   1.231   7.384   4.943 -1.7525 -0.0387  1.4411
  114MOL   H18141087   1.308   7.520   4.866  0.2295 -1.9791 -0.9295
  114MOL   C18241088   1.099   7.583   5.046 -0.3048 -0.4015 -0.6511
  114MOL   O18341089   1.192   7.582   5.129  0.6092  0.1631  0.4422
  114MOL   C18441090   0.964   7.643   5.086 -0.4593  0.0877 -0.0086
  114MOL   C18541091   0.846   7.560   5.042  0.0274 -0.0825 -0.4842
  114MOL   C18641092   0.816   7.415   5.086 -0.1595  0.5684  0.8838
  114MOL   C18741093   0.682   7.353   5.049 -0.2400 -0.4024 -0.4263
  114MOL   C18841094   0.663   7.314   4.906  0.0480 -0.0132  0.0749
  114MOL   O18941095   0.522   7.296   4.886  0.5777  0.1030  0.2506
  114MOL   H19041096   0.955   7.745   5.049 -2.2384  0.0499  0.2651
  114MOL   H19141097   0.963   7.663   5.193 -1.6415 -1.1441  0.2319
  114MOL   H19241098   0.835   7.556   4.933  1.3499  1.0881 -0.6733
  114MOL   H19341099   0.753   7.609   5.070 -0.6613 -1.7437  0.2276
  114MOL   H19441100   0.830   7.424   5.193  1.4597  2.2621  0.5686
  114MOL   H19541101   0.893   7.352   5.041 -0.3768  0.7192  0.2845
  114MOL   H19641102   0.604   7.420   5.084 -0.6533 -0.9798 -0.2356
  114MOL   H19741103   0.672   7.261   5.107 -1.7163 -0.1119 -0.2118
  114MOL   H19841104   0.693   7.392   4.836 -1.5279 -1.7957 -2.7003
  114MOL   H19941105   0.721   7.224   4.883 -2.8119 -2.1608  0.8987
  114MOL   C20041106   0.491   7.235   4.760  0.1684 -0.1535 -0.5463
  114MOL   O20141107   0.570   7.216   4.662  0.0536  0.6432  0.1948
  114MOL   C20241108   0.352   7.177   4.766 -0.3493  0.2972 -0.1896
  114MOL   C20341109   0.349   7.022   4.787  0.1734  0.1567 -0.2746
  114MOL   C20441110   0.370   6.948   4.662 -0.1281 -0.1058 -0.2934
  114MOL   C20541111   0.362   6.795   4.688  0.5224 -0.1779  0.5589
  114MOL   C20641112   0.387   6.710   4.562 -0.2569  0.6749  0.6672
  114MOL   O20741113   0.525   6.706   4.524 -0.1916 -0.1662 -0.5935
  114MOL   H20841114   0.294   7.203   4.678 -0.3451 -1.8712 -0.8547
  114MOL   H20941115   0.302   7.223   4.852 -1.2813 -0.9321 -0.0573
  114MOL   H21041116   0.258   6.986   4.835 -0.6378  0.9467 -1.1786
  114MOL   H21141117   0.420   7.007   4.868 -2.1420  0.6299  1.9332
  114MOL   H21241118   0.466   6.982   4.624  0.6720 -0.4745  1.3390
  114MOL   H21341119   0.308   6.975   4.577 -0.3822  0.9926  0.2305
  114MOL   H21441120   0.259   6.781   4.720 -0.0159 -0.6257 -1.3359
  114MOL   H21541121   0.431   6.775   4.771 -1.8386  0.0177  2.6293
  114MOL   H21641122   0.350   6.611   4.589  0.3827  0.1339 -0.3865
  114MOL   H21741123   0.341   6.751   4.473  0.5358 -1.3301 -0.7150
  114MOL   C21841124   0.561   6.636   4.414  0.8224  0.0983 -0.3073
  114MOL   O21941125   0.488   6.562   4.347 -0.4631  0.6946 -0.0236
  114MOL   C22041126   0.712   6.656   4.382  0.4014 -0.1686 -0.9294
  114MOL   C22141127   0.772   6.564   4.276 -0.3510  0.0667  0.4370
  114MOL   C22241128   0.914   6.602   4.236  0.6157  0.1031 -0.1512
  114MOL   C22341129   0.976   6.495   4.143 -0.3646  0.7022  0.3682
  114MOL   C22441130   1.094   6.554   4.056  0.1827 -0.4927 -0.5845
  114MOL   O22541131   1.052   6.668   3.980  0.1125 -0.2215 -0.3333
  114MOL   H22641132   0.764   6.653   4.478  0.4176 -1.1022 -0.9552
  114MOL   H22741133   0.734   6.760   4.359 -0.5329  0.6329  1.6210
  114MOL   H22841134   0.705   6.550   4.191  0.0572  1.8698 -0.2025
  114MOL   H22941135   0.768   6.460   4.310  0.0220 -0.9125 -2.3781
  114MOL   H23041136   0.974   6.624   4.324 -0.2860 -2.0835  1.0366
  114MOL   H23141137   0.919   6.701   4.190 -0.8231  1.2004  2.0075
  114MOL   H23241138   0.893   6.461   4.082  3.2270 -2.9352 -2.6955
  114MOL   H23341139   1.009   6.406   4.196 -1.5028  1.0479  1.7081
  114MOL   H23441140   1.185   6.564   4.117  1.1983 -0.7593 -2.0258
  114MOL   H23541141   1.121   6.472   3.989 -1.0865  0.4899 -2.3297
  114MOL   C23641142   0.991   6.669   3.865 -1.2344  0.4146  0.2374
  114MOL   O23741143   0.937   6.567   3.819  0.0492  0.1630 -0.0960
  114MOL   C23841144   0.986   6.802   3.792 -0.2285  0.1320  0.8796
  114MOL   C23941145   1.083   6.906   3.829 -0.5175 -0.1875 -0.0641
  114MOL   C24041146   1.235   6.876   3.789  0.4795  0.4690 -0.0156
  114MOL   C24141147   1.339   6.980   3.850  0.6789 -0.0828 -0.0201
  114MOL   C24241148   1.483   6.965   3.791 -0.0570  0.7409  0.3088
  114MOL   O24341149   1.479   7.000   3.654  0.7399  0.3946 -0.2031
  114MOL   H24441150   0.887   6.847   3.804 -1.0183 -1.1197 -0.7169
  114MOL   H24541151   1.005   6.787   3.685 -2.1940 -1.6201  0.7570
  114MOL   H24641152   1.079   6.920   3.938 -2.9083 -0.7720 -0.0630
  114MOL   H24741153   1.047   7.001   3.791 -1.0636  0.3920  1.8068
  114MOL   H24841154   1.245   6.874   3.681 -0.1943  0.3862 -0.0824
  114MOL   H24941155   1.263   6.774   3.813  0.5540  1.1102  2.7578
  114MOL   H25041156   1.341   6.958   3.957  0.8954 -0.4997 -0.1038
  114MOL   H25141157   1.323   7.087   3.838 -0.0397 -0.0693  1.0114
  114MOL   H25241158   1.543   7.033   3.851 -1.8973  1.3602  1.5042
  114MOL   H25341159   1.521   6.865   3.811  2.3804  1.6062  0.1682
  114MOL   C25441160   1.505   6.915   3.561 -0.1590  0.2298  0.0728
  114MOL   O25541161   1.536   6.799   3.570  0.8618 -0.2878  0.5553
  114MOL   C25641162   1.501   6.984   3.427 -0.6637  0.0334 -0.1964
  114MOL   C25741163   1.367   6.976   3.356  0.2165  0.1714 -0.0572
  114MOL   C25841164   1.280   7.111   3.374 -0.2230 -0.4537 -0.3718
  114MOL   C25941165   1.134   7.093   3.331  0.3071  0.3120  0.2539
  114MOL   C26041166   1.064   7.234   3.328 -0.8657  0.2950 -0.3431
  114MOL   O26141167   0.931   7.223   3.296  0.1262  0.6155  0.5074
  114MOL   H26241168   1.583   6.959   3.359 -0.8044  0.5140 -0.5401
  114MOL   H26341169   1.519   7.089   3.446  1.0929 -0.2396 -0.2866
  114MOL   H26441170   1.309   6.890   3.390  0.5150  0.7767  2.0590
  114MOL   H26541171   1.382   6.961   3.249 -0.6740 -3.1808  0.2354
  114MOL   H26641172   1.317   7.185   3.304  0.4980  0.7363  1.2536
  114MOL   H26741173   1.289   7.147   3.476 -2.4500  1.6330 -0.8774
  114MOL   H26841174   1.072   7.017   3.380  0.1914  0.6606  0.6475
  114MOL   H26941175   1.146   7.057   3.229  1.5228  0.8800  0.1942
  114MOL   H27041176   1.073   7.290   3.421  0.1396  0.6797 -0.6629
  114MOL   H27141177   1.117   7.301   3.260  0.7583  0.3056  0.9051
  114MOL   C27241178   0.886   7.259   3.170  0.3524  0.3547  0.5986
  114MOL   O27341179   0.956   7.299   3.078  0.2029  0.2162 -0.0098
  114MOL   C27441180   0.736   7.232   3.153  0.5058 -0.5767 -0.3004
  114MOL   C27541181   0.661   7.363   3.114  0.6526 -0.1832 -0.6321
  114MOL   C27641182   0.609   7.455   3.227  0.7115  0.1585 -0.2976
  114MOL   C27741183   0.481   7.409   3.277  0.6894  0.3732 -0.2444
  114MOL   C27841184   0.423   7.495   3.389  0.1972 -0.5059  0.1661
  114MOL   O27941185   0.346   7.608   3.349  0.3383 -0.0227  0.1152
  114MOL   H28041186   0.686   7.184   3.237  0.8011  0.1545  0.3040
  114MOL   H28141187   0.732   7.162   3.070  1.0513  0.6384 -1.3718
  114MOL   H28241188   0.574   7.330   3.058 -0.0529  2.4195 -1.1033
  114MOL   H28341189   0.714   7.423   3.040 -2.4427 -0.8685 -3.4993
  114MOL   H28441190   0.594   7.555   3.185 -0.8550  0.1821  0.3019
  114MOL   H28541191   0.674   7.476   3.311 -2.5441  1.1575  2.0703
  114MOL   H28641192   0.498   7.313   3.326  0.2047  1.0564  1.2873
  114MOL   H28741193   0.407   7.417   3.197  0.8308  0.9632 -0.3172
  114MOL   H28841194   0.362   7.432   3.454 -3.4695  2.1103 -0.5523
  114MOL   H28941195   0.495   7.538   3.458  0.9670  0.8167 -1.4344
  114MOL   C29041196   0.404   7.731   3.338  0.0073  0.1976 -0.4018
  114MOL   O29141197   0.519   7.753   3.367 -0.5290  0.2850  0.1529
  114MOL   C29241198   0.307   7.843   3.297 -0.3314 -0.5503 -0.5273
  114MOL   C29341199   0.179   0.016   3.378 -0.1044 -0.5130 -0.1688
  114MOL   C29441200   0.075   7.745   3.377 -0.2458  0.1638  0.0125
  114MOL   C29541201   7.784   7.796   3.435 -0.5140  0.5115  0.2805
  114MOL   C29641202   7.686   7.681   3.471  0.5346  0.6612  0.5442
  114MOL   O29741203   7.637   7.611   3.356 -0.3981 -0.4243  0.2044
  114MOL   H29841204   0.294   7.841   3.189  2.6745  1.4310 -0.9758
  114MOL   H29941205   0.363   0.090   3.316  0.9872 -1.4111 -0.1498
  114MOL   H30041206   0.144   0.111   3.336 -0.7849 -0.7220 -0.0746
  114MOL   H30141207   0.216   0.039   3.477  0.7834  0.9304 -0.8195
  114MOL   H30241208   0.109   7.656   3.431 -1.3215 -0.0112  0.4005
  114MOL   H30341209   0.064   7.721   3.271  0.5278 -0.9050  0.1595
  114MOL   H30441210   7.733   0.022   3.369 -1.0077  1.3500  1.5399
  114MOL   H30541211   7.803   0.018   3.519 -1.0419  1.1820 -0.1248
  114MOL   H30641212   7.732   7.608   3.537 -1.6971 -1.6647 -0.3841
  114MOL   H30741213   7.603   7.727   3.524  0.4235 -0.8829  1.7245
  114MOL   C30841214   7.697   7.503   3.310  0.0744 -0.0025 -0.2598
  114MOL   O30941215   7.794   7.449   3.358 -0.1672  0.4798  0.0261
  114MOL   C31041216   7.646   7.454   3.169 -0.3165  0.1947  0.0198
  114MOL   C31141217   7.531   7.357   3.181 -0.2164  0.3720 -0.1942
  114MOL   C31241218   7.491   7.284   3.052 -0.4431  0.3776 -1.2469
  114MOL   C31341219   7.409   7.362   2.950  0.9956 -0.0433 -0.0518
  114MOL   C31441220   7.336   7.276   2.844  0.4773  0.2423 -0.3484
  114MOL   O31541221   7.412   7.227   2.739  0.1352  0.2526  0.1828
  114MOL   H31641222   7.729   7.402   3.120 -1.1720 -2.5288  1.3584
  114MOL   H31741223   7.607   7.536   3.108  0.0469  1.0943  0.9941
  114MOL   H31841224   7.446   7.411   3.222 -1.3480 -1.7021  0.2893
  114MOL   H31941225   7.543   7.280   3.257 -2.0703  0.5994  0.3671
  114MOL   H32041226   7.430   7.202   3.087 -1.4888  0.1836 -3.4561
  114MOL   H32141227   7.580   7.245   3.002 -1.9258 -1.2588 -2.6409
  114MOL   H32241228   7.469   7.434   2.895  1.4794 -0.8554 -0.5946
  114MOL   H32341229   7.337   7.426   3.000  1.6573 -0.8953  2.0249
  114MOL   H32441230   7.276   7.207   2.902 -1.1049  1.2596 -0.7413
  114MOL   H32541231   7.263   7.336   2.790  1.2817 -0.0250 -1.7610
  114MOL   C32641232   7.448   7.305   2.639  0.2290  0.2542  0.1855
  114MOL   O32741233   7.410   7.421   2.622  0.2841  0.4286  0.3985
  114MOL   C32841234   7.536   7.232   2.538  0.5424  0.5207 -0.4848
  114MOL   C32941235   7.465   7.200   2.406  0.5493 -0.3542 -0.4595
  114MOL   C33041236   7.384   7.064   2.418 -0.2987 -0.3964  0.2826
  114MOL   C33141237   7.354   7.007   2.277 -0.0603 -0.6595  0.7910
  114MOL   C33241238   7.242   6.912   2.277 -0.0018 -0.3044  0.9234
  114MOL   O33341239   7.220   6.871   2.149  0.1088  0.0476  0.0597
  114MOL   H33441240   7.580   7.140   2.576  0.5317  0.6516 -0.1566
  114MOL   H33541241   7.624   7.295   2.526  0.3814  0.8896  0.2564
  114MOL   H33641242   7.552   7.177   2.346  0.2242  0.8295 -1.3957
  114MOL   H33741243   7.411   7.288   2.371 -0.2127 -1.1116 -1.2446
  114MOL   H33841244   7.293   7.083   2.475  0.1710  1.2572  0.4825
  114MOL   H33941245   7.441   6.986   2.469 -0.5544 -0.6511  0.1861
  114MOL   H34041246   7.439   6.964   2.223  0.8801  2.1963 -0.1210
  114MOL   H34141247   7.328   7.087   2.207  1.4493 -1.3657 -0.6282
  114MOL   H34241248   7.277   6.838   2.349 -1.0784 -2.7692 -1.0239
  114MOL   H34341249   7.154   6.945   2.333  1.3082  0.6122  2.5101
  114MOL   C34441250   7.101   6.865   2.092  0.5828 -0.1654 -0.0676
  114MOL   O34541251   6.998   6.901   2.150  0.3468  0.3194  0.2290
  114MOL   C34641252   7.101   6.806   1.948 -0.5020 -0.4356 -0.6799
  114MOL   C34741253   6.980   6.838   1.855 -0.1253 -0.4613 -0.0451
  114MOL   C34841254   6.988   6.771   1.719  0.5948  0.2762  0.8737
  114MOL   C34941255   6.861   6.802   1.634 -0.1565  0.7030  0.0802
  114MOL   C35041256   6.858   6.726   1.499  0.3702  0.2665 -0.2345
  114MOL   O35141257   6.751   6.769   1.415 -0.4195  0.1687  0.7249
  114MOL   H35241258   7.099   6.699   1.971 -2.5257 -0.6859 -1.9442
  114MOL   H35341259   7.194   6.828   1.895 -1.3798 -1.0476 -2.4982
  114MOL   H35441260   6.989   6.942   1.825 -0.5854 -0.2815  0.4258
  114MOL   H35541261   6.892   6.808   1.911  0.1615  0.1140  0.7342
  114MOL   H35641262   7.007   6.664   1.731  1.3963 -0.3675 -4.6842
  114MOL   H35741263   7.073   6.806   1.661  0.6674 -0.8419  0.2862
  114MOL   H35841264   6.851   6.909   1.613 -2.9305  0.0736 -2.0110
  114MOL   H35941265   6.769   6.775   1.686 -0.1712 -1.8450 -1.1896
  114MOL   H36041266   6.943   6.748   1.434  0.9458  0.2262  0.4881
  114MOL   H36141267   6.857   6.617   1.510  2.3280  0.1136 -1.2653
  114MOL   H36241268   6.678   6.723   1.454 -0.2638 -1.4142 -0.7698
  115MOL     C141269   3.713   4.683   3.772  0.2017  0.6328  0.3504
  115MOL     O241270   3.692   4.741   3.881 -0.9523 -0.3814  0.0092
  115MOL     C341271   3.681   4.749   3.636 -0.6350  0.7966  0.3676
  115MOL     C441272   3.595   4.872   3.627 -0.0152 -0.1475 -0.3962
  115MOL     C541273   3.454   4.822   3.607  0.4052 -0.4909  0.2598
  115MOL     C641274   3.370   4.817   3.741  0.0114  0.1905  0.1427
  115MOL     C741275   3.309   4.956   3.767 -0.3361  0.6744  0.3578
  115MOL     O841276   3.220   4.993   3.666 -0.4612  0.6778  0.2310
  115MOL     H941277   3.666   4.669   3.563  2.0729  0.5657  0.0175
  115MOL    H1041278   3.778   4.789   3.606 -0.7305 -0.0935 -1.1778
  115MOL    H1141279   3.624   4.936   3.543 -1.0576  2.6587  1.3212
  115MOL    H1241280   3.598   4.935   3.715 -0.5378  0.3262 -0.7081
  115MOL    H1341281   3.454   4.719   3.570 -1.5653 -0.0182 -1.1356
  115MOL    H1441282   3.408   4.874   3.524 -0.6559 -1.6031  0.1320
  115MOL    H1541283   3.430   4.781   3.825  0.1476 -0.7043 -0.3236
  115MOL    H1641284   3.283   4.752   3.744  0.3096 -0.2456 -0.4116
  115MOL    H1741285   3.266   4.951   3.867  1.0088  0.8375  0.9532
  115MOL    H1841286   3.383   5.033   3.789 -0.9134  1.3249  0.0196
  115MOL    H1941287   3.760   4.585   3.771  0.4757  0.7721 -1.7728
  115MOL    C2041288   3.167   5.115   3.674 -0.2597  0.3649  0.3036
  115MOL    O2141289   3.183   5.197   3.762  0.0262  0.0610 -0.0089
  115MOL    C2241290   3.067   5.149   3.569  0.4528  0.3886 -0.0901
  115MOL    C2341291   3.113   5.110   3.426  0.2714  0.0684  0.1914
  115MOL    C2441292   3.224   5.198   3.364  0.0010  0.0851  0.3955
  115MOL    C2541293   3.249   5.157   3.219 -0.0796  0.1494  0.0990
  115MOL    C2641294   3.330   5.262   3.137 -0.0821  0.7051  0.4095
  115MOL    O2741295   3.461   5.246   3.167 -0.4026 -0.3985  0.4978
  115MOL    H2841296   3.058   5.258   3.574 -0.6994  0.4136 -1.9747
  115MOL    H2941297   2.968   5.106   3.587  0.4637  0.5233  0.2866
  115MOL    H3041298   3.027   5.121   3.360 -0.7040 -1.2404  1.2168
  115MOL    H3141299   3.141   5.005   3.418  1.3585  0.4036 -0.4715
  115MOL    H3241300   3.311   5.198   3.429  1.8288  2.9654 -1.9246
  115MOL    H3341301   3.198   5.304   3.355 -0.0557  0.4376  4.1524
  115MOL    H3441302   3.153   5.150   3.167  0.9246  0.3386 -1.8389
  115MOL    H3541303   3.293   5.059   3.203 -2.0496 -0.3222 -2.9383
  115MOL    H3641304   3.314   5.247   3.031 -1.5260  0.4566  0.6550
  115MOL    H3741305   3.304   5.366   3.158 -0.5588  1.3293 -3.0443
  115MOL    C3841306   3.533   5.152   3.098  0.3006  0.3383  0.5187
  115MOL    O3941307   3.489   5.076   3.016  0.0913 -0.6853  0.5838
  115MOL    C4041308   3.673   5.127   3.149  0.5126  0.1113 -0.0132
  115MOL    C4141309   3.688   5.146   3.301 -0.0004 -0.0338  0.0573
  115MOL    C4241310   3.826   5.109   3.343  0.6605  0.4312 -0.1427
  115MOL    C4341311   3.870   5.166   3.479 -0.5905  0.2375  0.3225
  115MOL    C4441312   4.026   5.169   3.488  0.0486  0.3660 -0.4146
  115MOL    O4541313   4.079   5.038   3.458 -0.4361 -0.1113  0.0059
  115MOL    H4641314   3.750   5.177   3.090 -1.1130  1.5180 -0.9850
  115MOL    H4741315   3.684   5.021   3.125 -3.4824 -0.1926 -0.8654
  115MOL    H4841316   3.614   5.092   3.360 -1.3494  1.7485  0.0171
  115MOL    H4941317   3.672   5.251   3.323  1.5718  0.6203 -1.7495
  115MOL    H5041318   3.893   5.138   3.262  1.0137  1.5690  0.5383
  115MOL    H5141319   3.837   5.001   3.346 -0.0214  0.3433 -0.7638
  115MOL    H5241320   3.825   5.115   3.565 -0.4353  0.0380  0.2830
  115MOL    H5341321   3.841   5.270   3.493 -0.8911  0.1666  0.2367
  115MOL    H5441322   4.062   5.236   3.410 -0.9621  1.6747  0.2195
  115MOL    H5541323   4.058   5.211   3.583 -2.7086  0.6346  0.4242
  115MOL    C5641324   4.212   5.020   3.455 -0.4757  0.6882 -0.2807
  115MOL    O5741325   4.288   5.116   3.443  0.0697  0.1487  0.5333
  115MOL    C5841326   4.260   4.883   3.452 -0.6922  0.1022 -0.0135
  115MOL    C5941327   4.413   4.858   3.480  0.1420  0.4909 -0.5679
  115MOL    C6041328   4.450   4.910   3.622  0.2716 -0.2030 -0.6802
  115MOL    C6141329   4.600   4.879   3.654  0.2191 -0.1252 -0.2124
  115MOL    C6241330   4.629   4.876   3.803 -0.2188 -1.2151 -0.2595
  115MOL    O6341331   4.762   4.824   3.813  0.1186  0.0932 -0.1827
  115MOL    H6441332   4.227   4.854   3.352 -1.9217  3.5011 -0.6507
  115MOL    H6541333   4.191   4.815   3.502 -1.6854  1.0848 -0.0177
  115MOL    H6641334   4.469   4.910   3.403 -0.0411  2.4687  0.5911
  115MOL    H6741335   4.439   4.752   3.477 -1.7716 -0.0547  0.8321
  115MOL    H6841336   4.392   4.849   3.691  1.5067 -0.1531  0.4183
  115MOL    H6941337   4.423   5.015   3.634  0.9394 -0.1518  0.4865
  115MOL    H7041338   4.666   4.956   3.615  1.5962  0.3514  2.8756
  115MOL    H7141339   4.627   4.780   3.617 -1.7447 -0.7033 -0.1939
  115MOL    H7241340   4.620   4.966   3.864  0.2197 -1.2229 -0.1830
  115MOL    H7341341   4.562   4.806   3.851 -0.0452 -1.8518 -0.9325
  115MOL    C7441342   4.804   4.776   3.925  0.4711  0.0259  0.8957
  115MOL    O7541343   4.738   4.768   4.025  0.0421  0.3800  0.5787
  115MOL    C7641344   4.950   4.744   3.932 -0.1057  0.6147 -0.3528
  115MOL    C7741345   5.020   4.826   4.035  0.2502 -0.2626  0.0260
  115MOL    C7841346   5.015   4.981   4.037  0.8668 -0.4401  0.5790
  115MOL    C7941347   5.126   5.057   4.113 -0.3558  0.0533 -0.0365
  115MOL    C8041348   5.144   5.211   4.093 -0.6899  0.0889 -0.2069
  115MOL    O8141349   5.234   5.271   4.183 -0.0429 -0.1445  0.5943
  115MOL    H8241350   5.002   4.754   3.836 -0.6461  0.8031 -0.6277
  115MOL    H8341351   4.955   4.638   3.958 -1.4550  0.9763  1.4777
  115MOL    H8441352   5.121   4.786   4.044 -0.3748 -1.8637  0.0851
  115MOL    H8541353   4.982   4.796   4.132 -0.9559 -0.1336 -0.3924
  115MOL    H8641354   4.922   5.027   4.070  1.2605 -0.5291  1.8089
  115MOL    H8741355   5.007   5.010   3.932  0.9032  3.9116  1.6863
  115MOL    H8841356   5.225   5.011   4.115 -0.1033  0.6383  1.8233
  115MOL    H8941357   5.095   5.044   4.217  0.7322  1.0583  0.4251
  115MOL    H9041358   5.187   5.240   3.997 -1.7524 -0.2577 -0.8050
  115MOL    H9141359   5.041   5.247   4.103 -1.1690 -1.0962 -0.7630
  115MOL    C9241360   5.278   5.391   4.163 -0.1535  0.1394  0.3154
  115MOL    O9341361   5.258   5.475   4.068 -0.0487  0.5616 -0.0618
  115MOL    C9441362   5.362   5.445   4.286 -0.1027  0.0076  0.6479
  115MOL    C9541363   5.490   5.358   4.302  0.7076 -0.7175  0.6645
  115MOL    C9641364   5.602   5.414   4.387  0.3228 -0.5107 -0.0979
  115MOL    C9741365   5.594   5.381   4.541  0.6622 -0.8824  0.6154
  115MOL    C9841366   5.716   5.427   4.631  0.1236  0.2163 -0.1082
  115MOL    O9941367   5.841   5.377   4.589 -0.1392  0.2014 -0.4295
  115MOL   H10041368   5.296   5.448   4.373 -1.8614 -0.3070 -0.6494
  115MOL   H10141369   5.403   5.543   4.264 -1.7608 -0.0614 -3.1546
  115MOL   H10241370   5.536   5.325   4.208 -1.5384 -3.3607  0.4511
  115MOL   H10341371   5.462   5.274   4.364 -1.1059 -0.7757 -0.2026
  115MOL   H10441372   5.600   5.522   4.378  1.1017 -0.6294 -1.9077
  115MOL   H10541373   5.694   5.374   4.343  1.1716  1.8564 -0.5577
  115MOL   H10641374   5.606   5.273   4.557 -1.0710 -0.9432  1.5829
  115MOL   H10741375   5.503   5.420   4.584  0.3642  0.0949 -0.8731
  115MOL   H10841376   5.718   5.536   4.639  1.7676  0.4229 -2.8320
  115MOL   H10941377   5.692   5.392   4.731  0.7393  2.4557  0.8618
  115MOL   C11041378   5.925   5.456   4.523  0.2322 -0.8555  0.9128
  115MOL   O11141379   5.902   5.573   4.489 -0.0351  0.1425 -0.2508
  115MOL   C11241380   6.055   5.388   4.500 -0.4713 -0.2347  0.0443
  115MOL   C11341381   6.149   5.469   4.407 -0.6859 -0.2614 -0.0380
  115MOL   C11441382   6.272   5.389   4.342  0.1946  0.3404  0.1569
  115MOL   C11541383   6.357   5.314   4.443  0.0521 -0.5974  0.2950
  115MOL   C11641384   6.449   5.206   4.382 -0.0794 -0.3259  0.3331
  115MOL   O11741385   6.491   5.114   4.474  0.0547 -0.4730 -0.8516
  115MOL   H11841386   6.031   5.294   4.451 -2.2190  1.1069 -1.7533
  115MOL   H11941387   6.103   5.360   4.594  1.4327 -0.4354 -0.9731
  115MOL   H12041388   6.180   5.553   4.470 -1.2053 -0.3086  0.2800
  115MOL   H12141389   6.088   5.514   4.329  0.2097 -2.0150 -1.7972
  115MOL   H12241390   6.346   5.455   4.296  1.2534 -1.0411 -0.1352
  115MOL   H12341391   6.228   5.320   4.271  0.7872  1.5063 -1.3689
  115MOL   H12441392   6.282   5.254   4.494 -0.7294 -0.7225 -0.9606
  115MOL   H12541393   6.408   5.373   4.519  0.9441 -1.2650  0.2241
  115MOL   H12641394   6.393   5.152   4.306 -0.9949 -1.7902  2.0114
  115MOL   H12741395   6.538   5.253   4.341  0.1914  1.3511  2.7463
  115MOL   C12841396   6.593   5.039   4.446 -0.3624  0.1354  0.1787
  115MOL   O12941397   6.639   5.045   4.335  0.2044  0.1539 -0.0077
  115MOL   C13041398   6.644   4.948   4.561  0.8575 -0.0222  0.3295
  115MOL   C13141399   6.575   4.810   4.562 -0.1483 -0.1563  0.0885
  115MOL   C13241400   6.578   4.726   4.429  0.5866 -0.1209  0.2724
  115MOL   C13341401   6.716   4.682   4.384 -0.4080  0.1055 -0.2448
  115MOL   C13441402   6.738   4.589   4.269 -0.0872  0.1459 -0.4985
  115MOL   O13541403   6.679   4.461   4.298  0.0950 -0.1302  0.0048
  115MOL   H13641404   6.628   4.999   4.656 -1.4395  0.4319 -0.2776
  115MOL   H13741405   6.752   4.934   4.557  0.6270 -2.0165  0.5027
  115MOL   H13841406   6.471   4.825   4.593 -0.5414 -0.9113 -0.8469
  115MOL   H13941407   6.623   4.755   4.644  0.0883  1.3597  0.9854
  115MOL   H14041408   6.517   4.765   4.348 -0.2426 -0.3726  0.7713
  115MOL   H14141409   6.516   4.636   4.437  1.0731 -0.5669 -0.8266
  115MOL   H14241410   6.754   4.636   4.476  0.5038 -0.9088 -1.1031
  115MOL   H14341411   6.772   4.773   4.367 -0.2492  0.2051  0.7372
  115MOL   H14441412   6.707   4.634   4.174 -2.2376  1.0095  0.5701
  115MOL   H14541413   6.844   4.568   4.276 -0.0509  0.9583  1.7317
  115MOL   C14641414   6.650   4.369   4.200 -0.2225  0.0487 -0.9462
  115MOL   O14741415   6.696   4.363   4.092  0.0003  0.2627  0.0235
  115MOL   C14841416   6.550   4.265   4.255  0.0189  0.3689 -0.9229
  115MOL   C14941417   6.417   4.326   4.315  0.5940 -0.0088 -0.3098
  115MOL   C15041418   6.323   4.402   4.218  0.5844  0.0858  0.7114
  115MOL   C15141419   6.177   4.421   4.266 -0.4712 -0.3777 -0.1644
  115MOL   C15241420   6.087   4.501   4.161 -0.2771  0.6069 -0.2643
  115MOL   O15341421   5.954   4.513   4.210  0.8235 -0.7310 -0.1618
  115MOL   H15441422   6.580   4.203   4.340  1.0799  1.9464 -0.1373
  115MOL   H15541423   6.536   4.189   4.178 -0.1893  0.5052 -1.0181
  115MOL   H15641424   6.442   4.393   4.397  0.8764 -1.6115  0.9247
  115MOL   H15741425   6.346   4.253   4.354 -0.5167  0.9050 -0.5746
  115MOL   H15841426   6.319   4.354   4.121  0.2342 -0.4024  0.9706
  115MOL   H15941427   6.360   4.505   4.216  1.0036 -0.0798 -1.0843
  115MOL   H16041428   6.172   4.473   4.362 -0.6008 -0.4729 -0.1194
  115MOL   H16141429   6.122   4.327   4.270  1.3540 -1.4808 -0.5073
  115MOL   H16241430   6.138   4.595   4.138 -2.7148  1.2702 -3.1776
  115MOL   H16341431   6.095   4.438   4.073 -0.5657 -0.1818  0.2661
  115MOL   C16441432   5.877   4.618   4.166 -0.2478  1.1670 -1.1833
  115MOL   O16541433   5.921   4.717   4.099 -0.2467  0.2052 -0.3339
  115MOL   C16641434   5.734   4.610   4.215  0.3093  0.3640 -0.9179
  115MOL   C16741435   5.659   4.483   4.162  0.1929  0.0530 -0.4330
  115MOL   C16841436   5.664   4.369   4.267  0.1294  0.0819  0.1593
  115MOL   C16941437   5.609   4.231   4.219 -0.0893 -0.0342 -0.6057
  115MOL   C17041438   5.654   4.118   4.312 -0.8414  0.3053 -0.0728
  115MOL   O17141439   5.568   4.009   4.292  0.3270 -0.2175  0.2175
  115MOL   H17241440   5.677   4.696   4.183 -0.6445 -0.2555 -0.9098
  115MOL   H17341441   5.720   4.621   4.323  0.0608 -0.0788 -0.8995
  115MOL   H17441442   5.707   4.463   4.066 -0.6192  0.0821 -0.8516
  115MOL   H17541443   5.555   4.502   4.134  0.0668 -0.5353 -0.3773
  115MOL   H17641444   5.612   4.416   4.351  0.4557  2.1581 -0.7555
  115MOL   H17741445   5.769   4.346   4.284  0.1312 -0.4752 -0.5881
  115MOL   H17841446   5.642   4.219   4.115  1.5656 -0.2140 -0.0802
  115MOL   H17941447   5.500   4.231   4.223 -0.0915  1.4286 -0.4371
  115MOL   H18041448   5.750   4.079   4.280 -0.1223  2.6462 -0.9303
  115MOL   H18141449   5.645   4.137   4.419  0.2929 -0.6902  0.2070
  115MOL   C18241450   5.596   3.888   4.343 -1.3170 -0.6676 -1.1427
  115MOL   O18341451   5.690   3.880   4.417 -0.2992 -0.4020 -0.8358
  115MOL   C18441452   5.508   3.778   4.297  0.1522  0.1879 -0.8355
  115MOL   C18541453   5.486   3.657   4.406  0.1145  0.0509  0.1438
  115MOL   C18641454   5.612   3.571   4.422 -0.1596 -0.1158 -0.1546
  115MOL   C18741455   5.583   3.455   4.513  0.2053  0.1767 -0.9007
  115MOL   C18841456   5.711   3.393   4.568  0.1062  0.0175 -0.6994
  115MOL   O18941457   5.755   3.296   4.477 -0.1941 -0.5766 -0.0703
  115MOL   H19041458   5.552   3.740   4.204 -3.3041 -3.0710 -1.2830
  115MOL   H19141459   5.411   3.811   4.260 -0.7655 -0.9687  0.5044
  115MOL   H19241460   5.403   3.598   4.368 -0.2190 -0.0112  0.9416
  115MOL   H19341461   5.458   3.704   4.501 -0.8925 -1.2705  0.5135
  115MOL   H19441462   5.705   3.619   4.453 -1.0245  1.5652 -0.1394
  115MOL   H19541463   5.640   3.510   4.336  1.8020 -0.7905  0.9278
  115MOL   H19641464   5.516   3.383   4.466 -1.2395  1.3982 -0.7219
  115MOL   H19741465   5.532   3.499   4.599  1.0665 -1.2788  0.3955
  115MOL   H19841466   5.792   3.460   4.598 -0.4388 -0.4670  1.9717
  115MOL   H19941467   5.676   3.341   4.657  0.6003 -0.4592 -0.7806
  115MOL   C20041468   5.873   3.241   4.495 -0.2949 -0.5387 -0.2757
  115MOL   O20141469   5.958   3.260   4.580 -0.4272 -0.2912 -0.0382
  115MOL   C20241470   5.890   3.129   4.388 -0.0377 -0.0549 -0.3150
  115MOL   C20341471   5.996   3.021   4.429  0.3945  1.1230 -0.1920
  115MOL   C20441472   5.945   2.938   4.552  0.2984 -0.2612 -0.0443
  115MOL   C20541473   6.051   2.840   4.592  0.2217 -0.6768 -0.3713
  115MOL   C20641474   6.002   2.740   4.694  0.5110 -0.7588 -0.2980
  115MOL   O20741475   5.946   2.796   4.809  0.5040 -0.3406  0.0203
  115MOL   H20841476   5.906   3.176   4.290  1.1708  0.3867  0.0828
  115MOL   H20941477   5.795   3.080   4.367 -0.0005  0.4544 -1.7441
  115MOL   H21041478   6.088   3.073   4.458  1.1756 -0.5150  0.3359
  115MOL   H21141479   6.015   2.968   4.335  0.8962 -1.0263  1.0771
  115MOL   H21241480   5.849   2.896   4.523 -0.8671  2.7434 -0.7857
  115MOL   H21341481   5.927   3.016   4.627  1.4756  0.9096 -0.9449
  115MOL   H21441482   6.138   2.892   4.631 -0.5441  0.7243 -0.4775
  115MOL   H21541483   6.086   2.790   4.502 -1.7464 -0.7520 -1.1412
  115MOL   H21641484   5.928   2.668   4.659 -0.1405  0.5149 -1.5607
  115MOL   H21741485   6.090   2.679   4.713  1.4611  0.6390 -0.1671
  115MOL   C21841486   5.946   2.721   4.919 -0.4589 -0.0767  0.1289
  115MOL   O21941487   5.987   2.603   4.929  1.2077  0.1406 -0.0812
  115MOL   C22041488   5.885   2.795   5.037  1.1049 -0.9592  0.4433
  115MOL   C22141489   5.731   2.776   5.042 -0.0302  0.0357 -0.2246
  115MOL   C22241490   5.687   2.642   5.097 -0.4188 -0.0014  0.1924
  115MOL   C22341491   5.545   2.602   5.070 -0.6044  0.5246  0.0674
  115MOL   C22441492   5.526   2.455   5.104  0.4321  0.2610 -0.5809
  115MOL   O22541493   5.384   2.413   5.096  0.5339 -0.0107 -0.4233
  115MOL   H22641494   5.923   2.896   5.017  2.7509 -2.2417 -3.5303
  115MOL   H22741495   5.929   2.743   5.122  1.9369  0.4787  0.9208
  115MOL   H22841496   5.687   2.785   4.943  1.3915  1.3078 -0.7795
  115MOL   H22941497   5.676   2.847   5.103 -1.3802 -1.5610  0.4490
  115MOL   H23041498   5.706   2.636   5.204 -1.7771  1.1238  0.4999
  115MOL   H23141499   5.750   2.559   5.066 -1.5172 -1.5236  1.9297
  115MOL   H23241500   5.524   2.633   4.967 -2.7602  2.4495  1.0277
  115MOL   H23341501   5.475   2.661   5.129 -3.5743 -2.0399 -0.7314
  115MOL   H23441502   5.591   2.391   5.045  1.3070  0.4079  0.2015
  115MOL   H23541503   5.551   2.433   5.208  0.1645  0.9522 -0.3714
  115MOL   C23641504   5.317   2.406   4.984  0.1086  0.0999 -0.1841
  115MOL   O23741505   5.338   2.480   4.889 -0.2152  0.4060 -0.2251
  115MOL   C23841506   5.208   2.301   4.986  0.0067  0.6411  0.2761
  115MOL   C23941507   5.240   2.185   4.890 -0.5736  0.3426  0.7739
  115MOL   C24041508   5.124   2.087   4.877  0.1442 -1.0449  0.2844
  115MOL   C24141509   5.042   2.057   5.006 -0.2699 -0.0264  0.1098
  115MOL   C24241510   5.111   1.978   5.113  0.2115  0.5019 -0.5055
  115MOL   O24341511   5.035   1.969   5.228  0.4191 -0.3703  0.1775
  115MOL   H24441512   5.119   2.353   4.952  0.1387  0.6375 -0.0842
  115MOL   H24541513   5.193   2.272   5.090  1.4200 -0.6224  0.1531
  115MOL   H24641514   5.329   2.129   4.916 -1.4604 -0.2361  2.6506
  115MOL   H24741515   5.260   2.227   4.791  0.8854  1.9530  1.7056
  115MOL   H24841516   5.163   1.988   4.853 -0.9348 -1.3766 -0.1482
  115MOL   H24941517   5.055   2.114   4.797  0.0345  1.2214  1.1167
  115MOL   H25041518   4.944   2.013   4.988  0.1456  0.3606 -3.4282
  115MOL   H25141519   5.021   2.152   5.055 -0.8567 -0.9947  1.7583
  115MOL   H25241520   5.135   1.880   5.072  0.8215  1.2523 -1.9948
  115MOL   H25341521   5.209   2.020   5.134  1.0309 -1.8414  0.5854
  115MOL   C25441522   5.066   2.044   5.336  0.0213  0.0488  0.0371
  115MOL   O25541523   5.175   2.094   5.359  0.1940  0.2859  0.3818
  115MOL   C25641524   4.964   2.029   5.447 -0.3379 -0.5276  0.0802
  115MOL   C25741525   4.896   1.883   5.467  0.1046 -0.1432  0.1819
  115MOL   C25841526   4.991   1.799   5.545  0.0141 -0.3902 -0.5780
  115MOL   C25941527   5.003   1.826   5.699  0.0532  0.2774 -0.1705
  115MOL   C26041528   5.122   1.755   5.771  0.0630 -0.3504 -0.1092
  115MOL   O26141529   5.237   1.809   5.710 -0.1588 -0.0957  0.0742
  115MOL   H26241530   4.897   2.110   5.418  0.2901 -0.6708 -1.8491
  115MOL   H26341531   5.002   2.065   5.543 -1.9586 -0.4305  0.6957
  115MOL   H26441532   4.886   1.828   5.373 -0.3061  1.4202 -0.7079
  115MOL   H26541533   4.794   1.883   5.507 -0.6825  0.3589 -1.7710
  115MOL   H26641534   5.094   1.796   5.509  0.2007 -0.8022 -0.0239
  115MOL   H26741535   4.959   1.695   5.539 -0.9529 -0.0979 -0.4759
  115MOL   H26841536   4.910   1.792   5.743  0.6267 -1.1572 -0.0463
  115MOL   H26941537   5.001   1.932   5.723 -1.6666  0.1968  0.0687
  115MOL   H27041538   5.119   1.783   5.876  2.0302  2.8203 -0.8163
  115MOL   H27141539   5.113   1.646   5.767  1.5495 -0.5391  1.3113
  115MOL   C27241540   5.350   1.817   5.768  0.6539  0.1042 -0.2451
  115MOL   O27341541   5.381   1.768   5.875  0.3130  0.1843  0.3517
  115MOL   C27441542   5.457   1.878   5.677 -0.0936  0.2354  0.6206
  115MOL   C27541543   5.601   1.835   5.697 -0.8262  0.9356 -0.1335
  115MOL   C27641544   5.659   1.940   5.792 -0.5563  0.4020 -0.1954
  115MOL   C27741545   5.797   1.909   5.832  0.7333  0.8877  0.3244
  115MOL   C27841546   5.863   2.033   5.897 -0.5245 -0.2993  0.3304
  115MOL   O27941547   5.909   2.122   5.792  0.0535 -0.1886  0.4197
  115MOL   H28041548   5.447   1.987   5.674 -1.3906  0.1092  0.1769
  115MOL   H28141549   5.418   1.852   5.579 -0.0543 -0.9429  0.9165
  115MOL   H28241550   5.644   1.826   5.598 -1.8190  0.1831 -0.5037
  115MOL   H28341551   5.599   1.737   5.744  0.5226 -0.0723 -2.1409
  115MOL   H28441552   5.602   1.956   5.883  1.8963 -0.9006  1.6136
  115MOL   H28541553   5.664   2.038   5.744  1.4568  0.2859 -0.2643
  115MOL   H28641554   5.864   1.876   5.752 -0.4861 -0.3147 -0.2110
  115MOL   H28741555   5.788   1.835   5.911  0.9611  0.0254 -0.4544
  115MOL   H28841556   5.796   2.101   5.951 -0.5480  0.7880 -1.0414
  115MOL   H28941557   5.946   2.005   5.962  2.9387  2.2949 -2.7882
  115MOL   C29041558   6.034   2.174   5.797 -1.2777 -0.0251 -0.4374
  115MOL   O29141559   6.109   2.181   5.895  0.2907 -0.0495  0.9709
  115MOL   C29241560   6.071   2.247   5.672 -0.1907 -0.5976  0.7416
  115MOL   C29341561   6.202   2.321   5.675  0.2113  0.4942  0.2334
  115MOL   C29441562   6.328   2.234   5.685 -0.6796 -0.1427 -0.2756
  115MOL   C29541563   6.352   2.146   5.565 -0.3869 -0.4654 -1.0954
  115MOL   C29641564   6.457   2.033   5.587 -0.5938 -0.5003  0.4426
  115MOL   O29741565   6.461   1.940   5.477  0.1507  0.0477  0.6603
  115MOL   H29841566   5.995   2.325   5.665  0.2613 -0.1801  0.4613
  115MOL   H29941567   6.053   2.182   5.587  0.8459  2.0140 -1.5482
  115MOL   H30041568   6.189   2.400   5.749 -0.3130 -0.9757  1.7687
  115MOL   H30141569   6.208   2.372   5.579  0.3238  1.0064  0.5111
  115MOL   H30241570   6.325   2.169   5.773 -0.3244 -0.2147 -0.3171
  115MOL   H30341571   6.413   2.295   5.715  0.4517 -0.7900 -2.0524
  115MOL   H30441572   6.389   2.209   5.484 -1.3342 -0.1934 -1.3254
  115MOL   H30541573   6.262   2.097   5.529 -0.8464 -0.7812  0.4439
  115MOL   H30641574   6.550   2.088   5.607  1.3293 -2.9981 -1.3299
  115MOL   H30741575   6.430   1.962   5.666 -0.3064  0.0873  1.0826
  115MOL   C30841576   6.570   1.860   5.471 -0.0152 -0.6259 -0.2710
  115MOL   O30941577   6.662   1.860   5.552  0.0906 -0.3154 -0.4281
  115MOL   C31041578   6.570   1.778   5.342  0.1791  0.0281  0.8051
  115MOL   C31141579   6.668   1.839   5.231  0.5257  0.1991  0.2156
  115MOL   C31241580   6.818   1.839   5.266 -0.1440 -0.0475  0.0228
  115MOL   C31341581   6.896   1.885   5.142  0.0013 -0.5389  0.2737
  115MOL   C31441582   7.041   1.865   5.169 -0.1023 -0.0233 -0.0961
  115MOL   O31541583   7.126   1.887   5.051  0.2421  0.0887 -0.1712
  115MOL   H31641584   6.470   1.780   5.297  0.2324  1.4956  0.7112
  115MOL   H31741585   6.579   1.670   5.355  0.8464  0.0605  0.6410
  115MOL   H31841586   6.641   1.941   5.202  2.0598  0.3264 -0.7895
  115MOL   H31941587   6.661   1.774   5.144  0.6848 -0.1714  0.4805
  115MOL   H32041588   6.840   1.745   5.316 -2.8776 -0.3219  0.7682
  115MOL   H32141589   6.839   1.908   5.348 -0.4486  1.8739 -1.5040
  115MOL   H32241590   6.878   1.990   5.121 -0.6078 -0.2582  2.1268
  115MOL   H32341591   6.863   1.836   5.051 -0.7896  0.7577 -0.1515
  115MOL   H32441592   7.077   1.924   5.253  0.0152 -2.0193  1.2853
  115MOL   H32541593   7.052   1.762   5.203  0.3460 -0.1854 -0.7327
  115MOL   C32641594   7.188   2.002   5.035  0.3372  0.7191  0.2907
  115MOL   O32741595   7.196   2.090   5.117 -0.2585 -0.0101  0.1260
  115MOL   C32841596   7.239   2.012   4.894  0.5276  0.1464 -0.0206
  115MOL   C32941597   7.319   2.139   4.859 -0.6666  0.5959  0.1151
  115MOL   C33041598   7.457   2.158   4.930 -0.6150  0.5016  0.2107
  115MOL   C33141599   7.541   2.268   4.866  0.2082  0.3369 -0.8232
  115MOL   C33241600   7.673   2.299   4.931 -0.5704 -0.3072  0.5775
  115MOL   O33341601   7.661   2.344   5.066 -0.2591  0.6619  0.1010
  115MOL   H33441602   7.154   2.010   4.826  0.2060  1.4899  0.3357
  115MOL   H33541603   7.287   1.917   4.869  0.5238  1.1085 -4.0554
  115MOL   H33641604   7.247   2.216   4.888 -1.7779  0.4539 -2.1308
  115MOL   H33741605   7.328   2.146   4.751 -0.6411 -0.8851  0.0105
  115MOL   H33841606   7.508   2.062   4.929 -1.4587  0.0181  1.8888
  115MOL   H33941607   7.439   2.180   5.035 -0.0825  1.2756  0.1424
  115MOL   H34041608   7.475   2.354   4.857 -2.6527 -1.4010  2.3362
  115MOL   H34141609   7.555   2.240   4.762  0.7185 -0.4471 -0.5492
  115MOL   H34241610   7.731   2.209   4.950  1.4202  0.7869 -0.1779
  115MOL   H34341611   7.738   2.371   4.881 -0.2793  0.0547  1.4630
  115MOL   C34441612   7.773   2.367   5.136  0.5130 -0.5328 -0.6579
  115MOL   O34541613   0.046   2.355   5.102 -0.0680 -0.3156  0.0418
  115MOL   C34641614   7.746   2.418   5.281 -0.1405 -0.4918  0.6312
  115MOL   C34741615   7.723   2.301   5.375 -0.3682  0.0637 -0.9960
  115MOL   C34841616   0.001   2.243   5.432 -0.5460  0.4698 -0.0043
  115MOL   C34941617   0.074   2.319   5.542  0.3819  0.2819  0.1802
  115MOL   C35041618   0.194   2.238   5.591  0.1549  0.2152 -0.1828
  115MOL   O35141619   0.292   2.249   5.486 -0.0277  0.1575 -0.3428
  115MOL   H35241620   7.665   2.491   5.288 -0.3760 -0.7681  0.7877
  115MOL   H35341621   7.837   2.472   5.308 -0.5041  0.5906 -0.2658
  115MOL   H35441622   7.663   2.222   5.331  1.3671 -0.6986 -2.0462
  115MOL   H35541623   7.662   2.325   5.462 -0.7692 -1.3676 -0.8823
  115MOL   H35641624   0.068   2.218   5.349 -1.9453 -1.6225 -0.5443
  115MOL   H35741625   7.811   2.148   5.472 -3.0523  1.5836  0.5903
  115MOL   H35841626   0.010   2.347   5.625  0.1438  0.0910  0.0629
  115MOL   H35941627   0.117   2.411   5.504  0.1246 -1.1942 -3.9869
  115MOL   H36041628   0.237   2.291   5.676 -0.6313  1.5845 -0.6255
  115MOL   H36141629   0.175   2.133   5.615 -0.2621  0.0599 -1.2067
  115MOL   H36241630   0.242   2.227   5.410  0.7430  0.4699 -0.9502
  116MOL     C141631   6.878   6.304   2.374  0.4064  0.4268  0.2002
  116MOL     O241632   6.764   6.336   2.325 -0.4378 -0.1117  0.4383
  116MOL     C341633   6.933   6.392   2.485 -0.1640  0.6278 -0.4206
  116MOL     C441634   6.931   6.539   2.445  0.5911  0.2692  0.8462
  116MOL     C541635   6.992   6.635   2.550 -0.2394 -0.6428 -0.8710
  116MOL     C641636   6.969   6.779   2.521  0.7567 -0.4200  1.0399
  116MOL     C741637   7.023   6.869   2.642  0.2959  0.3626  0.7898
  116MOL     O841638   7.169   6.873   2.644 -0.3527  0.3670 -0.1183
  116MOL     H941639   7.031   6.366   2.527 -0.0363  3.2294  0.9985
  116MOL    H1041640   6.870   6.372   2.572  1.3796  0.2493  0.6424
  116MOL    H1141641   6.826   6.566   2.431  0.7518 -0.6541 -2.5710
  116MOL    H1241642   6.984   6.550   2.350  0.6800 -2.5614  0.5114
  116MOL    H1341643   7.100   6.617   2.552 -0.4683 -1.9007  2.3657
  116MOL    H1441644   6.966   6.615   2.654  0.6417 -0.6518 -0.6420
  116MOL    H1541645   6.863   6.797   2.500  0.7868 -2.3398 -0.9735
  116MOL    H1641646   7.024   6.807   2.431 -2.6450  0.9341 -0.7309
  116MOL    H1741647   6.978   6.968   2.632  1.2620  0.7124 -0.2331
  116MOL    H1841648   6.995   6.820   2.735 -1.5853 -2.0209 -0.9755
  116MOL    H1941649   6.950   6.228   2.346  0.7132  0.9680 -0.5099
  116MOL    C2041650   7.228   6.860   2.756 -0.4504  0.6589  0.3781
  116MOL    O2141651   7.180   6.850   2.868  0.3251 -0.5874 -0.1210
  116MOL    C2241652   7.379   6.847   2.728  0.5970  0.3924 -0.2990
  116MOL    C2341653   7.468   6.812   2.844  0.0623 -0.2129  0.0305
  116MOL    C2441654   7.488   6.928   2.952 -0.2730  0.2433  0.4180
  116MOL    C2541655   7.596   6.885   3.052  0.2679 -0.5579  0.2828
  116MOL    C2641656   7.627   6.992   3.160  0.1902  0.7975  0.6666
  116MOL    O2741657   7.754   7.047   3.144 -0.0034  0.2503  0.1339
  116MOL    H2841658   7.420   6.936   2.681 -1.1343  1.0951 -0.5027
  116MOL    H2941659   7.386   6.769   2.652  0.4705  3.6360 -3.7368
  116MOL    H3041660   7.564   6.771   2.812 -0.6080 -2.8181  1.2205
  116MOL    H3141661   7.413   6.730   2.890 -0.7809 -0.1552 -0.8635
  116MOL    H3241662   7.400   6.945   3.013  0.0617 -3.1656  2.0221
  116MOL    H3341663   7.520   7.022   2.909 -0.4216 -0.4622 -1.2806
  116MOL    H3441664   7.689   6.857   3.004 -0.3594  0.1779 -1.4035
  116MOL    H3541665   7.548   6.803   3.105 -3.9357  1.0254 -0.7947
  116MOL    H3641666   7.544   7.063   3.168 -0.4372  0.8470 -4.3808
  116MOL    H3741667   7.617   6.936   3.252 -1.2573  2.1925  1.3800
  116MOL    C3841668   0.005   7.030   3.240  0.3509 -0.3072  0.3288
  116MOL    O3941669   0.007   6.943   3.320  0.3463  0.2502  0.4240
  116MOL    C4041670   0.115   7.132   3.226 -0.0736 -0.3233  1.6475
  116MOL    C4141671   0.247   7.077   3.266 -0.4790  0.2807 -0.5411
  116MOL    C4241672   0.321   7.017   3.143 -0.0057 -1.0046  0.2413
  116MOL    C4341673   0.435   6.917   3.179  0.2840 -0.6222 -1.0582
  116MOL    C4441674   0.511   6.866   3.062  0.7313  0.6463  0.0133
  116MOL    O4541675   0.635   6.820   3.110  0.1826  0.2306  0.1579
  116MOL    H4641676   0.096   7.223   3.284  2.6046  1.5695 -0.3109
  116MOL    H4741677   0.117   7.175   3.126  0.8838 -0.8290  1.4444
  116MOL    H4841678   0.233   6.990   3.330 -0.1827  0.8043  0.2456
  116MOL    H4941679   0.316   7.136   3.327 -1.0347  0.4298 -0.0454
  116MOL    H5041680   0.351   7.115   3.104 -1.1133 -1.1332 -1.0011
  116MOL    H5141681   0.257   6.966   3.071  0.3805 -2.3899  0.8573
  116MOL    H5241682   0.405   6.836   3.246  0.1479  2.1422  2.3997
  116MOL    H5341683   0.507   6.971   3.241 -1.0986  0.5161 -0.4020
  116MOL    H5441684   0.464   6.778   3.017  2.0937  0.4437 -1.0386
  116MOL    H5541685   0.517   6.948   2.991  0.8975  0.7977  0.2000
  116MOL    C5641686   0.737   6.809   3.020 -0.2602 -0.0639 -0.8110
  116MOL    O5741687   0.726   6.839   2.898 -0.4195 -0.3803 -0.0063
  116MOL    C5841688   0.872   6.762   3.082 -0.7612 -0.5869 -0.2781
  116MOL    C5941689   0.985   6.713   2.983 -0.6180 -0.1335 -0.7701
  116MOL    C6041690   0.951   6.580   2.915  0.4875  0.6323  0.3398
  116MOL    C6141691   1.057   6.527   2.830 -0.9326  0.0878 -0.1254
  116MOL    C6241692   1.021   6.389   2.773  0.1787  0.0234 -0.0351
  116MOL    O6341693   0.906   6.393   2.684  0.0447 -0.1985 -0.1808
  116MOL    H6441694   0.839   6.685   3.152 -0.7173 -0.4728 -0.1321
  116MOL    H6541695   0.897   6.848   3.144 -1.1575 -0.8750  0.2956
  116MOL    H6641696   1.083   6.705   3.031 -0.5746 -0.6936 -0.9566
  116MOL    H6741697   1.008   6.782   2.901  1.4042 -2.6376 -2.4071
  116MOL    H6841698   0.862   6.588   2.854 -0.1166 -1.1545  0.9694
  116MOL    H6941699   0.922   6.518   3.000 -1.5998  0.4790 -0.4612
  116MOL    H7041700   1.153   6.524   2.881 -0.5271  1.9778 -0.7287
  116MOL    H7141701   1.084   6.582   2.739 -0.7184 -1.8369 -1.2457
  116MOL    H7241702   1.105   6.359   2.711 -1.4729  1.3851 -3.0871
  116MOL    H7341703   1.013   6.320   2.856  0.2380  0.5348  0.3993
  116MOL    C7441704   0.790   6.347   2.735 -0.6808  0.0710 -0.3412
  116MOL    O7541705   0.770   6.313   2.854  0.2512 -0.1962  0.5707
  116MOL    C7641706   0.680   6.357   2.640  0.0562  0.1094 -0.0657
  116MOL    C7741707   0.669   6.487   2.572  0.6077  0.4463  0.1326
  116MOL    C7841708   0.720   6.481   2.427  0.0453  0.5106  0.2006
  116MOL    C7941709   0.672   6.606   2.346  0.2493 -0.1513  0.0432
  116MOL    C8041710   0.712   6.609   2.199 -0.1895  0.5984 -1.0899
  116MOL    O8141711   0.640   6.505   2.133  0.7604 -0.6651  0.0754
  116MOL    H8241712   0.597   6.342   2.709 -0.9227  0.3748 -1.1651
  116MOL    H8341713   0.689   6.272   2.573 -0.1137 -0.7599  1.0031
  116MOL    H8441714   0.722   6.568   2.623  3.7363 -0.4963 -1.5226
  116MOL    H8541715   0.563   6.511   2.567 -0.1057 -2.5385  0.2354
  116MOL    H8641716   0.680   6.391   2.379 -0.6146  1.1172 -0.3947
  116MOL    H8741717   0.829   6.480   2.418  0.1128  1.3040  0.8970
  116MOL    H8841718   0.715   6.697   2.388  0.3091  0.0934 -0.5494
  116MOL    H8941719   0.565   6.603   2.364  0.0688 -1.4143 -1.1561
  116MOL    H9041720   0.681   6.708   2.166 -0.9253  0.6846 -0.1424
  116MOL    H9141721   0.820   6.590   2.193 -0.3792 -1.1936  0.6940
  116MOL    C9241722   0.646   6.503   1.995 -0.0227 -0.0660  0.9960
  116MOL    O9341723   0.721   6.570   1.930 -0.0067  0.0211  0.0790
  116MOL    C9441724   0.554   6.394   1.927  0.2299 -0.5369  0.2190
  116MOL    C9541725   0.425   6.443   1.868  0.4096  0.4271 -0.3718
  116MOL    C9641726   0.322   6.489   1.972 -0.2386  0.1904 -0.0821
  116MOL    C9741727   0.190   6.545   1.900 -0.5857  0.1687  0.2446
  116MOL    C9841728   0.066   6.547   1.985  0.1229 -0.1334  0.2021
  116MOL    O9941729   0.025   6.417   2.034  0.1453 -0.0312  0.0258
  116MOL   H10041730   0.556   6.300   1.982 -0.9975 -1.5934 -1.4710
  116MOL   H10141731   0.623   6.361   1.849 -0.7103 -1.6813 -0.1553
  116MOL   H10241732   0.378   6.355   1.824 -0.0008  0.4023  0.1023
  116MOL   H10341733   0.445   6.517   1.790  0.6544  0.9130  0.1422
  116MOL   H10441734   0.358   6.578   2.023  1.4193  0.4809 -1.7155
  116MOL   H10541735   0.284   6.420   2.048 -3.5597  2.0110 -0.0116
  116MOL   H10641736   0.162   6.477   1.819  2.8146  0.0957 -0.9681
  116MOL   H10741737   0.209   6.641   1.853  0.4259 -1.0761 -1.9789
  116MOL   H10841738   0.086   6.608   2.073  1.5108  1.6385 -1.2895
  116MOL   H10941739   7.821   6.588   1.937  0.9778  3.3494  1.4029
  116MOL   C11041740   7.794   6.337   1.962 -0.6423 -0.2746  0.3912
  116MOL   O11141741   7.745   6.362   1.851  0.4071  0.1761  0.4684
  116MOL   C11241742   7.765   6.205   2.030  0.5228  0.2941  0.3481
  116MOL   C11341743   0.031   6.104   1.978 -0.1543 -0.2008  0.0319
  116MOL   C11441744   0.177   6.115   2.038 -0.1316  0.2086 -0.4757
  116MOL   C11541745   0.174   6.075   2.185  0.4651 -0.2520 -0.0851
  116MOL   C11641746   0.283   6.148   2.274 -0.6752 -0.8165  0.0216
  116MOL   O11741747   0.233   6.275   2.301  0.2525  0.1786 -0.0357
  116MOL   H11841748   7.664   6.180   1.999  0.1352  3.4872 -1.2445
  116MOL   H11941749   7.767   6.231   2.136 -1.0802 -0.6351  0.6105
  116MOL   H12041750   0.051   6.115   1.871  2.2923  0.8078  0.5583
  116MOL   H12141751   7.830   6.006   1.995 -1.8616  0.0535 -2.7564
  116MOL   H12241752   0.212   6.218   2.033 -1.1382  0.6924  1.9762
  116MOL   H12341753   0.243   6.047   1.984 -1.6128 -1.4067 -0.2906
  116MOL   H12441754   0.186   5.967   2.199  0.8202 -0.1744  0.2193
  116MOL   H12541755   0.071   6.084   2.221 -0.0238 -0.1618 -1.4980
  116MOL   H12641756   0.300   6.089   2.365  0.3716 -3.1371 -1.6357
  116MOL   H12741757   0.377   6.163   2.222 -0.3147 -0.8906  0.6416
  116MOL   C12841758   0.302   6.348   2.391  0.6608  0.0387  0.3372
  116MOL   O12941759   0.395   6.308   2.467 -0.7561  0.3609  0.1568
  116MOL   C13041760   0.255   6.490   2.410 -0.8138  0.4498 -0.4029
  116MOL   C13141761   0.101   6.503   2.439 -0.1571 -0.8095  0.3266
  116MOL   C13241762   0.069   6.435   2.575  0.1575 -0.0445  0.4458
  116MOL   C13341763   7.779   6.474   2.633 -0.5664  0.6912  0.0838
  116MOL   C13441764   7.756   6.387   2.752  0.2582 -0.1658 -0.1334
  116MOL   O13541765   7.611   6.373   2.770 -0.2475 -0.2452  0.1962
  116MOL   H13641766   0.285   6.543   2.319 -0.1891 -0.4710 -0.7367
  116MOL   H13741767   0.309   6.542   2.489 -0.3297 -0.7742  0.0708
  116MOL   H13841768   0.046   6.466   2.353  0.1211  0.9143 -0.6252
  116MOL   H13941769   0.083   6.610   2.449  2.8652 -0.1659 -0.5855
  116MOL   H14041770   0.149   6.466   2.642  0.8094  0.5706 -0.5933
  116MOL   H14141771   0.081   6.329   2.555 -0.8485 -0.2048  0.6427
  116MOL   H14241772   7.706   6.454   2.555 -0.1789  0.0479 -0.1124
  116MOL   H14341773   7.781   6.580   2.660 -0.7603  0.1433  2.3713
  116MOL   H14441774   7.793   6.287   2.731 -0.9099 -0.1407 -2.4094
  116MOL   H14541775   7.822   6.417   2.834 -1.4806  1.5342  0.6860
  116MOL   C14641776   7.561   6.361   2.893 -0.0617 -0.1114 -0.0965
  116MOL   O14741777   7.624   6.364   2.998  0.1170  0.0498  0.0576
  116MOL   C14841778   7.413   6.344   2.890  1.0433  0.8063  0.1059
  116MOL   C14941779   7.352   6.268   3.012  0.0036  0.2042 -0.1578
  116MOL   C15041780   7.400   6.123   3.015 -0.3564 -0.5568 -0.2722
  116MOL   C15141781   7.334   6.049   3.129 -0.0277  0.3068 -0.4321
  116MOL   C15241782   7.367   5.891   3.112 -0.7729 -0.2769  0.5774
  116MOL   O15341783   7.305   5.843   2.995  0.3085 -0.1776  0.2001
  116MOL   H15441784   7.388   6.305   2.792 -0.6744 -1.0217  1.2162
  116MOL   H15541785   7.373   6.445   2.894  2.1621  1.2375  0.8201
  116MOL   H15641786   7.244   6.263   2.995  0.6627 -2.6643 -4.0474
  116MOL   H15741787   7.365   6.318   3.108  0.6483 -0.8232  0.3020
  116MOL   H15841788   7.507   6.113   3.028 -0.1982  1.9743  0.4877
  116MOL   H15941789   7.392   6.071   2.920  1.7241 -1.5095  0.0600
  116MOL   H16041790   7.229   6.068   3.110  0.6651  2.8164 -2.0214
  116MOL   H16141791   7.351   6.080   3.232  0.6525  2.0959 -1.0618
  116MOL   H16241792   7.475   5.881   3.100 -0.4124  1.5611  2.0454
  116MOL   H16341793   7.345   5.832   3.201 -2.5554  0.0001  0.3345
  116MOL   C16441794   7.356   5.739   2.927 -0.5655  0.4417  0.6564
  116MOL   O16541795   7.470   5.684   2.947 -0.2417 -0.3388  0.1871
  116MOL   C16641796   7.262   5.695   2.814 -0.9612 -0.9099 -0.3104
  116MOL   C16741797   7.116   5.660   2.844  0.2298  0.3221  0.3242
  116MOL   C16841798   7.042   5.609   2.713 -0.1511 -0.5104  0.1574
  116MOL   C16941799   6.913   5.543   2.750 -0.1102 -0.6176 -0.1461
  116MOL   C17041800   6.853   5.469   2.626  0.0189  0.4222  0.1243
  116MOL   O17141801   6.718   5.431   2.648 -0.5049 -0.2012 -0.0199
  116MOL   H17241802   7.308   5.616   2.755 -0.5039 -0.9201  0.0577
  116MOL   H17341803   7.271   5.773   2.738  1.7492 -2.6829 -1.8918
  116MOL   H17441804   7.059   5.741   2.890  1.3271  0.4911  1.4060
  116MOL   H17541805   7.113   5.580   2.919 -1.6253 -0.3806 -0.4728
  116MOL   H17641806   7.090   5.529   2.657 -0.0011 -0.5705  0.3740
  116MOL   H17741807   7.014   5.692   2.648  1.9582  1.7111  1.9301
  116MOL   H17841808   6.845   5.624   2.774  0.9619 -0.1783  1.4583
  116MOL   H17941809   6.934   5.479   2.836 -0.5847 -0.0127  0.4192
  116MOL   H18041810   6.862   5.531   2.537  0.6662 -0.3312 -0.3405
  116MOL   H18141811   6.918   5.383   2.610  1.2833  1.2322  0.8077
  116MOL   C18241812   6.668   5.349   2.562 -0.3383  0.0117  0.1298
  116MOL   O18341813   6.711   5.307   2.454  0.6129 -0.0958 -0.3091
  116MOL   C18441814   6.535   5.288   2.614  0.0922  0.6033 -1.2696
  116MOL   C18541815   6.419   5.324   2.535  0.4584 -0.0846  0.1388
  116MOL   C18641816   6.394   5.253   2.399 -0.7446 -0.2938 -1.0663
  116MOL   C18741817   6.255   5.281   2.335 -0.5439 -0.0459  0.5289
  116MOL   C18841818   6.251   5.214   2.196 -0.1956 -0.3576  0.6257
  116MOL   O18941819   6.117   5.201   2.162  0.4915  0.1878 -0.1455
  116MOL   H19041820   6.515   5.322   2.716  0.6008  1.1158 -1.3373
  116MOL   H19141821   6.531   5.179   2.612 -2.3403  0.6719 -2.3817
  116MOL   H19241822   6.409   5.433   2.533  0.2724 -0.0305  2.3746
  116MOL   H19341823   6.330   5.294   2.590  0.9402 -0.4660  0.7157
  116MOL   H19441824   6.400   5.145   2.390  2.9867 -0.1329 -1.2743
  116MOL   H19541825   6.473   5.293   2.336 -0.0627 -0.6996 -0.4800
  116MOL   H19641826   6.241   5.388   2.321 -0.8447 -0.2147 -0.4738
  116MOL   H19741827   6.171   5.246   2.395  0.0433 -1.2931  0.6535
  116MOL   H19841828   6.301   5.280   2.125 -2.4160  1.4446  0.6381
  116MOL   H19941829   6.295   5.115   2.188  0.6416 -0.0166  1.0284
  116MOL   C20041830   6.092   5.143   2.047 -0.2921  0.0417  0.4375
  116MOL   O20141831   6.175   5.118   1.957  0.1884 -0.2885 -0.1521
  116MOL   C20241832   5.938   5.122   2.011  0.2241 -0.2204 -0.3238
  116MOL   C20341833   5.896   5.023   1.897 -0.0750 -0.3202 -0.7319
  116MOL   C20441834   5.888   4.875   1.949  0.9145 -0.3283 -0.0234
  116MOL   C20541835   5.880   4.766   1.842 -0.0358  0.5312 -0.3802
  116MOL   C20641836   5.876   4.633   1.911  0.0250  1.0250  0.1768
  116MOL   O20741837   5.862   4.533   1.813  0.3387  0.4481  0.5226
  116MOL   H20841838   5.914   5.221   1.973 -0.5118 -1.2410 -2.5666
  116MOL   H20941839   5.884   5.109   2.105  0.6823  3.0903  0.4580
  116MOL   H21041840   5.957   5.024   1.807  2.0808  0.9826  0.6859
  116MOL   H21141841   5.795   5.047   1.864  0.1388 -0.2352 -1.3369
  116MOL   H21241842   5.819   4.861   2.033 -0.3907  3.9694 -0.2313
  116MOL   H21341843   5.984   4.863   1.998  1.2406  0.9685 -0.3340
  116MOL   H21441844   5.975   4.777   1.790 -0.2646 -0.0140 -0.9146
  116MOL   H21541845   5.789   4.786   1.787 -0.1847  0.2567 -0.2388
  116MOL   H21641846   5.965   4.616   1.971 -0.4174 -1.0394  0.2861
  116MOL   H21741847   5.795   4.619   1.983 -1.3242  1.9586 -1.1198
  116MOL   C21841848   5.958   4.446   1.795 -0.3304  0.0259  0.5772
  116MOL   O21941849   6.076   4.441   1.837 -0.3823  0.4307 -0.0550
  116MOL   C22041850   5.906   4.332   1.713  1.0093 -0.1020  0.5400
  116MOL   C22141851   5.989   4.279   1.597 -1.1088  0.4500 -0.1759
  116MOL   C22241852   6.016   4.383   1.484  0.0273 -0.5743  0.3721
  116MOL   C22341853   6.002   4.316   1.351 -0.7910 -0.1764 -0.4157
  116MOL   C22441854   6.021   4.407   1.224 -0.0116  0.4768  0.2007
  116MOL   O22541855   6.058   4.333   1.113  0.1384  0.2669 -0.4653
  116MOL   H22641856   5.799   4.338   1.694  1.0318 -0.8262  0.1491
  116MOL   H22741857   5.911   4.250   1.785  2.1219  1.1786  1.9448
  116MOL   H22841858   5.942   4.184   1.573  0.6666 -0.0380 -1.8502
  116MOL   H22941859   6.084   4.251   1.643 -1.0864  2.6215  1.2160
  116MOL   H23041860   6.120   4.414   1.483  0.0017 -0.4799 -1.0422
  116MOL   H23141861   5.945   4.466   1.486  0.8931  0.1377  2.0003
  116MOL   H23241862   5.906   4.266   1.353 -1.0469  0.2869  3.3129
  116MOL   H23341863   6.077   4.237   1.346 -0.4952  0.0545  0.2972
  116MOL   H23441864   5.930   4.462   1.200 -0.5212 -0.9487 -1.2746
  116MOL   H23541865   6.096   4.484   1.239  0.3780  0.4682 -1.4993
  116MOL   C23641866   6.032   4.370   0.991 -0.0979  0.0127  0.3849
  116MOL   O23741867   5.973   4.475   0.959 -0.2632 -0.4058  0.5629
  116MOL   C23841868   6.092   4.282   0.874  0.4788 -0.0344  0.1740
  116MOL   C23941869   6.018   4.281   0.740  0.1344 -0.4265  0.7234
  116MOL   C24041870   5.874   4.220   0.756 -0.7293  0.1396  0.2358
  116MOL   C24141871   5.811   4.211   0.615 -0.8920 -0.5703 -0.5602
  116MOL   C24241872   5.874   4.103   0.534  0.1029 -0.1251 -0.2609
  116MOL   O24341873   5.845   3.974   0.573  0.4029  0.0645  0.2411
  116MOL   H24441874   6.106   4.181   0.911 -4.7593 -0.8257  0.3575
  116MOL   H24541875   6.191   4.324   0.857 -0.0668  1.4970  0.6060
  116MOL   H24641876   6.073   4.222   0.666 -0.7027  1.7616 -1.7227
  116MOL   H24741877   6.008   4.383   0.704  0.7243 -1.5651 -2.8779
  116MOL   H24841878   5.826   4.289   0.825 -0.0763  0.6610  0.1843
  116MOL   H24941879   5.869   4.124   0.806 -1.1474  0.0648  0.0487
  116MOL   H25041880   5.824   4.307   0.566 -0.7090 -0.4959 -0.3660
  116MOL   H25141881   5.703   4.200   0.631 -0.5448  0.0377  2.4680
  116MOL   H25241882   5.833   4.104   0.433  1.7433  1.4561 -0.9409
  116MOL   H25341883   5.983   4.108   0.529  0.1168  0.3224  0.4177
  116MOL   C25441884   5.933   3.898   0.645 -0.1038 -0.1792 -0.0196
  116MOL   O25541885   6.040   3.925   0.697 -0.5018  0.3480 -0.2315
  116MOL   C25641886   5.866   3.767   0.668  0.4200  0.0660  0.0325
  116MOL   C25741887   5.901   3.663   0.559 -0.9212  0.9484 -0.4466
  116MOL   C25841888   6.053   3.621   0.548 -0.0941 -0.3916 -0.3675
  116MOL   C25941889   6.109   3.550   0.678  0.6086  0.4456 -0.2894
  116MOL   C26041890   6.258   3.535   0.662  0.1398 -0.6510 -0.6559
  116MOL   O26141891   6.298   3.457   0.555 -0.2068  0.7650 -0.3814
  116MOL   H26241892   5.759   3.786   0.663  0.7344  1.6305 -1.3200
  116MOL   H26341893   5.898   3.734   0.767 -0.2406 -0.0680  0.2013
  116MOL   H26441894   5.858   3.684   0.461 -1.8494 -1.6960 -0.6483
  116MOL   H26541895   5.851   3.570   0.583  0.0529  1.1276  2.3961
  116MOL   H26641896   6.122   3.704   0.533  0.0611 -0.5994 -0.8345
  116MOL   H26741897   6.067   3.555   0.462  0.4683 -0.6608 -0.0725
  116MOL   H26841898   6.056   3.460   0.710  3.3156 -1.1248 -0.1157
  116MOL   H26941899   6.100   3.616   0.764  0.4569  0.5708 -0.4012
  116MOL   H27041900   6.306   3.629   0.635  0.9180 -0.7407  0.3993
  116MOL   H27141901   6.300   3.504   0.758  0.6984 -0.6512 -0.9011
  116MOL   C27241902   6.338   3.334   0.565  0.3511  0.3942  0.0109
  116MOL   O27341903   6.339   3.271   0.669 -0.5252  0.4684 -0.1577
  116MOL   C27441904   6.400   3.277   0.440 -0.2601 -0.1080 -0.1351
  116MOL   C27541905   6.369   3.127   0.409 -0.2601  0.6584 -0.0706
  116MOL   C27641906   6.461   3.079   0.292  0.5394  0.1803 -0.2786
  116MOL   C27741907   6.437   2.938   0.254 -0.0962  0.5701 -0.1447
  116MOL   C27841908   6.536   2.901   0.146 -0.0318  0.5214  0.1480
  116MOL   O27941909   6.550   2.758   0.156 -0.0629  0.4235  0.1404
  116MOL   H28041910   6.506   3.295   0.455 -0.4250 -0.1127  1.0509
  116MOL   H28141911   6.362   3.335   0.355 -0.2363  1.5806  0.9764
  116MOL   H28241912   6.262   3.117   0.390 -0.3147  0.0985  0.5306
  116MOL   H28341913   6.393   3.058   0.490  2.8698 -1.2789 -2.5585
  116MOL   H28441914   6.565   3.104   0.315  0.0023  0.9644  1.4502
  116MOL   H28541915   6.429   3.137   0.206 -2.0386 -1.7073 -0.6411
  116MOL   H28641916   6.336   2.917   0.218 -1.0251  1.6659  1.7581
  116MOL   H28741917   6.456   2.881   0.345 -0.5255 -1.3410 -1.2214
  116MOL   H28841918   6.494   2.934   0.051 -0.1243  0.3641  0.1339
  116MOL   H28941919   6.637   2.940   0.157 -0.3011  1.8901 -2.0076
  116MOL   C29041920   6.572   2.682   0.053 -0.6766  0.3777 -0.9655
  116MOL   O29141921   6.583   2.733   7.786  0.4576  0.6912  0.0612
  116MOL   C29241922   6.594   2.532   0.085  0.4031  0.3513  0.3145
  116MOL   C29341923   6.499   2.444   0.001  0.0727  0.0153 -1.2100
  116MOL   C29441924   6.348   2.464   0.032  0.0354  0.2438 -0.5821
  116MOL   C29541925   6.251   2.372   7.806  0.2900 -0.4330  0.7173
  116MOL   C29641926   6.107   2.368   0.006 -0.0866  0.2233 -0.2708
  116MOL   O29741927   6.035   2.303   7.749  0.6662  0.2020  0.0160
  116MOL   H29841928   6.582   2.522   0.193  1.1420  0.6742  0.4303
  116MOL   H29941929   6.698   2.505   0.062  0.2310 -2.2749  2.4196
  116MOL   H30041930   6.532   2.340   0.010  1.7182  0.5089 -1.3125
  116MOL   H30141931   6.510   2.474   7.741 -0.8013  0.5361 -1.1557
  116MOL   H30241932   6.318   2.567   0.012  0.0911 -0.0289 -2.1375
  116MOL   H30341933   6.337   2.454   0.140 -1.9176  0.9882 -0.6966
  116MOL   H30441934   6.283   2.269   7.788  0.1417 -0.3533 -0.0160
  116MOL   H30541935   6.248   2.408   7.704 -1.2219 -0.3556  0.7756
  116MOL   H30641936   6.098   2.319   0.103 -0.0623  2.4767  0.8922
  116MOL   H30741937   6.063   2.467   0.018 -0.0001  0.0325  1.7238
  116MOL   C30841938   5.975   2.185   7.770  0.4621 -0.8726  0.1912
  116MOL   O30941939   5.969   2.122   0.029  0.2625 -0.3489 -0.0938
  116MOL   C31041940   5.908   2.136   7.638  0.5056 -0.2044  0.4073
  116MOL   C31141941   5.764   2.092   7.651  0.6794 -0.8686  0.2833
  116MOL   C31241942   5.732   1.961   7.720  0.7392 -0.3124 -0.1259
  116MOL   C31341943   5.589   1.915   7.687  0.1705  1.0622 -0.0644
  116MOL   C31441944   5.542   1.775   7.737  0.6520 -0.7976  0.0813
  116MOL   O31541945   5.611   1.675   7.666 -0.0114  0.0697 -0.0803
  116MOL   H31641946   5.966   2.057   7.591  0.4898 -0.6933  1.2074
  116MOL   H31741947   5.924   2.205   7.555  0.9921  0.5965  1.1571
  116MOL   H31841948   5.722   2.082   7.551 -0.4734  0.3864  0.6234
  116MOL   H31941949   5.705   2.175   7.689  0.5755 -1.0234  0.4628
  116MOL   H32041950   5.736   1.967   7.829  1.7366 -0.8121 -0.1339
  116MOL   H32141951   5.797   1.877   7.694  0.5257 -0.5920  0.2237
  116MOL   H32241952   5.590   1.917   7.578  0.2497  1.1527 -0.0609
  116MOL   H32341953   5.515   1.991   7.711  2.2221  2.1270  3.0971
  116MOL   H32441954   5.556   1.766   0.001 -1.8364 -0.5067  0.4500
  116MOL   H32541955   5.436   1.781   7.711  1.2164 -0.9386 -2.3259
  116MOL   C32641956   5.587   1.551   7.694  0.7204  0.2332 -0.3865
  116MOL   O32741957   5.527   1.510   7.791  0.2786 -0.4531 -0.2683
  116MOL   C32841958   5.651   1.455   7.593  0.2293  0.3592 -0.3413
  116MOL   C32941959   5.639   1.308   7.625 -0.3941  0.1288 -1.1156
  116MOL   C33041960   5.499   1.254   7.605 -0.4319  0.6525 -0.0219
  116MOL   C33141961   5.481   1.101   7.631  0.1059 -0.6521  0.9796
  116MOL   C33241962   5.340   1.050   7.615 -0.7949 -0.0448  0.3507
  116MOL   O33341963   5.260   1.101   7.720 -0.0464 -0.6034 -0.2494
  116MOL   H33441964   5.757   1.478   7.585  0.5378 -1.0734 -0.4825
  116MOL   H33541965   5.613   1.479   7.493  0.4844 -0.2270 -0.5775
  116MOL   H33641966   5.678   1.295   7.726  2.2920 -0.9177 -2.2288
  116MOL   H33741967   5.711   1.247   7.570  1.9443 -2.0144  3.9784
  116MOL   H33841968   5.467   1.270   7.502 -1.5359  0.4373  0.2783
  116MOL   H33941969   5.426   1.307   7.667 -2.1273  0.0672 -1.4841
  116MOL   H34041970   5.529   1.062   7.721  0.5695  2.1688  2.0263
  116MOL   H34141971   5.533   1.055   7.547 -0.3071  0.4548  0.0972
  116MOL   H34241972   5.318   1.091   7.517  2.3126  2.1721  0.4845
  116MOL   H34341973   5.340   0.941   7.606 -1.2929 -0.0143 -0.0346
  116MOL   C34441974   5.209   1.024   7.822  0.9998 -0.6201 -0.1098
  116MOL   O34541975   5.224   0.901   7.831  0.6239  0.7009  0.1722
  116MOL   C34641976   5.105   1.099   0.065  0.0174 -0.1058  0.3392
  116MOL   C34741977   4.976   1.129   7.844 -0.9011 -0.2746 -0.9109
  116MOL   C34841978   4.895   1.002   7.812  1.1209 -0.3630  0.4571
  116MOL   C34941979   4.752   1.012   7.761 -0.1229 -0.0672 -0.1115
  116MOL   C35041980   4.687   0.869   7.751  0.0843  0.2347  0.0748
  116MOL   O35141981   4.554   0.881   7.713  0.0392  0.4789 -0.3702
  116MOL   H35241982   5.147   1.194   0.098  2.3562 -1.4725  1.3871
  116MOL   H35341983   5.085   1.043   0.156 -0.8245  0.1513  0.3195
  116MOL   H35441984   5.001   1.200   7.765  1.3950  1.2436  1.0996
  116MOL   H35541985   4.919   1.189   0.070  0.4721 -0.5150  0.4465
  116MOL   H35641986   4.898   0.929   0.049  0.1219 -0.1256  0.7106
  116MOL   H35741987   4.942   0.950   7.729 -1.5132 -0.9296 -0.7525
  116MOL   H35841988   4.755   1.070   7.669  2.7830  0.9820  0.5829
  116MOL   H35941989   4.692   1.066   7.835 -0.0106  2.7986 -2.0311
  116MOL   H36041990   4.746   0.797   7.694  0.4151  1.0033 -0.5771
  116MOL   H36141991   4.684   0.813   7.844 -1.2116 -0.7825 -0.5838
  116MOL   H36241992   4.512   0.947   7.766  1.2273  1.0259 -0.0739
  117MOL     C141993   2.553   6.967   2.862  0.2709  0.3337  0.2901
  117MOL     O241994   2.574   7.021   2.970 -0.5217 -0.4807 -0.1799
  117MOL     C341995   2.603   6.823   2.842 -0.5993  0.6765  0.1801
  117MOL     C441996   2.745   6.801   2.900 -0.5596 -0.2981 -0.2811
  117MOL     C541997   2.739   6.676   2.985 -0.5059 -0.0306  0.0869
  117MOL     C641998   2.870   6.647   3.062  0.0935  0.0180 -0.4878
  117MOL     C741999   2.858   6.515   3.139 -0.2898  0.0433  0.1996
  117MOL     O842000   2.834   6.403   3.049  0.3172  0.4844  0.1170
  117MOL     H942001   2.609   6.805   2.735 -1.2888 -1.1072  0.4254
  117MOL    H1042002   2.535   6.751   2.886 -0.8966  0.1242 -1.1672
  117MOL    H1142003   2.782   6.881   2.963 -0.5848 -1.6093  1.4394
  117MOL    H1242004   2.819   6.803   2.820 -1.5676  0.0348 -1.2213
  117MOL    H1342005   2.707   6.599   2.915  0.9472 -1.2702  0.7597
  117MOL    H1442006   2.657   6.690   3.055  0.9685  1.2906  1.6066
  117MOL    H1542007   2.885   6.725   3.137 -0.4240 -1.2744  0.9831
  117MOL    H1642008   2.957   6.637   2.996 -0.9822 -1.5138 -1.7072
  117MOL    H1742009   2.948   6.498   3.198 -0.1366  2.4594  0.7422
  117MOL    H1842010   2.769   6.523   3.202  0.3841 -3.7321  1.7447
  117MOL    H1942011   2.506   7.013   2.775  0.6410 -1.4222 -0.8683
  117MOL    C2042012   2.851   6.283   3.091  0.7723  0.1127  0.6986
  117MOL    O2142013   2.873   6.256   3.206  0.1114  0.2226 -0.2820
  117MOL    C2242014   2.822   6.181   2.977 -0.0815  0.1909  0.1457
  117MOL    C2342015   2.839   6.221   2.834 -0.3211 -0.5028  0.0820
  117MOL    C2442016   2.978   6.200   2.775  0.6325 -0.1939 -0.0826
  117MOL    C2542017   3.006   6.238   2.623  0.3244 -0.5389  0.3250
  117MOL    C2642018   2.936   6.150   2.521  0.5888 -0.1662  0.3833
  117MOL    O2742019   2.795   6.155   2.516 -0.4222  0.2544 -0.1223
  117MOL    H2842020   2.717   6.155   2.995 -1.0926  3.8623 -0.0919
  117MOL    H2942021   2.872   6.087   3.001  2.3678  1.7105  1.0629
  117MOL    H3042022   2.807   6.324   2.821 -0.0407 -0.4538 -0.2427
  117MOL    H3142023   2.768   6.170   2.769 -1.1955  0.7172  0.0618
  117MOL    H3242024   3.012   6.099   2.799  0.3343  0.3257  2.7977
  117MOL    H3342025   3.052   6.253   2.835 -0.5401  0.5726  0.7127
  117MOL    H3442026   3.111   6.238   2.594  0.2689 -0.1210  0.1315
  117MOL    H3542027   2.971   6.339   2.601  0.7274 -0.1454  1.4170
  117MOL    H3642028   2.980   6.164   2.423 -0.9133  0.0389 -0.2756
  117MOL    H3742029   2.959   6.046   2.545  1.4885 -0.2197 -0.7327
  117MOL    C3842030   2.728   6.053   2.462 -0.5860  0.1804  0.5018
  117MOL    O3942031   2.786   5.967   2.401  0.1579 -0.3745 -0.6183
  117MOL    C4042032   2.570   6.069   2.470  0.0454 -0.1616 -0.1894
  117MOL    C4142033   2.532   6.102   2.612  0.0069  0.3489 -0.7565
  117MOL    C4242034   2.381   6.122   2.626  0.1216  0.1663 -0.8876
  117MOL    C4342035   2.304   5.983   2.624  0.0364 -0.8180 -0.0662
  117MOL    C4442036   2.150   6.001   2.635 -0.1074 -0.0398  0.0989
  117MOL    O4542037   2.087   5.885   2.586  0.1151 -0.3557  0.2718
  117MOL    H4642038   2.521   5.978   2.436 -1.4668  1.5003 -2.5652
  117MOL    H4742039   2.553   6.153   2.403  2.2110 -0.5192 -1.2308
  117MOL    H4842040   2.593   6.188   2.642  0.2454 -0.8453  2.4541
  117MOL    H4942041   2.560   6.020   2.678  2.1513  1.4387 -0.2597
  117MOL    H5042042   2.344   6.202   2.562  0.1497  0.1831 -0.8828
  117MOL    H5142043   2.363   6.151   2.729  0.7259 -1.2794 -0.3704
  117MOL    H5242044   2.341   5.920   2.706  0.5134 -0.8332 -0.2957
  117MOL    H5342045   2.327   5.935   2.529  0.2342  1.0110 -0.9458
  117MOL    H5442046   2.114   6.028   2.735  2.0108 -0.3556  0.9766
  117MOL    H5542047   2.127   6.085   2.571  1.8736  0.6824  0.2850
  117MOL    C5642048   2.047   5.785   2.670  0.6048 -0.3604 -0.3466
  117MOL    O5742049   2.055   5.791   2.793 -1.2630  0.1131 -0.2270
  117MOL    C5842050   1.975   5.679   2.598  0.5457  0.6653  0.3695
  117MOL    C5942051   1.935   5.565   2.680 -0.4876 -0.8221 -0.6932
  117MOL    C6042052   1.846   5.460   2.618  0.2257  0.4428 -0.0132
  117MOL    C6142053   1.797   5.354   2.723 -0.2729 -0.2214  0.9481
  117MOL    C6242054   1.679   5.277   2.666  0.6610  0.1025 -0.0532
  117MOL    O6342055   1.661   5.166   2.758 -0.1756 -0.2593 -0.0862
  117MOL    H6442056   2.034   5.628   2.522 -1.7455  0.2375 -1.1911
  117MOL    H6542057   1.886   5.712   2.542 -0.2247 -1.1558  0.4790
  117MOL    H6642058   1.884   5.606   2.768  0.7604 -2.0165  0.6276
  117MOL    H6742059   2.022   5.510   2.717  0.0563  0.1653 -0.4748
  117MOL    H6842060   1.890   5.407   2.534 -2.9579 -2.2780 -0.0757
  117MOL    H6942061   1.755   5.505   2.578 -0.7181 -1.5893 -0.1888
  117MOL    H7042062   1.765   5.395   2.819 -2.0619  0.7243 -0.0212
  117MOL    H7142063   1.880   5.286   2.742  1.5765  0.2904 -4.5892
  117MOL    H7242064   1.587   5.334   2.669  1.2993  1.2128 -1.3536
  117MOL    H7342065   1.697   5.222   2.574 -0.4950 -0.2103 -0.0967
  117MOL    C7442066   1.572   5.066   2.736  0.2201 -0.2538 -0.2092
  117MOL    O7542067   1.496   5.061   2.640 -0.1367 -0.3717 -0.3377
  117MOL    C7642068   1.548   4.967   2.840 -0.2061  0.5183  0.2596
  117MOL    C7742069   1.669   4.882   2.876  0.1402 -0.4152  0.4281
  117MOL    C7842070   1.733   4.807   2.760  0.1817  0.6047 -0.4593
  117MOL    C7942071   1.886   4.806   2.760  0.4338 -0.1293  0.1465
  117MOL    C8042072   1.942   4.945   2.732 -0.3231  0.0083  0.0495
  117MOL    O8142073   2.086   4.949   2.730  0.1532  0.2865  0.4035
  117MOL    H8242074   1.461   4.907   2.813  0.0221  0.7171 -0.9320
  117MOL    H8342075   1.524   5.012   2.936  2.6110  1.8314  0.4087
  117MOL    H8442076   1.632   4.808   2.947  0.1768 -0.5067  0.3516
  117MOL    H8542077   1.735   4.957   2.919  0.1055 -1.2327  1.9403
  117MOL    H8642078   1.701   4.853   2.667 -1.1382  1.2011  0.2722
  117MOL    H8742079   1.691   4.707   2.767 -0.0600  0.4970 -2.9829
  117MOL    H8842080   1.917   4.748   2.672 -0.2506 -1.0247  0.4808
  117MOL    H8942081   1.919   4.757   2.852 -1.1487 -0.0522  0.7561
  117MOL    H9042082   1.896   4.979   2.639  1.5180 -0.5556 -1.1115
  117MOL    H9142083   1.908   5.016   2.807 -1.4670 -2.3787  1.8506
  117MOL    C9242084   2.152   4.931   2.613  0.2306  0.1204 -0.4866
  117MOL    O9342085   2.105   4.919   2.501 -0.2088 -0.6099 -0.7122
  117MOL    C9442086   2.307   4.944   2.624  0.2796  0.3148  0.3099
  117MOL    C9542087   2.357   5.028   2.739 -0.3856 -0.4791 -0.3205
  117MOL    C9642088   2.507   5.013   2.767  0.1111 -0.3560  0.0097
  117MOL    C9742089   2.548   5.073   2.903  0.1654  0.3207 -0.3928
  117MOL    C9842090   2.691   5.071   2.919  0.4507  0.2998 -0.2224
  117MOL    O9942091   2.725   5.144   3.038  0.0990 -0.4444 -0.2894
  117MOL   H10042092   2.336   4.984   2.527 -1.4501 -1.0254 -0.7763
  117MOL   H10142093   2.364   4.851   2.623  0.3189  0.3378 -2.0162
  117MOL   H10242094   2.301   5.008   2.830 -1.9054  2.0661 -0.6302
  117MOL   H10342095   2.320   5.128   2.716 -1.0577 -0.4970  0.6606
  117MOL   H10442096   2.565   5.069   2.693  0.5408 -0.6977  0.0892
  117MOL   H10542097   2.538   4.909   2.763 -3.4910 -1.5906  1.7389
  117MOL   H10642098   2.496   5.032   2.990 -1.4813 -0.6273 -1.7878
  117MOL   H10742099   2.516   5.177   2.901 -3.0077 -0.5886 -0.3262
  117MOL   H10842100   2.736   4.976   2.947  0.0564  0.1340 -0.1425
  117MOL   H10942101   2.744   5.120   2.838  1.9475 -1.1742 -0.1722
  117MOL   C11042102   2.838   5.212   3.045  0.0331  0.0369 -0.2196
  117MOL   O11142103   2.924   5.219   2.959  0.1209 -0.5283  0.0225
  117MOL   C11242104   2.841   5.304   3.172  0.2510  0.4902  0.3014
  117MOL   C11342105   2.925   5.430   3.157 -0.4105 -0.5384  0.2238
  117MOL   C11442106   2.942   5.528   3.278 -0.0412  0.0223 -0.0255
  117MOL   C11542107   3.037   5.645   3.249  0.2702 -0.1604  0.4504
  117MOL   C11642108   3.024   5.758   3.357 -0.5387  0.4615  1.1472
  117MOL   O11742109   2.899   5.810   3.374 -0.4462  0.0795 -0.5561
  117MOL   H11842110   2.880   5.248   3.258  0.4832  0.1189 -0.0440
  117MOL   H11942111   2.737   5.312   3.201 -1.0216 -2.1359 -3.2175
  117MOL   H12042112   2.894   5.482   3.066  1.6992 -0.0114 -0.2261
  117MOL   H12142113   3.024   5.390   3.132 -0.3305  0.7314 -1.5753
  117MOL   H12242114   2.976   5.476   3.368 -0.0093  1.1842  0.6390
  117MOL   H12342115   2.845   5.571   3.304 -0.3751 -0.1125 -1.0024
  117MOL   H12442116   3.016   5.672   3.146 -0.7338  0.5956  0.8463
  117MOL   H12542117   3.139   5.606   3.262 -0.1944 -1.6032 -0.1206
  117MOL   H12642118   3.065   5.723   3.452  2.0909 -1.2311 -0.5324
  117MOL   H12742119   3.085   5.841   3.320  1.8347 -0.4305  2.9298
  117MOL   C12842120   2.832   5.891   3.288 -0.4599  0.0073  0.7187
  117MOL   O12942121   2.878   5.943   3.188 -0.1620  0.5033  0.0587
  117MOL   C13042122   2.693   5.913   3.338  0.4285  0.4819 -0.4830
  117MOL   C13142123   2.602   5.786   3.322  0.1815 -0.3758 -1.3200
  117MOL   C13242124   2.581   5.744   3.175  0.0654  0.0789 -0.2359
  117MOL   C13342125   2.474   5.628   3.165 -0.0652 -0.2323 -0.4143
  117MOL   C13442126   2.442   5.573   3.025  1.0742 -0.2727 -0.3096
  117MOL   O13542127   2.334   5.480   3.027  0.0323 -0.2900  0.8511
  117MOL   H13642128   2.646   6.006   3.305 -0.1349  1.1106  2.0096
  117MOL   H13742129   2.714   5.932   3.443 -0.3763  0.7248 -0.3610
  117MOL   H13842130   2.507   5.826   3.358 -0.0191 -1.3608 -0.7499
  117MOL   H13942131   2.639   5.707   3.386  0.7741  2.4018  1.8794
  117MOL   H14042132   2.671   5.704   3.128 -0.8370  0.1752 -2.1254
  117MOL   H14142133   2.547   5.830   3.117 -3.3993  0.3394  1.9929
  117MOL   H14242134   2.382   5.658   3.214  1.3654  1.8789  1.0635
  117MOL   H14342135   2.520   5.546   3.220  1.2191  1.7611  1.5726
  117MOL   H14442136   2.412   5.663   2.971 -0.1999 -0.2824  0.3694
  117MOL   H14542137   2.531   5.530   2.979  1.9941  1.6579 -0.3789
  117MOL   C14642138   2.293   5.426   2.914  0.1878 -0.0421 -0.8319
  117MOL   O14742139   2.332   5.450   2.799 -0.2523  0.7867  0.2015
  117MOL   C14842140   2.173   5.326   2.945 -0.1179  0.4714 -0.3493
  117MOL   C14942141   2.051   5.375   3.018 -0.6702  1.1984  0.0797
  117MOL   C15042142   2.077   5.370   3.171  0.3439  0.4488 -0.4922
  117MOL   C15142143   1.949   5.367   3.253  0.1849 -0.1809  0.0778
  117MOL   C15242144   1.951   5.433   3.384  0.2706  0.1463 -0.2076
  117MOL   O15342145   2.036   5.361   3.472 -0.4981 -0.0643 -0.2888
  117MOL   H15442146   2.209   5.241   3.004 -0.4794  0.1389 -0.6014
  117MOL   H15542147   2.144   5.272   2.854 -2.4270  0.2617  0.4779
  117MOL   H15642148   1.961   5.322   2.989 -0.4129  0.8154 -0.0168
  117MOL   H15742149   2.022   5.473   2.981 -0.1079  2.0426  1.8055
  117MOL   H15842150   2.142   5.449   3.207 -0.5355  1.2886 -0.7329
  117MOL   H15942151   2.132   5.283   3.207 -1.7875  0.0286  1.9893
  117MOL   H16042152   1.914   5.266   3.274 -0.3021  0.3547  1.9132
  117MOL   H16142153   1.874   5.424   3.198  1.5845  1.6682  0.0551
  117MOL   H16242154   1.995   5.530   3.363 -0.0007  0.5440  1.0624
  117MOL   H16342155   1.851   5.441   3.426  0.6805  1.5668  0.5026
  117MOL   C16442156   1.986   5.256   3.542  0.6461 -0.0908  0.1114
  117MOL   O16542157   1.868   5.222   3.548  0.0716 -0.4921  0.0084
  117MOL   C16642158   2.096   5.191   3.628  0.2059  0.3680 -0.2499
  117MOL   C16742159   2.195   5.106   3.547 -0.3893 -0.0717 -0.0942
  117MOL   C16842160   2.316   5.195   3.499  1.1600  0.7755  0.8323
  117MOL   C16942161   2.420   5.108   3.441 -0.3086  0.0064 -0.4278
  117MOL   C17042162   2.545   5.180   3.372  0.0164 -0.3564 -0.2536
  117MOL   O17142163   2.628   5.085   3.310  0.0031  0.1575  0.6045
  117MOL   H17242164   2.054   5.130   3.708  1.4753 -1.7505 -1.1696
  117MOL   H17342165   2.148   5.274   3.675 -0.0882 -1.4067  3.2959
  117MOL   H17442166   2.165   5.050   3.458 -0.8654  0.0377 -0.0000
  117MOL   H17542167   2.241   5.025   3.603 -1.8928 -0.3315  0.7862
  117MOL   H17642168   2.352   5.255   3.582 -1.4297  0.0486  2.5653
  117MOL   H17742169   2.289   5.264   3.419  0.2466 -0.6351 -0.1048
  117MOL   H17842170   2.377   5.052   3.358 -0.2950 -2.0695  0.9340
  117MOL   H17942171   2.468   5.049   3.519  0.2179  2.0871  0.8718
  117MOL   H18042172   2.500   5.244   3.296  3.2028  0.5551 -1.4387
  117MOL   H18142173   2.593   5.237   3.451 -0.8984 -1.6209  1.2468
  117MOL   C18242174   2.707   5.007   3.387 -0.4856 -0.5649 -0.4037
  117MOL   O18342175   2.730   5.017   3.506 -0.0141 -0.1692 -0.5514
  117MOL   C18442176   2.791   4.908   3.304  0.9003  0.2356 -0.1465
  117MOL   C18542177   2.701   4.801   3.229 -0.1326  0.2911 -0.4172
  117MOL   C18642178   2.681   4.666   3.300 -0.2638  0.0316  0.1055
  117MOL   C18742179   2.622   4.550   3.212  0.1373 -0.5808 -0.4309
  117MOL   C18842180   2.465   4.542   3.210 -0.2702 -0.0864 -0.1054
  117MOL   O18942181   2.417   4.638   3.125 -0.1715  0.0208  0.3140
  117MOL   H19042182   2.871   4.863   3.363 -0.1489 -1.7485 -0.2341
  117MOL   H19142183   2.842   4.971   3.231  0.3168 -1.0952 -1.7214
  117MOL   H19242184   2.757   4.780   3.138  0.9709 -0.1471  0.3530
  117MOL   H19342185   2.604   4.845   3.210 -1.0816 -2.0096 -0.9869
  117MOL   H19442186   2.639   4.678   3.400  2.0449 -0.5055  1.1793
  117MOL   H19542187   2.783   4.643   3.331 -0.4566 -0.4999  0.3476
  117MOL   H19642188   2.650   4.453   3.252  0.5480 -0.4383 -0.3730
  117MOL   H19742189   2.663   4.555   3.111  0.5786  0.5926 -0.2021
  117MOL   H19842190   2.441   4.441   3.175  1.0535 -0.9777  1.5034
  117MOL   H19942191   2.419   4.545   3.308  1.4615  1.6395  0.6842
  117MOL   C20042192   2.289   4.627   3.080 -0.0760 -0.0114  0.4979
  117MOL   O20142193   2.217   4.534   3.113  0.0011 -0.4581 -0.3013
  117MOL   C20242194   2.242   4.747   3.003 -0.0065  0.2079  0.7811
  117MOL   C20342195   2.189   4.861   3.091 -0.7239  0.0038 -0.8111
  117MOL   C20442196   2.045   4.829   3.148  0.0959  0.2566  0.5680
  117MOL   C20542197   1.974   4.961   3.189  0.1782  0.2741  0.6412
  117MOL   C20642198   1.821   4.946   3.231  0.2463  0.7391  0.1350
  117MOL   O20742199   1.756   5.075   3.243 -0.5743  0.0178 -0.1670
  117MOL   H20842200   2.170   4.731   2.923 -0.6808  0.2890  1.3639
  117MOL   H20942201   2.323   4.787   2.943 -2.6042  0.3354 -2.7756
  117MOL   H21042202   2.180   4.949   3.027  2.3454 -0.6308 -2.1843
  117MOL   H21142203   2.258   4.879   3.174 -0.2910 -0.2899 -1.1096
  117MOL   H21242204   2.033   4.754   3.226 -0.3197  0.9302  1.1547
  117MOL   H21342205   1.990   4.788   3.064  1.1180  0.7009 -0.3351
  117MOL   H21442206   1.974   5.035   3.110  2.2435 -1.8516 -1.4266
  117MOL   H21542207   2.025   5.017   3.267  0.4846  0.4679  0.2982
  117MOL   H21642208   1.762   4.885   3.163 -0.7515 -1.2721  2.7509
  117MOL   H21742209   1.822   4.892   3.325  0.0259  2.3306  1.0635
  117MOL   C21842210   1.644   5.080   3.319 -0.1808  0.1249  0.2356
  117MOL   O21942211   1.584   4.981   3.368  0.1457  0.2100 -0.0376
  117MOL   C22042212   1.576   5.216   3.327 -0.1024 -0.0346  0.5441
  117MOL   C22142213   1.555   5.291   3.189 -0.2784 -0.2595 -0.0120
  117MOL   C22242214   1.429   5.245   3.111  0.4198 -0.5014 -0.1084
  117MOL   C22342215   1.416   5.313   2.978  0.2654  0.1035  0.2040
  117MOL   C22442216   1.295   5.270   2.900  0.5059 -0.5014 -0.1508
  117MOL   O22542217   1.315   5.318   2.766  0.4353  0.7735 -0.4023
  117MOL   H22642218   1.638   5.285   3.384 -1.2891  1.3369  0.2281
  117MOL   H22742219   1.477   5.202   3.371 -0.1986  0.6286  0.5530
  117MOL   H22842220   1.643   5.278   3.125 -1.1268 -0.2470 -1.2028
  117MOL   H22942221   1.551   5.396   3.215 -0.9945 -0.5204  0.9522
  117MOL   H23042222   1.335   5.265   3.162 -0.2562  1.8757 -2.1698
  117MOL   H23142223   1.427   5.138   3.093 -2.9675 -0.2414 -1.6100
  117MOL   H23242224   1.505   5.276   2.926 -0.2461 -0.6543 -0.1541
  117MOL   H23342225   1.421   5.421   2.986 -0.8470  0.0502  1.6318
  117MOL   H23442226   1.288   5.161   2.898  0.2703 -0.6488  4.1460
  117MOL   H23542227   1.205   5.318   2.939  3.0226  2.8535  1.8549
  117MOL   C23642228   1.211   5.286   2.686 -0.2405 -0.0820 -0.1451
  117MOL   O23742229   1.118   5.205   2.708  0.7224 -0.8729  0.2809
  117MOL   C23842230   1.222   5.341   2.550  0.9983  0.0546  1.0574
  117MOL   C23942231   1.120   5.300   2.452 -0.2044 -0.4695  0.3561
  117MOL   C24042232   1.148   5.357   2.309  0.7130  0.6876 -0.1559
  117MOL   C24142233   1.041   5.323   2.212 -0.4470 -0.7065 -0.4002
  117MOL   C24242234   0.918   5.412   2.197 -0.2510  0.1802 -0.1520
  117MOL   O24342235   0.955   5.545   2.170  0.7475  0.3889  0.1077
  117MOL   H24442236   1.319   5.304   2.516  1.4323  1.3700  0.8541
  117MOL   H24542237   1.214   5.446   2.575 -1.9249  0.3657 -0.9011
  117MOL   H24642238   1.027   5.343   2.490 -0.2117 -0.6422  0.5369
  117MOL   H24742239   1.099   5.193   2.449 -3.1286  0.1336 -2.0575
  117MOL   H24842240   1.242   5.322   2.266 -0.3698 -1.8903 -0.5075
  117MOL   H24942241   1.165   5.464   2.297  0.4190  0.5240 -2.2079
  117MOL   H25042242   1.012   5.219   2.226  0.2430 -0.8780 -0.1944
  117MOL   H25142243   1.092   5.318   2.115  3.7848  2.6510  1.4712
  117MOL   H25242244   0.838   5.370   2.137 -0.8182  0.3808  0.4535
  117MOL   H25342245   0.880   5.425   2.298 -0.1549  0.5721 -0.1652
  117MOL   C25442246   0.893   5.649   2.213  0.1662  0.1363  0.3583
  117MOL   O25542247   0.785   5.652   2.271  0.5813 -0.2959  0.0989
  117MOL   C25642248   0.967   5.777   2.192 -0.2294 -0.3290 -0.1132
  117MOL   C25742249   1.021   5.794   2.041  0.1792  0.0833 -0.1292
  117MOL   C25842250   1.122   5.907   2.041 -0.1214  0.0092 -0.6296
  117MOL   C25942251   1.214   5.904   1.916  0.1662 -0.0903 -0.1874
  117MOL   C26042252   1.300   6.028   1.903 -0.2220 -0.1468 -0.2468
  117MOL   O26142253   1.396   6.034   2.008 -0.0439 -0.2330 -0.3939
  117MOL   H26242254   1.046   5.792   2.267 -0.3972  0.0112 -0.0041
  117MOL   H26342255   0.886   5.845   2.219 -0.7913  0.0977 -2.7449
  117MOL   H26442256   0.939   5.826   1.976 -2.3432 -3.9823  0.8587
  117MOL   H26542257   1.069   5.703   2.006  0.9842  0.4525  0.0137
  117MOL   H26642258   1.187   5.922   2.127  0.5393 -1.2684 -0.8953
  117MOL   H26742259   1.056   5.993   2.031 -0.4698 -0.1456  0.2382
  117MOL   H26842260   1.139   5.905   1.837  0.1084  1.8210 -0.1351
  117MOL   H26942261   1.275   5.814   1.902 -1.0085 -0.9369  0.0354
  117MOL   H27042262   1.349   6.027   1.805  1.9485  2.8056  0.7178
  117MOL   H27142263   1.232   6.113   1.903 -0.0920 -0.0294  1.8233
  117MOL   C27242264   1.400   6.136   2.087 -0.0473  0.5258 -0.3212
  117MOL   O27342265   1.335   6.242   2.067  0.1238 -0.2151  0.5109
  117MOL   C27442266   1.494   6.109   2.210  0.2518  0.5703 -0.2037
  117MOL   C27542267   1.644   6.078   2.177 -0.6238 -0.2695 -0.1605
  117MOL   C27642268   1.696   5.934   2.194 -0.0768 -0.3542  0.8462
  117MOL   C27742269   1.850   5.933   2.178  0.2229  0.5086 -0.0268
  117MOL   C27842270   1.917   5.802   2.214 -0.3774  0.5381 -0.1178
  117MOL   O27942271   1.896   5.716   2.106 -0.5341 -0.1106  0.5342
  117MOL   H28042272   1.453   6.025   2.266  2.1743 -0.3726 -0.1686
  117MOL   H28142273   1.494   6.202   2.268  1.5496 -0.7930  2.0534
  117MOL   H28242274   1.705   6.138   2.245  0.1445  1.2309 -2.1223
  117MOL   H28342275   1.667   6.125   2.082  0.0553  1.3503  0.7782
  117MOL   H28442276   1.654   5.870   2.116 -0.5994  0.9693  0.0276
  117MOL   H28542277   1.674   5.885   2.289  0.4477 -2.2005  0.0282
  117MOL   H28642278   1.885   6.016   2.241 -0.9934  0.7423  0.3465
  117MOL   H28742279   1.872   5.969   2.078 -0.9625  1.5656  0.0853
  117MOL   H28842280   2.024   5.818   2.223 -0.3734 -0.1067  1.1456
  117MOL   H28942281   1.882   5.757   2.307  0.5208  3.5583  1.7348
  117MOL   C29042282   1.968   5.601   2.103 -0.5694 -0.4396  0.1086
  117MOL   O29142283   2.023   5.556   2.206  0.2631 -0.2891  0.1107
  117MOL   C29242284   1.981   5.542   1.956 -0.3075 -0.7630 -0.3386
  117MOL   C29342285   2.056   5.411   1.944  1.0041  0.4400  0.7542
  117MOL   C29442286   2.208   5.414   1.972  0.2736 -0.0829  0.0952
  117MOL   C29542287   2.271   5.286   1.922 -0.2807  1.1766 -0.0365
  117MOL   C29642288   2.420   5.262   1.967 -0.4203  0.1168  0.1837
  117MOL   O29742289   2.431   5.232   2.109 -0.2329 -0.2052 -0.1761
  117MOL   H29842290   2.034   5.615   1.896  0.4784  0.2073  1.4984
  117MOL   H29942291   1.878   5.531   1.920 -0.8815  0.6175  0.8181
  117MOL   H30042292   2.037   5.369   1.846  2.6371  1.0097  0.1827
  117MOL   H30142293   2.008   5.352   2.022  1.4680 -1.2298 -0.2197
  117MOL   H30242294   2.243   5.436   2.073  1.3253  1.6890 -0.6115
  117MOL   H30342295   2.254   5.490   1.909  1.7960 -0.9681  0.1138
  117MOL   H30442296   2.261   5.287   1.813  2.7492  2.8426 -0.3548
  117MOL   H30542297   2.209   5.203   1.956 -0.9035  0.2757 -3.1930
  117MOL   H30642298   2.466   5.179   1.914 -1.5340  0.5377 -1.4753
  117MOL   H30742299   2.474   5.352   1.937  0.3727 -0.2828  0.4029
  117MOL   C30842300   2.421   5.104   2.154  0.1067  0.0119 -0.2599
  117MOL   O30942301   2.388   5.006   2.089 -0.4547  0.3286  0.1998
  117MOL   C31042302   2.470   5.086   2.300 -0.4073 -0.0200  0.7298
  117MOL   C31142303   2.459   5.214   2.395  0.5790  0.4425 -0.0421
  117MOL   C31242304   2.318   5.274   2.422  0.3311  0.6721  0.0118
  117MOL   C31342305   2.310   5.399   2.506  0.1174  0.1179  0.6893
  117MOL   C31442306   2.290   5.529   2.423  0.2024  0.4608 -0.8353
  117MOL   O31542307   2.383   5.539   2.312  0.7067  0.7333 -0.3456
  117MOL   H31642308   2.577   5.068   2.296 -0.5969 -1.0704  0.2019
  117MOL   H31742309   2.423   5.001   2.350  0.1255 -0.8760 -0.1823
  117MOL   H31842310   2.519   5.290   2.344 -2.7617  3.5241  0.4136
  117MOL   H31942311   2.513   5.187   2.485 -1.1514 -0.2223  0.8070
  117MOL   H32042312   2.251   5.203   2.470  2.6646 -0.8855  1.0812
  117MOL   H32142313   2.272   5.293   2.325 -0.8968 -0.0824  0.4418
  117MOL   H32242314   2.401   5.418   2.564 -1.1333  2.9627  1.8037
  117MOL   H32342315   2.227   5.398   2.576 -0.7023 -2.0491 -0.2905
  117MOL   H32442316   2.187   5.534   2.386  0.0130 -0.2651 -0.4174
  117MOL   H32542317   2.304   5.615   2.488  0.8301 -0.7237  0.6179
  117MOL   C32642318   2.406   5.657   2.259  0.4339  0.0887 -0.1846
  117MOL   O32742319   2.357   5.756   2.304  0.1283 -0.5130  0.6575
  117MOL   C32842320   2.490   5.652   2.134  0.2608  0.1770 -0.0080
  117MOL   C32942321   2.626   5.585   2.156  0.4045  0.2554  0.5543
  117MOL   C33042322   2.738   5.676   2.211  0.4938  0.0736  0.3471
  117MOL   C33142323   2.873   5.601   2.231  0.1739 -0.0075  0.3661
  117MOL   C33242324   2.955   5.675   2.333 -0.2220 -1.2958 -0.6056
  117MOL   O33342325   3.084   5.618   2.339  0.2811  0.0297 -0.3600
  117MOL   H33442326   2.502   5.759   2.117 -0.5824  0.1705 -0.6656
  117MOL   H33542327   2.429   5.598   2.063 -0.6880 -0.1904  1.0726
  117MOL   H33642328   2.659   5.557   2.056 -0.7417 -0.8582  0.4768
  117MOL   H33742329   2.618   5.494   2.216  0.1409 -1.4523 -1.9490
  117MOL   H33842330   2.709   5.705   2.312 -2.2563 -2.6776  0.4190
  117MOL   H33942331   2.742   5.758   2.139  0.6832 -0.8654 -0.7234
  117MOL   H34042332   2.926   5.576   2.139 -1.0435  0.8981 -0.5923
  117MOL   H34142333   2.845   5.506   2.277 -1.7971  0.4014  0.0809
  117MOL   H34242334   2.967   5.775   2.291 -1.4403 -0.3827  1.1643
  117MOL   H34342335   2.907   5.676   2.430  1.1010 -1.9612  0.0662
  117MOL   C34442336   3.180   5.695   2.403 -0.1351  0.8018 -0.7972
  117MOL   O34542337   3.162   5.802   2.458  0.3007 -0.0017  0.0914
  117MOL   C34642338   3.308   5.616   2.426 -1.2204 -0.2394  0.6038
  117MOL   C34742339   3.427   5.707   2.461  0.0303 -0.1633  0.6162
  117MOL   C34842340   3.562   5.629   2.465  0.7365  0.6776  0.3022
  117MOL   C34942341   3.678   5.729   2.455  0.2180 -0.0037 -0.3712
  117MOL   C35042342   3.809   5.655   2.440 -0.2746  0.6478 -0.3912
  117MOL   O35142343   3.912   5.743   2.447  0.5691  0.6843 -0.8541
  117MOL   H35242344   3.311   5.561   2.332  0.5418  0.3356  0.3151
  117MOL   H35342345   3.290   5.530   2.491 -0.9084  0.5297  1.7298
  117MOL   H35442346   3.412   5.759   2.555 -2.2142 -1.4793  1.0104
  117MOL   H35542347   3.435   5.786   2.386  0.4220 -0.3359  0.4731
  117MOL   H35642348   3.574   5.559   2.382  0.5414  0.3226  0.5728
  117MOL   H35742349   3.564   5.565   2.553 -2.8045  2.2769  1.6452
  117MOL   H35842350   3.671   5.796   2.541 -1.3805  0.0616 -0.5381
  117MOL   H35942351   3.670   5.787   2.364 -0.5480  0.4167 -0.0370
  117MOL   H36042352   3.823   5.591   2.527  1.7408  1.0102 -0.4433
  117MOL   H36142353   3.809   5.588   2.354  0.3248  1.1389 -0.7746
  117MOL   H36242354   3.908   5.806   2.376 -3.0138  0.4963 -0.8758
  118MOL     C142355   3.087   4.228   5.399  0.0135 -0.1588 -0.3502
  118MOL     O242356   3.196   4.179   5.364  0.3551 -0.2519  0.1022
  118MOL     C342357   3.022   4.194   5.528  0.0423  0.2572  0.0660
  118MOL     C442358   3.111   4.237   5.642 -0.4010 -0.2232 -0.1389
  118MOL     C542359   3.241   4.152   5.662  0.5435 -0.2318 -0.0686
  118MOL     C642360   3.351   4.214   5.754 -0.7338 -0.3199  0.7782
  118MOL     C742361   3.490   4.152   5.737  0.1671  0.8058 -0.4788
  118MOL     O842362   3.529   4.169   5.600 -0.6375 -0.1566 -0.1277
  118MOL     H942363   3.000   4.088   5.541  0.2269  0.3046  0.8040
  118MOL    H1042364   2.929   4.250   5.523 -0.5684 -0.8563 -1.3318
  118MOL    H1142365   3.053   4.236   5.734 -1.1120 -0.9810 -0.5873
  118MOL    H1242366   3.134   4.342   5.624  3.8072 -1.2503 -1.1951
  118MOL    H1342367   3.283   4.116   5.568 -1.4837 -1.0402 -0.6966
  118MOL    H1442368   3.216   4.058   5.712  0.2127  0.2392  0.6507
  118MOL    H1542369   3.314   4.214   5.856 -0.3506 -0.7301  0.9177
  118MOL    H1642370   3.351   4.320   5.730 -0.8502 -0.0663  1.8711
  118MOL    H1742371   3.557   4.199   5.809  0.2536 -0.7452  0.4907
  118MOL    H1842372   3.488   4.044   5.750 -0.6787  0.9712  0.7526
  118MOL    H1942373   3.024   4.294   5.339 -0.0808  0.8688  0.8432
  118MOL    C2042374   3.621   4.268   5.574 -0.2575 -0.1173 -0.6597
  118MOL    O2142375   3.676   4.335   5.660  0.1040  0.2843  0.4939
  118MOL    C2242376   3.667   4.284   5.426  0.4294 -0.4074 -0.5407
  118MOL    C2342377   3.571   4.361   5.331  0.3646 -0.0073 -0.1326
  118MOL    C2442378   3.538   4.503   5.374  0.1602  0.0762 -0.0311
  118MOL    C2542379   3.642   4.604   5.326  0.0144 -0.2294  0.2906
  118MOL    C2642380   3.587   4.746   5.313 -0.2589  0.1463  0.1571
  118MOL    O2742381   3.651   4.824   5.212 -0.2110 -0.4172 -0.2186
  118MOL    H2842382   3.709   4.189   5.392  0.6913 -0.5023  0.0393
  118MOL    H2942383   3.760   4.339   5.442  0.3871 -0.4464 -0.1590
  118MOL    H3042384   3.488   4.299   5.297  1.4784 -0.3380 -2.3122
  118MOL    H3142385   3.622   4.376   5.236 -1.3659  1.3973 -0.8766
  118MOL    H3242386   3.532   4.499   5.483 -0.4118 -2.4823 -0.1229
  118MOL    H3342387   3.439   4.536   5.342 -0.4342  0.2331  1.8966
  118MOL    H3442388   3.652   4.576   5.221  1.9826 -1.3359  0.7584
  118MOL    H3542389   3.740   4.592   5.372  0.3809 -0.0207 -0.4227
  118MOL    H3642390   3.479   4.737   5.300 -0.2162 -1.3166  0.7530
  118MOL    H3742391   3.590   4.800   5.408 -0.2882 -0.6808  0.6294
  118MOL    C3842392   3.625   4.958   5.193  0.8043  0.0694  0.4117
  118MOL    O3942393   3.548   5.021   5.257 -0.5409 -0.8964 -0.0619
  118MOL    C4042394   3.704   5.020   5.077 -0.6773  0.5192 -0.7102
  118MOL    C4142395   3.644   5.144   5.010 -0.1226 -0.6964  0.3886
  118MOL    C4242396   3.661   5.265   5.107 -0.9229 -0.2827 -0.1729
  118MOL    C4342397   3.610   5.393   5.047 -0.5704  0.1632  0.2332
  118MOL    C4442398   3.663   5.517   5.127  0.0651 -0.8350  0.0732
  118MOL    O4542399   3.627   5.619   5.036  0.4978 -0.0744 -0.4394
  118MOL    H4642400   3.714   4.945   4.999 -1.1151 -0.5604  0.2708
  118MOL    H4742401   3.806   5.043   5.108 -0.3769 -0.3025 -1.0790
  118MOL    H4842402   3.537   5.131   4.999  0.2450 -2.1551 -1.8480
  118MOL    H4942403   3.689   5.165   4.913  1.1193  2.4867  1.5848
  118MOL    H5042404   3.764   5.280   5.139  0.1750  0.0260 -3.6028
  118MOL    H5142405   3.605   5.256   5.200  1.9741 -1.4055  1.5350
  118MOL    H5242406   3.503   5.390   5.027 -0.9730 -0.8938  2.3486
  118MOL    H5342407   3.657   5.408   4.950 -1.2336  2.2935  0.2157
  118MOL    H5442408   3.599   5.523   5.214 -0.7317 -0.7710 -0.5097
  118MOL    H5542409   3.769   5.511   5.152  0.1574 -3.7397 -0.8217
  118MOL    C5642410   3.726   5.695   4.970  0.5251 -0.1559  0.5962
  118MOL    O5742411   3.842   5.696   5.008  0.2398  0.6078 -0.1815
  118MOL    C5842412   3.676   5.779   4.853 -0.3568 -0.2194 -0.1388
  118MOL    C5942413   3.616   5.692   4.739  0.0219  0.0802  0.3783
  118MOL    C6042414   3.466   5.649   4.737 -0.3937 -0.5334 -0.7324
  118MOL    C6142415   3.433   5.531   4.648  0.2648  0.1624  0.1710
  118MOL    C6242416   3.498   5.401   4.707  0.5659  0.5990  0.5953
  118MOL    O6342417   3.434   5.289   4.647 -0.2760  0.1491 -0.3404
  118MOL    H6442418   3.764   5.836   4.822 -1.3439  0.3974 -1.8968
  118MOL    H6542419   3.608   5.854   4.894 -1.7842 -1.4958 -0.1633
  118MOL    H6642420   3.687   5.609   4.736 -1.0561 -0.9345  2.0566
  118MOL    H6742421   3.640   5.740   4.644  0.6134 -1.4087 -0.2359
  118MOL    H6842422   3.394   5.731   4.743 -0.3800 -0.7312  3.3262
  118MOL    H6942423   3.453   5.603   4.835 -1.4413  0.8366 -0.2124
  118MOL    H7042424   3.463   5.555   4.547  1.0182  0.5861  0.4901
  118MOL    H7142425   3.325   5.515   4.644  0.3544 -0.2517 -0.7550
  118MOL    H7242426   3.606   5.401   4.691  0.9147 -0.1671  2.7740
  118MOL    H7342427   3.488   5.385   4.814  2.4643  2.6975  1.1245
  118MOL    C7442428   3.504   5.206   4.572  0.4959  0.0249 -0.6729
  118MOL    O7542429   3.623   5.218   4.551  0.5471  0.0874 -0.3866
  118MOL    C7642430   3.423   5.102   4.502  0.3426  0.8928 -0.0448
  118MOL    C7742431   3.509   5.029   4.394  0.8736  0.6640  0.4699
  118MOL    C7842432   3.434   4.927   4.312  0.0624  0.7096 -0.0587
  118MOL    C7942433   3.501   4.872   4.185  0.4610 -0.1270 -0.0362
  118MOL    C8042434   3.422   4.749   4.144 -0.2070 -0.4384  0.6722
  118MOL    O8142435   3.305   4.791   4.066 -0.2160 -0.3198 -0.3031
  118MOL    H8242436   3.339   5.148   4.451  1.4793  1.9465 -0.9974
  118MOL    H8342437   3.372   5.030   4.567  0.4788  1.5123  0.7569
  118MOL    H8442438   3.602   4.985   4.429  0.4202  1.8026  3.2132
  118MOL    H8542439   3.539   5.113   4.332 -2.4523  1.3952 -0.2629
  118MOL    H8642440   3.335   4.963   4.283 -1.6527 -1.8211  2.3366
  118MOL    H8742441   3.403   4.848   4.381 -1.9607  1.2362 -0.3226
  118MOL    H8842442   3.599   4.839   4.219  0.8376  1.4375  0.4552
  118MOL    H8942443   3.506   4.946   4.105  0.2102  0.5034  0.5223
  118MOL    H9042444   3.491   4.705   4.070 -1.0009 -0.1242 -0.2682
  118MOL    H9142445   3.410   4.673   4.221  0.7116 -1.2207  0.0624
  118MOL    C9242446   3.191   4.787   4.131  0.2944  0.4466  0.3457
  118MOL    O9342447   3.169   4.723   4.235  0.3933 -0.4740 -0.2031
  118MOL    C9442448   3.082   4.871   4.069  0.1402 -0.4640  0.5389
  118MOL    C9542449   3.106   5.020   4.087 -0.1692  0.0285 -0.3223
  118MOL    C9642450   3.007   5.115   4.028 -0.4116 -0.1023 -0.1750
  118MOL    C9742451   2.894   5.132   4.117  0.0526  0.5335  0.6313
  118MOL    C9842452   2.786   5.226   4.068  0.3794  0.2486 -0.0822
  118MOL    O9942453   2.701   5.162   3.972 -0.2202  0.0613  0.5150
  118MOL   H10042454   2.991   4.844   4.123  0.1958  1.4229  1.6089
  118MOL   H10142455   3.068   4.851   3.962 -0.0675  0.0699  0.4625
  118MOL   H10242456   3.206   5.038   4.046  1.2229 -0.1470  2.8344
  118MOL   H10342457   3.113   5.037   4.195  0.4793 -0.9244 -0.2094
  118MOL   H10442458   2.973   5.092   3.927  0.3200 -1.3503 -0.1551
  118MOL   H10542459   3.044   5.217   4.022 -2.9745  0.7555 -1.9534
  118MOL   H10642460   2.934   5.167   4.213  0.2287 -0.0172  0.7631
  118MOL   H10742461   2.861   5.033   4.148 -1.2714  0.6096 -0.5137
  118MOL   H10842462   2.724   5.258   4.151 -0.9152 -3.0991  0.3252
  118MOL   H10942463   2.831   5.319   4.033  2.2668 -0.6913 -0.2418
  118MOL   C11042464   2.708   5.188   3.848  0.2743 -0.2003  0.0024
  118MOL   O11142465   2.782   5.267   3.789 -0.5913 -0.4204 -0.2696
  118MOL   C11242466   2.601   5.122   3.767  0.5365  0.3528 -0.4303
  118MOL   C11342467   2.460   5.121   3.835  0.1600  0.6599 -0.0595
  118MOL   C11442468   2.395   5.258   3.868 -0.7587 -0.9793 -0.3667
  118MOL   C11542469   2.297   5.265   3.991 -0.7833  0.0582 -0.1877
  118MOL   C11642470   2.197   5.380   4.003  0.1844 -0.3147  0.0115
  118MOL   O11742471   2.080   5.366   3.923  0.2681  0.4096  0.6836
  118MOL   H11842472   2.630   5.021   3.737 -0.2220  0.4729 -1.6082
  118MOL   H11942473   2.600   5.162   3.665  1.9947 -0.3820 -0.7518
  118MOL   H12042474   2.454   5.059   3.924 -1.9894 -0.6484 -1.0878
  118MOL   H12142475   2.393   5.077   3.761 -0.5408  0.5933  0.6083
  118MOL   H12242476   2.346   5.315   3.790 -1.6127  1.1313  1.6687
  118MOL   H12342477   2.477   5.324   3.899 -0.0443 -2.0912  0.1569
  118MOL   H12442478   2.366   5.261   4.075 -0.9488 -0.0785 -0.0567
  118MOL   H12542479   2.225   5.184   4.005  1.5939 -1.8151  1.8229
  118MOL   H12642480   2.161   5.400   4.104 -2.1395  0.4901 -0.9401
  118MOL   H12742481   2.246   5.475   3.982 -0.0456 -0.0973  0.4552
  118MOL   C12842482   1.962   5.427   3.958  0.8287 -0.4106  0.0367
  118MOL   O12942483   1.952   5.500   4.058  0.0217  0.3004  0.0281
  118MOL   C13042484   1.851   5.411   3.860  1.0568 -0.1184  0.0214
  118MOL   C13142485   1.852   5.531   3.756 -0.8022  0.2076  0.4555
  118MOL   C13242486   1.839   5.667   3.814 -0.3473  0.0250 -0.2803
  118MOL   C13342487   1.847   5.776   3.705  0.2899  0.6301 -0.5508
  118MOL   C13442488   1.822   5.909   3.770  0.5856  0.6043 -0.5494
  118MOL   O13542489   1.815   6.006   3.665 -0.8330  0.1850  0.3476
  118MOL   H13642490   1.755   5.423   3.909  1.1001  0.0226  0.0736
  118MOL   H13742491   1.838   5.312   3.817 -0.0101 -0.8829  2.0780
  118MOL   H13842492   1.766   5.513   3.691 -0.4916  0.0078  0.1034
  118MOL   H13942493   1.937   5.531   3.689 -1.1007 -1.2031  0.0640
  118MOL   H14042494   1.917   5.676   3.890 -2.1241  2.8926  1.2405
  118MOL   H14142495   1.739   5.672   3.856 -0.0789  0.3068  0.3369
  118MOL   H14242496   1.776   5.759   3.625 -0.4225  2.0836 -0.2385
  118MOL   H14342497   1.940   5.781   3.649  1.5619 -0.0116  1.4395
  118MOL   H14442498   1.723   5.901   3.815  0.6773  1.7950 -0.1188
  118MOL   H14542499   1.901   5.919   3.845  0.7932 -0.6971 -0.5861
  118MOL   C14642500   1.753   6.128   3.680  0.3387  0.1206  0.0444
  118MOL   O14742501   1.695   6.163   3.782 -0.2057  0.8697 -0.1821
  118MOL   C14842502   1.772   6.219   3.563 -0.2002 -0.5677  0.4873
  118MOL   C14942503   1.726   6.169   3.431  0.3944  0.1249  0.2410
  118MOL   C15042504   1.572   6.141   3.413 -0.0788  0.0649  0.1668
  118MOL   C15142505   1.517   6.154   3.267 -0.4483  0.1285 -0.3282
  118MOL   C15242506   1.369   6.123   3.264 -0.0505  0.5298 -0.6303
  118MOL   O15342507   1.335   6.118   3.134  0.2223 -0.1300  0.9354
  118MOL   H15442508   1.873   6.258   3.552 -0.3389 -0.1455  0.7035
  118MOL   H15542509   1.707   6.304   3.581  0.3178 -0.4043  1.6526
  118MOL   H15642510   1.786   6.089   3.388 -0.8582 -0.6455 -0.0883
  118MOL   H15742511   1.757   6.250   3.364 -0.2871  0.1294 -0.0680
  118MOL   H15842512   1.516   6.204   3.482  0.9963  1.0075  0.1972
  118MOL   H15942513   1.551   6.040   3.449  0.6801  0.0527  0.5905
  118MOL   H16042514   1.577   6.090   3.204  2.5294  1.8289  0.6577
  118MOL   H16142515   1.535   6.253   3.225  1.8376 -1.0756 -2.2869
  118MOL   H16242516   1.358   6.029   3.318 -0.7841  0.1498 -1.4330
  118MOL   H16342517   1.319   6.190   3.335  1.5391 -0.8972  1.9300
  118MOL   C16442518   1.297   6.229   3.067 -0.6934  0.2133  0.0950
  118MOL   O16542519   1.279   6.336   3.123  0.3920 -0.5328 -0.1922
  118MOL   C16642520   1.272   6.203   2.923 -0.5793 -1.1531 -0.0798
  118MOL   C16742521   1.390   6.195   2.839 -0.7314  0.8591 -0.3569
  118MOL   C16842522   1.349   6.158   2.699  0.3574  0.3655  0.1849
  118MOL   C16942523   1.474   6.135   2.609 -0.2825  0.4030 -0.2460
  118MOL   C17042524   1.589   6.232   2.623 -0.8361 -0.3290 -0.6279
  118MOL   O17142525   1.674   6.196   2.739 -0.3511  0.5443 -0.0665
  118MOL   H17242526   1.210   6.289   2.898 -1.7145 -1.6006  1.1200
  118MOL   H17342527   1.218   6.108   2.914 -0.8195 -1.0894  0.6908
  118MOL   H17442528   1.449   6.115   2.885 -2.2379 -1.1536 -1.7943
  118MOL   H17542529   1.448   6.287   2.844 -0.5659  0.9739 -3.5951
  118MOL   H17642530   1.301   6.246   2.655  0.9086  0.6791  0.2072
  118MOL   H17742531   1.286   6.070   2.682 -3.0636  2.4100  1.8538
  118MOL   H17842532   1.437   6.147   2.507 -3.1210 -0.3224  0.6460
  118MOL   H17942533   1.506   6.031   2.613 -1.5514 -0.0212 -0.9834
  118MOL   H18042534   1.651   6.227   2.534 -0.9893 -1.9943 -0.6508
  118MOL   H18142535   1.551   6.334   2.624 -0.4368 -0.1747 -1.0431
  118MOL   C18242536   1.745   6.079   2.756 -0.2300 -0.5162  0.2458
  118MOL   O18342537   1.756   5.994   2.662 -0.1179 -0.1690 -0.6424
  118MOL   C18442538   1.794   6.042   2.898 -0.1026  0.3436  0.2286
  118MOL   C18542539   1.799   6.155   2.998  0.1193  0.1695 -0.4394
  118MOL   C18642540   1.897   6.267   2.982  0.3989 -0.2794  0.2350
  118MOL   C18742541   1.923   6.360   3.098 -0.1691 -0.3942 -0.6339
  118MOL   C18842542   2.052   6.450   3.079 -0.1089  0.0896 -0.4877
  118MOL   O18942543   2.163   6.362   3.059  0.3478  0.5306 -0.1808
  118MOL   H19042544   1.882   5.978   2.896 -1.3539 -1.4091 -2.0783
  118MOL   H19142545   1.713   5.979   2.934  1.3063  0.0197  2.9902
  118MOL   H19242546   1.820   6.121   3.099  0.2115 -0.2444 -0.5954
  118MOL   H19342547   1.700   6.196   3.018  0.3233  0.4833 -0.0766
  118MOL   H19442548   1.865   6.315   2.890  3.3044  0.1181 -0.6244
  118MOL   H19542549   1.995   6.226   2.959  1.6362  1.0638  2.8451
  118MOL   H19642550   1.938   6.289   3.179  0.3455 -2.1709 -2.2320
  118MOL   H19742551   1.834   6.419   3.119  0.0832  0.0489 -0.8194
  118MOL   H19842552   2.043   6.509   2.988  2.8771 -2.6091 -2.6438
  118MOL   H19942553   2.072   6.522   3.157 -1.7316  0.0321  0.0119
  118MOL   C20042554   2.281   6.430   3.068 -0.1956 -0.2738  1.0629
  118MOL   O20142555   2.302   6.545   3.111 -0.2075  0.0617  0.3745
  118MOL   C20242556   2.399   6.342   3.025 -0.9814  0.4340 -0.2210
  118MOL   C20342557   2.447   6.238   3.137 -0.1137 -0.7806  0.3642
  118MOL   C20442558   2.359   6.113   3.146 -0.5430  0.2101  0.1494
  118MOL   C20542559   2.349   6.028   3.028  0.1412 -0.0424 -0.5567
  118MOL   C20642560   2.278   5.893   3.062  0.6870 -0.6019 -0.2021
  118MOL   O20742561   2.146   5.923   3.103 -0.3430 -0.4139  0.2153
  118MOL   H20842562   2.476   6.411   2.991  0.3323 -0.5891  0.6179
  118MOL   H20942563   2.377   6.293   2.931 -1.1336 -0.1061  0.0927
  118MOL   H21042564   2.445   6.286   3.235  3.7599  1.2384 -0.4411
  118MOL   H21142565   2.550   6.209   3.119 -0.5035 -1.4121 -0.8714
  118MOL   H21242566   2.258   6.135   3.180 -1.4265 -1.2908 -1.3962
  118MOL   H21342567   2.399   6.039   3.215 -0.2217  0.7209  0.5098
  118MOL   H21442568   2.446   6.008   2.982  0.7950 -0.9124  1.1459
  118MOL   H21542569   2.290   6.072   2.948  1.8591  2.0327 -0.7413
  118MOL   H21642570   2.290   5.835   2.970  4.4913 -0.0133 -0.1788
  118MOL   H21742571   2.333   5.854   3.148 -1.2256  0.7495  1.6933
  118MOL   C21842572   2.076   5.815   3.142  0.6520 -0.8398  0.0247
  118MOL   O21942573   2.112   5.695   3.138 -0.3684 -0.4800  0.3800
  118MOL   C22042574   1.943   5.859   3.199  0.4807 -0.4863 -0.7607
  118MOL   C22142575   1.873   5.745   3.270 -0.7847 -0.3020  0.0022
  118MOL   C22242576   1.732   5.773   3.324  0.3383  0.1154 -0.4738
  118MOL   C22342577   1.671   5.638   3.395  0.1051 -0.4723 -0.6583
  118MOL   C22442578   1.527   5.657   3.446  0.5348 -0.2919 -0.2054
  118MOL   O22542579   1.524   5.770   3.533 -0.6829  0.3021 -0.4129
  118MOL   H22642580   1.890   5.891   3.110  1.8915 -0.6992 -1.6981
  118MOL   H22742581   1.948   5.950   3.259  1.1989  0.9408 -2.9243
  118MOL   H22842582   1.946   5.723   3.348 -0.0218 -1.7007 -1.0758
  118MOL   H22942583   1.868   5.666   3.195 -1.1736  0.4824 -0.8033
  118MOL   H23042584   1.672   5.813   3.243  1.5997  1.9248 -0.5514
  118MOL   H23142585   1.742   5.850   3.400 -2.3660 -0.4522  0.5148
  118MOL   H23242586   1.737   5.615   3.478 -0.8541  1.0279  0.5338
  118MOL   H23342587   1.668   5.553   3.327 -1.5822 -1.7556  0.9878
  118MOL   H23442588   1.471   5.691   3.359  1.1081  2.2816  0.3701
  118MOL   H23542589   1.465   5.577   3.486  2.5095 -1.8560 -0.2015
  118MOL   C23642590   1.471   5.756   3.656  0.6805  0.1395  0.5071
  118MOL   O23742591   1.434   5.656   3.711  0.1858  0.1440  0.9809
  118MOL   C23842592   1.461   5.896   3.726 -0.3615  0.0085 -0.0619
  118MOL   C23942593   1.466   5.895   3.873 -0.2414  0.4379  0.2736
  118MOL   C24042594   1.320   5.870   3.925 -0.2879  0.4462 -0.5418
  118MOL   C24142595   1.315   5.851   4.080 -0.1186 -0.0317 -0.1405
  118MOL   C24242596   1.185   5.790   4.133  0.0704 -0.0333 -0.0262
  118MOL   O24342597   1.070   5.876   4.110  0.4231  0.3724 -0.1810
  118MOL   H24442598   1.372   5.950   3.694 -0.4733  0.0882  0.3777
  118MOL   H24542599   1.533   5.969   3.688 -1.0016  1.9734  2.4287
  118MOL   H24642600   1.502   5.991   3.910 -0.5786  0.6169  0.1360
  118MOL   H24742601   1.534   5.820   3.914  0.0989  0.2962 -0.5283
  118MOL   H24842602   1.277   5.779   3.883 -0.9670  1.4544 -2.0677
  118MOL   H24942603   1.257   5.953   3.895 -0.9573  0.2987  0.4724
  118MOL   H25042604   1.335   5.944   4.135  2.3358 -0.7914  0.3284
  118MOL   H25142605   1.401   5.790   4.109  0.1936  0.5095  0.0921
  118MOL   H25242606   1.174   5.703   4.068 -1.1235  0.8880 -1.0748
  118MOL   H25342607   1.189   5.751   4.235  1.8047  2.8415  1.0783
  118MOL   C25442608   1.042   5.966   4.200  1.0483  0.4585  0.1150
  118MOL   O25542609   1.103   5.990   4.302  0.1828 -0.2522 -0.1731
  118MOL   C25642610   0.912   6.037   4.168  0.9182 -0.6847 -0.2000
  118MOL   C25742611   0.932   6.148   4.079 -0.1638 -0.5725  0.0932
  118MOL   C25842612   0.981   6.108   3.932 -0.1818  0.1674 -0.1845
  118MOL   C25942613   0.975   6.228   3.839 -0.1662 -0.3406  0.5401
  118MOL   C26042614   1.053   6.233   3.711  0.2570  0.3372 -0.4962
  118MOL   O26142615   1.000   6.128   3.622  0.0615 -0.4164  0.4525
  118MOL   H26242616   0.863   6.067   4.261  1.3865 -1.4545  0.2981
  118MOL   H26342617   0.850   5.962   4.120  0.6690  0.3210 -1.4678
  118MOL   H26442618   1.016   6.213   4.105  0.5117 -1.4987  0.2949
  118MOL   H26542619   0.849   6.218   4.075  0.8763  1.0743  4.5293
  118MOL   H26642620   0.927   6.022   3.895  1.6861 -0.1972 -2.1922
  118MOL   H26742621   1.085   6.080   3.949  0.1826  0.3743 -2.0213
  118MOL   H26842622   0.995   6.315   3.901 -1.0157 -0.2944  0.7551
  118MOL   H26942623   0.870   6.241   3.814  0.2093  1.8657  0.0142
  118MOL   H27042624   1.043   6.332   3.666  1.8594  0.5349 -0.4504
  118MOL   H27142625   1.159   6.209   3.725  0.0083 -0.8486 -0.5945
  118MOL   C27242626   1.090   6.062   3.541  0.2497 -0.5597  0.3188
  118MOL   O27342627   1.201   6.103   3.516  0.1408 -0.6588 -0.2467
  118MOL   C27442628   1.033   5.934   3.480 -0.2620 -0.2556  0.5566
  118MOL   C27542629   0.973   5.844   3.583  0.0153 -0.0561 -0.3532
  118MOL   C27642630   1.081   5.760   3.664  0.2054  0.4237 -0.8215
  118MOL   C27742631   1.029   5.675   3.785  0.1302  0.2300 -0.1176
  118MOL   C27842632   0.927   5.558   3.753 -0.1276  0.2177 -0.0137
  118MOL   O27942633   1.004   5.445   3.714 -0.6590  0.3361  0.2455
  118MOL   H28042634   1.112   5.888   3.420  0.4907  3.0272 -1.0860
  118MOL   H28142635   0.953   5.955   3.409 -0.4274 -3.3738 -0.2570
  118MOL   H28242636   0.910   5.775   3.528  1.5992 -1.8564  0.0178
  118MOL   H28342637   0.905   5.893   3.653 -1.7003 -1.5718 -0.9188
  118MOL   H28442638   1.171   5.817   3.689  0.9565 -1.5202  1.0578
  118MOL   H28542639   1.125   5.688   3.594 -1.8346  0.2811 -1.9747
  118MOL   H28642640   0.986   5.751   3.850 -0.4534  1.5028 -1.9484
  118MOL   H28742641   1.120   5.641   3.836 -0.1245  0.7562  0.7032
  118MOL   H28842642   0.862   5.531   3.837 -3.2908  3.2621 -1.3232
  118MOL   H28942643   0.859   5.583   3.672 -1.6293 -1.9218  0.5546
  118MOL   C29042644   0.942   5.345   3.660 -0.4111  0.2047  0.4862
  118MOL   O29142645   0.820   5.327   3.651 -0.7035 -0.1222  0.4673
  118MOL   C29242646   1.034   5.250   3.590  0.0436  0.1607  0.1743
  118MOL   C29342647   1.157   5.310   3.523  0.9541  0.2416  0.3960
  118MOL   C29442648   1.106   5.410   3.418  0.1719  0.2121 -0.5246
  118MOL   C29542649   1.215   5.489   3.351 -0.7533 -1.1063  0.3202
  118MOL   C29642650   1.172   5.546   3.219 -0.1240 -0.9186  0.4122
  118MOL   O29742651   1.285   5.589   3.145 -0.0627  0.0565  0.1926
  118MOL   H29842652   0.970   5.200   3.518  0.0316  1.8037 -0.9913
  118MOL   H29942653   1.077   5.187   3.668  0.4937  2.5278  1.9007
  118MOL   H30042654   1.213   5.233   3.470  1.7383  1.2796 -0.3053
  118MOL   H30142655   1.225   5.367   3.586  0.2785 -1.3714  2.6442
  118MOL   H30242656   1.038   5.481   3.465  1.2657  0.1009  1.2502
  118MOL   H30342657   1.040   5.357   3.349 -1.6003 -0.1496  1.3899
  118MOL   H30442658   1.293   5.413   3.345  0.0994 -0.1997 -0.2939
  118MOL   H30542659   1.240   5.563   3.427  0.9614  1.4519 -2.6399
  118MOL   H30642660   1.134   5.463   3.160 -1.0720 -0.0999 -0.1584
  118MOL   H30742661   1.094   5.623   3.215 -0.3794 -1.1864  0.1123
  118MOL   C30842662   1.326   5.716   3.143 -0.6108  0.8045  0.0767
  118MOL   O30942663   1.290   5.801   3.225 -0.5966 -0.1143 -0.2575
  118MOL   C31042664   1.429   5.749   3.027 -0.1042  0.0119  0.0068
  118MOL   C31142665   1.380   5.789   2.884 -0.3403  0.0372 -0.1381
  118MOL   C31242666   1.476   5.759   2.768  0.2360  0.1953 -0.1188
  118MOL   C31342667   1.399   5.763   2.634 -0.5655 -0.5261 -0.3909
  118MOL   C31442668   1.492   5.761   2.512  0.2439  0.2050 -0.4062
  118MOL   O31542669   1.423   5.758   2.394  0.5792 -0.0226  0.3475
  118MOL   H31642670   1.496   5.663   3.029 -0.1750 -0.0980 -2.0447
  118MOL   H31742671   1.486   5.837   3.060 -1.0930  0.3550  0.8387
  118MOL   H31842672   1.338   5.890   2.880 -0.7086 -0.1538 -1.2635
  118MOL   H31942673   1.295   5.721   2.871  0.9166 -1.7512  0.7643
  118MOL   H32042674   1.531   5.667   2.787 -0.4115 -0.1560  0.0710
  118MOL   H32142675   1.553   5.836   2.765  1.3505 -0.9031 -0.2453
  118MOL   H32242676   1.343   5.856   2.637 -0.8926 -0.7599  2.0951
  118MOL   H32342677   1.335   5.675   2.633  0.2286 -1.1110 -1.5200
  118MOL   H32442678   1.541   5.858   2.503 -2.4695  1.5602 -0.8473
  118MOL   H32542679   1.559   5.675   2.516 -0.7119 -0.5143  0.4636
  118MOL   C32642680   1.424   5.653   2.312 -0.3646  0.1702  0.0727
  118MOL   O32742681   1.468   5.544   2.342 -0.2121  0.2619 -0.1461
  118MOL   C32842682   1.339   5.676   2.182  0.7063  0.7097 -0.4140
  118MOL   C32942683   1.370   5.570   2.073  0.4984 -0.6699 -0.4532
  118MOL   C33042684   1.515   5.578   2.002  0.2033 -0.0287 -0.1800
  118MOL   C33142685   1.531   5.697   1.909  0.2616  0.1248  0.1339
  118MOL   C33242686   1.660   5.683   1.827  0.3186 -0.7511 -0.1644
  118MOL   O33342687   1.670   5.803   1.757  0.5323  0.2446  0.2106
  118MOL   H33442688   1.351   5.780   2.149  0.4033  0.4072 -1.4969
  118MOL   H33542689   1.234   5.667   2.210  0.9134 -1.1149 -0.1706
  118MOL   H33642690   1.296   5.562   1.994  0.7820 -0.9991 -0.6899
  118MOL   H33742691   1.362   5.475   2.126 -1.2340  0.2058  0.9166
  118MOL   H33842692   1.528   5.490   1.939 -0.4977 -1.0208  1.0628
  118MOL   H33942693   1.592   5.577   2.078 -1.5010 -1.4528  1.5872
  118MOL   H34042694   1.527   5.794   1.958 -2.3190 -0.6000  1.4470
  118MOL   H34142695   1.456   5.693   1.830 -1.3157 -2.4829  1.6699
  118MOL   H34242696   1.750   5.676   1.889 -0.1722 -1.2252  0.4952
  118MOL   H34342697   1.661   5.595   1.764  0.8321 -1.7567  1.2128
  118MOL   C34442698   1.780   5.828   1.691 -0.1927  0.1861  0.2746
  118MOL   O34542699   1.880   5.753   1.685 -0.1914  0.1581 -0.2834
  118MOL   C34642700   1.762   5.959   1.610  0.8162  0.7314 -0.3772
  118MOL   C34742701   1.859   5.974   1.489 -0.5631  0.0018 -0.3038
  118MOL   C34842702   1.826   6.091   1.404  0.0329 -0.4091 -0.8613
  118MOL   C34942703   1.848   6.222   1.471 -0.5118 -0.7100  0.3484
  118MOL   C35042704   1.841   6.343   1.373  0.1857 -0.2295  0.0902
  118MOL   O35142705   1.704   6.368   1.331 -0.2123 -0.0745 -0.0275
  118MOL   H35242706   1.768   6.044   1.677  4.1001  0.9593 -0.8959
  118MOL   H35342707   1.661   5.969   1.570  0.1904 -1.4975  0.5968
  118MOL   H35442708   1.845   5.895   1.415  1.6136  0.1712 -0.9315
  118MOL   H35542709   1.959   5.991   1.529 -0.6290  0.2241 -0.2314
  118MOL   H35642710   1.719   6.083   1.384 -0.4826  1.5187  0.8729
  118MOL   H35742711   1.872   6.084   1.306  1.7639  0.7070 -0.1429
  118MOL   H35842712   1.943   6.231   1.524 -0.1629 -2.0447 -0.0315
  118MOL   H35942713   1.768   6.231   1.544 -3.0250 -1.0262 -2.2977
  118MOL   H36042714   1.886   6.425   1.427  0.2983  0.0009 -0.3526
  118MOL   H36142715   1.902   6.320   1.285  2.1307  0.4750  1.2224
  118MOL   H36242716   1.699   6.349   1.239 -1.0311 -0.7621  0.1465
  119MOL     C142717   1.178   1.452   7.614  0.7116 -0.0880  0.0919
  119MOL     O242718   1.109   1.374   7.676 -0.0165 -0.2029 -0.0210
  119MOL     C342719   1.242   1.419   7.481 -0.4507  0.2540  0.9645
  119MOL     C442720   1.167   1.312   7.397 -0.3806 -0.3871 -0.2267
  119MOL     C542721   1.031   1.355   7.344 -0.2734  0.0174  0.5061
  119MOL     C642722   0.948   1.229   7.303  0.4918  0.1699  0.0962
  119MOL     C742723   0.799   1.245   7.272 -0.8048  0.3580  0.4451
  119MOL     O842724   0.741   1.120   7.249  0.2019  0.0553  0.1708
  119MOL     H942725   1.344   1.385   7.494 -0.8577 -0.3818  2.5235
  119MOL    H1042726   1.256   1.512   7.425  2.7272 -1.2297 -0.8033
  119MOL    H1142727   1.169   1.214   7.445  0.2946  0.0783  0.7181
  119MOL    H1242728   1.239   1.296   7.316 -0.2691  0.2718 -0.2618
  119MOL    H1342729   1.027   1.426   7.262  0.8508 -1.8352 -1.1756
  119MOL    H1442730   0.986   1.407   7.430  0.7634  1.6493  0.0957
  119MOL    H1542731   0.940   1.158   7.386  1.2039 -0.5895 -0.4742
  119MOL    H1642732   0.990   1.180   7.215 -0.0284  1.4455 -0.8601
  119MOL    H1742733   0.737   1.286   7.352 -1.8458  0.2065 -0.2609
  119MOL    H1842734   0.772   1.307   7.186 -3.4219 -0.0100  0.9522
  119MOL    H1942735   1.210   1.545   7.662  0.2083 -0.9732  2.1751
  119MOL    C2042736   0.743   1.066   7.131  0.5195 -0.0262 -0.0578
  119MOL    O2142737   0.787   1.119   7.028  0.5030  0.0736  0.0709
  119MOL    C2242738   0.704   0.923   7.123 -0.1924 -0.3217 -0.3463
  119MOL    C2342739   0.576   0.895   7.204 -0.8001 -0.5273 -0.0415
  119MOL    C2442740   0.445   0.919   7.132  0.4356  0.4346 -0.6922
  119MOL    C2542741   0.431   1.040   7.031 -0.1443  0.2108 -0.1565
  119MOL    C2642742   0.301   1.044   6.955 -0.0390 -0.5071 -0.3106
  119MOL    O2742743   0.296   1.147   6.850 -0.0252 -0.2636 -0.2188
  119MOL    H2842744   0.780   0.851   7.154 -0.7658 -0.5919  0.4437
  119MOL    H2942745   0.692   0.897   7.018 -2.0570  1.0686 -0.5036
  119MOL    H3042746   0.569   0.948   7.299 -0.5628  0.5483 -0.6229
  119MOL    H3142747   0.572   0.788   7.225 -0.1947 -0.7867 -1.1855
  119MOL    H3242748   0.365   0.930   7.205  2.8460  1.3489  1.9118
  119MOL    H3342749   0.411   0.833   7.076 -0.3556  0.8384 -0.8487
  119MOL    H3442750   0.516   1.032   6.962  0.8828 -1.6842  1.2872
  119MOL    H3542751   0.437   1.134   7.086 -0.4209  0.0506  0.1436
  119MOL    H3642752   0.291   0.942   6.918  0.6502 -0.1974 -1.3725
  119MOL    H3742753   0.216   1.054   7.023 -1.1496 -0.8668 -1.6228
  119MOL    C3842754   0.280   1.275   6.903 -0.3018 -0.2850 -0.1842
  119MOL    O3942755   0.267   1.303   7.026 -0.3559 -0.2064  0.1596
  119MOL    C4042756   0.286   1.386   6.798  0.1034  0.1228 -0.9954
  119MOL    C4142757   0.407   1.372   6.695 -0.0851  0.2259  0.2649
  119MOL    C4242758   0.549   1.352   6.758 -0.1355  0.3530 -0.1657
  119MOL    C4342759   0.599   1.475   6.841  0.3441 -0.1800  0.4515
  119MOL    C4442760   0.731   1.441   6.915  0.6604 -0.0862 -0.1396
  119MOL    O4542761   0.799   1.558   6.959  0.2832  0.4008 -0.1259
  119MOL    H4642762   0.295   1.483   6.846 -2.2724 -0.4612  0.7488
  119MOL    H4742763   0.186   1.383   6.755 -0.8799  0.1510  1.2124
  119MOL    H4842764   0.410   1.460   6.631  0.6441  0.3105  0.4123
  119MOL    H4942765   0.383   1.290   6.628  0.8052  0.2842 -0.1401
  119MOL    H5042766   0.628   1.323   6.689  0.0796  2.0368 -0.6226
  119MOL    H5142767   0.538   1.270   6.830 -0.0277 -0.1762 -0.7433
  119MOL    H5242768   0.513   1.503   6.902 -0.4117 -0.2368 -0.5812
  119MOL    H5342769   0.623   1.548   6.764 -1.1817 -0.3763 -0.2263
  119MOL    H5442770   0.706   1.383   7.004  0.7014  1.5348  0.9556
  119MOL    H5542771   0.786   1.385   6.839  0.9571 -0.7038  0.5296
  119MOL    C5642772   0.782   1.609   7.080  0.0016  0.2107  0.3765
  119MOL    O5742773   0.716   1.571   7.174  0.7121  0.7654 -0.0868
  119MOL    C5842774   0.878   1.733   7.092  0.6529  0.4850 -0.0271
  119MOL    C5942775   0.967   1.714   7.222  0.1634  0.2009 -0.2013
  119MOL    C6042776   0.905   1.733   7.354  0.0169  0.2584  0.1240
  119MOL    C6142777   1.001   1.744   7.471  0.1599 -0.1464 -0.1610
  119MOL    C6242778   0.920   1.773   7.604  0.3637 -0.0161 -0.1754
  119MOL    O6342779   0.863   1.904   7.616 -0.7768 -0.1006 -0.5418
  119MOL    H6442780   0.812   1.819   7.100  0.9630  0.8532 -1.3408
  119MOL    H6542781   0.942   1.752   7.005 -0.2603 -0.6374 -0.9691
  119MOL    H6642782   1.041   1.794   7.217 -0.3843  0.7563  0.4343
  119MOL    H6742783   1.030   1.625   7.222  1.9097  1.3490  2.6632
  119MOL    H6842784   0.832   1.659   7.386  2.0788 -1.4602  1.0383
  119MOL    H6942785   0.855   1.829   7.345 -0.0791  0.1746 -0.2390
  119MOL    H7042786   1.080   1.816   7.451 -1.6395  1.9325  0.0265
  119MOL    H7142787   1.054   1.649   7.477 -0.2685 -0.2742  1.9792
  119MOL    H7242788   0.843   1.697   7.612 -0.0871  0.2007 -2.3470
  119MOL    H7342789   0.968   1.757   7.701 -1.3061 -2.6773  0.2567
  119MOL    C7442790   0.786   1.934   7.731  0.3060 -0.8066 -0.0892
  119MOL    O7542791   0.762   1.861   7.830 -0.4644 -0.3135  0.1235
  119MOL    C7642792   0.726   2.068   7.730 -0.7719  0.0349 -0.0229
  119MOL    C7742793   0.831   2.171   7.773 -0.5763  0.1643  1.1437
  119MOL    C7842794   0.779   2.315   7.797 -0.2131 -0.3012  0.5880
  119MOL    C7942795   0.892   2.422   7.825  0.2056  0.5554 -0.0714
  119MOL    C8042796   0.842   2.566   7.818  0.6176 -0.0376 -1.1204
  119MOL    O8142797   0.747   2.581   0.076 -0.3186 -0.1244  0.7682
  119MOL    H8242798   0.644   2.085   7.800 -1.5898  1.0738 -1.2203
  119MOL    H8342799   0.684   2.076   7.630  0.3077  1.1416 -0.4045
  119MOL    H8442800   0.914   2.171   7.702  0.1146  1.8099  1.9198
  119MOL    H8542801   0.873   2.149   0.027  1.2706 -0.3066  0.2790
  119MOL    H8642802   0.702   2.306   0.030  0.7587 -2.1745  1.3686
  119MOL    H8742803   0.726   2.337   7.704  1.9161 -0.2719 -0.6353
  119MOL    H8842804   0.961   2.424   7.741  1.5412  1.0985  1.0305
  119MOL    H8942805   0.950   2.391   0.068 -0.8957 -1.4792 -0.0215
  119MOL    H9042806   0.927   2.627   0.006  0.6311  0.1143 -1.4359
  119MOL    H9142807   0.790   2.593   7.726 -2.3467 -0.7035  0.3003
  119MOL    C9242808   0.708   2.703   0.117 -0.4764  0.8060  0.0056
  119MOL    O9342809   0.777   2.799   0.137  0.4180 -0.3004 -0.0924
  119MOL    C9442810   0.559   2.696   0.155  0.4728  0.0830  0.1230
  119MOL    C9542811   0.508   2.822   0.220  0.0148 -1.0531 -0.2151
  119MOL    C9642812   0.371   2.810   0.276  0.2242 -0.5026 -0.4462
  119MOL    C9742813   0.323   2.934   0.359 -0.8547  0.5356  0.6530
  119MOL    C9842814   0.311   3.052   0.271 -0.0561  0.2471 -0.0066
  119MOL    O9942815   0.260   3.162   0.349  0.2095  0.4451  0.5926
  119MOL   H10042816   0.540   2.611   0.221 -2.0809 -0.0773 -0.7769
  119MOL   H10142817   0.496   2.669   0.070  1.9440  1.9488 -1.5968
  119MOL   H10242818   0.517   2.909   0.156 -2.1342  0.7972  1.8777
  119MOL   H10342819   0.569   2.843   0.308  0.0715  0.0012 -0.5071
  119MOL   H10442820   0.359   2.719   0.333 -1.7051 -1.1796 -1.8936
  119MOL   H10542821   0.284   2.794   0.212 -1.3263  3.0273  0.6421
  119MOL   H10642822   0.382   2.948   0.449 -0.7236 -2.0661  1.0054
  119MOL   H10742823   0.230   2.902   0.405  0.1248  0.9739  2.9737
  119MOL   H10842824   0.404   3.072   0.218  0.2215 -0.1112  0.3404
  119MOL   H10942825   0.235   3.036   0.195  1.2016 -1.1713 -0.9807
  119MOL   C11042826   0.195   3.264   0.290  0.2754 -0.0977  0.3904
  119MOL   O11142827   0.162   3.279   0.174  0.2703 -0.2936 -0.3951
  119MOL   C11242828   0.161   3.371   0.395 -0.2882 -0.0194 -0.3005
  119MOL   C11342829   0.019   3.364   0.444  0.5656  0.2453  0.0011
  119MOL   C11442830   7.761   3.448   0.363  0.7841 -0.1284  0.2049
  119MOL   C11542831   7.611   3.398   0.388  0.0190 -1.0544  0.7567
  119MOL   C11642832   7.517   3.485   0.301 -0.2555  0.7669  0.0738
  119MOL   O11742833   7.381   3.441   0.322  0.3139  0.1755 -0.3098
  119MOL   H11842834   0.163   3.465   0.340 -0.4066 -1.4893 -2.9202
  119MOL   H11942835   0.240   3.379   0.469 -0.0725  0.1389 -0.5473
  119MOL   H12042836   0.010   3.384   0.551  1.1071  2.3967 -0.3270
  119MOL   H12142837   7.830   3.261   0.432 -0.0892  0.5068 -0.4960
  119MOL   H12242838   7.787   3.429   0.259  0.2419 -3.7476  0.6712
  119MOL   H12342839   7.783   3.551   0.389 -1.6789  0.1758  1.2565
  119MOL   H12442840   7.586   3.410   0.493  1.6194  0.5325  0.9825
  119MOL   H12542841   7.597   3.294   0.357  0.6577 -1.4436  1.7348
  119MOL   H12642842   7.523   3.592   0.320 -1.2143  0.6492  1.0847
  119MOL   H12742843   7.556   3.468   0.201 -1.6415 -1.3649 -0.1322
  119MOL   C12842844   7.314   3.496   0.424 -0.5440 -0.3126 -0.0168
  119MOL   O12942845   7.361   3.577   0.502 -0.0065 -0.2146 -0.2628
  119MOL   C13042846   7.169   3.473   0.414  0.3137  0.4809  0.0751
  119MOL   C13142847   7.081   3.563   0.506  0.4418  0.1514 -0.4438
  119MOL   C13242848   7.105   3.557   0.657  0.0938 -0.9183 -0.0411
  119MOL   C13342849   6.993   3.638   0.721 -0.2102 -0.7655 -0.2917
  119MOL   C13442850   7.007   3.652   0.869 -0.1393  0.2561 -0.4767
  119MOL   O13542851   6.900   3.738   0.922 -0.2439 -0.3099 -0.1922
  119MOL   H13642852   7.153   3.367   0.433  0.7617 -0.0189 -2.2355
  119MOL   H13742853   7.141   3.499   0.312 -0.5359 -1.0330 -0.0976
  119MOL   H13842854   6.977   3.544   0.480 -0.1347  2.1602  0.2909
  119MOL   H13942855   7.086   3.667   0.475 -1.5819  0.4173  0.0042
  119MOL   H14042856   7.198   3.605   0.689 -0.8386 -0.8326  2.6511
  119MOL   H14142857   7.106   3.457   0.701  2.9152 -0.8912  0.0354
  119MOL   H14242858   6.897   3.596   0.692 -2.8281  2.5939  3.0227
  119MOL   H14342859   6.984   3.735   0.672  2.4311 -0.6906 -0.7187
  119MOL   H14442860   6.997   3.556   0.921 -2.0244  1.1817  0.9339
  119MOL   H14542861   7.106   3.692   0.891 -0.1031 -0.7903  1.4500
  119MOL   C14642862   6.931   3.824   1.011 -0.4831 -0.2770  0.3219
  119MOL   O14742863   7.047   3.847   1.060  0.4484  0.2621 -0.0985
  119MOL   C14842864   6.811   3.908   1.058 -0.4426 -0.1842  0.1311
  119MOL   C14942865   6.788   4.033   0.966  1.1526 -0.5714 -0.6957
  119MOL   C15042866   6.710   4.150   1.032 -0.9321 -0.3504  0.2597
  119MOL   C15142867   6.713   4.277   0.947 -0.0408  0.9998 -0.1831
  119MOL   C15242868   6.813   4.372   1.011 -0.2044 -0.4410  0.1669
  119MOL   O15342869   6.823   4.484   0.923  0.2231 -0.0532  0.2896
  119MOL   H15442870   6.816   3.929   1.165  1.0414 -0.8786  0.2068
  119MOL   H15542871   6.714   3.858   1.053 -0.2367 -0.4243 -1.7498
  119MOL   H15642872   6.744   4.003   0.871  1.0601  0.8559 -1.1128
  119MOL   H15742873   6.890   4.067   0.951  0.3951  2.3234  0.4353
  119MOL   H15842874   6.755   4.170   1.129 -0.5808  0.1291  0.0007
  119MOL   H15942875   6.606   4.123   1.047 -0.9993 -0.8186 -0.9763
  119MOL   H16042876   6.615   4.324   0.946 -0.9044 -0.6871  1.5616
  119MOL   H16142877   6.739   4.239   0.848  0.2773 -1.1129  0.6728
  119MOL   H16242878   6.758   4.403   1.100 -2.3617  1.2283 -1.6668
  119MOL   H16342879   6.907   4.326   1.039  0.4137  0.7940  0.1767
  119MOL   C16442880   6.896   4.475   0.810  0.2024 -0.5359 -0.2428
  119MOL   O16542881   6.979   4.390   0.797 -0.3570 -0.2984  0.1749
  119MOL   C16642882   6.880   4.591   0.703 -0.0709 -0.1412  0.4155
  119MOL   C16742883   6.734   4.625   0.689  0.7422  0.5841 -0.7519
  119MOL   C16842884   6.648   4.509   0.626  0.2546 -0.4204 -0.2826
  119MOL   C16942885   6.518   4.557   0.563  0.0287 -0.4084 -0.4598
  119MOL   C17042886   6.433   4.435   0.512 -0.7638  0.5952 -1.2526
  119MOL   O17142887   6.411   4.336   0.613 -0.1885  0.4045 -0.7946
  119MOL   H17242888   6.930   4.555   0.613 -0.7546  0.3236 -0.1578
  119MOL   H17342889   6.921   4.686   0.739  0.8003  0.0094 -0.9508
  119MOL   H17442890   6.710   4.708   0.622 -1.2438  0.6578  0.0160
  119MOL   H17542891   6.685   4.646   0.784 -0.4196  0.1006 -1.2401
  119MOL   H17642892   6.641   4.428   0.698  0.2439 -0.3111 -0.1606
  119MOL   H17742893   6.699   4.448   0.551 -0.1529 -0.6125 -0.4056
  119MOL   H17842894   6.536   4.641   0.496  1.8765 -1.0683 -0.7975
  119MOL   H17942895   6.455   4.602   0.640  1.3262  1.9911 -0.7541
  119MOL   H18042896   6.340   4.455   0.461 -0.8116 -0.7939 -1.7378
  119MOL   H18142897   6.492   4.389   0.433  2.0836 -0.6003  1.4173
  119MOL   C18242898   6.450   4.214   0.593 -0.1660  0.3824  0.0079
  119MOL   O18342899   6.507   4.169   0.486 -0.2019  0.0881  0.0595
  119MOL   C18442900   6.419   4.118   0.708 -0.3498 -0.2593 -0.4433
  119MOL   C18542901   6.493   3.987   0.700  0.0783 -0.1610 -0.0692
  119MOL   C18642902   6.450   3.885   0.811  0.3118 -0.0059  0.3389
  119MOL   C18742903   6.539   3.760   0.806  0.5735 -0.9128  0.8814
  119MOL   C18842904   6.501   3.663   0.918  0.2392 -0.1846  0.6401
  119MOL   O18942905   6.554   3.535   0.888 -0.2419 -0.4912 -0.4750
  119MOL   H19042906   6.312   4.098   0.705 -0.7771  1.5897  1.3209
  119MOL   H19142907   6.443   4.157   0.807 -1.2942 -2.2771  0.6059
  119MOL   H19242908   6.600   4.001   0.720  0.2034 -2.9336  1.3049
  119MOL   H19342909   6.480   3.939   0.603 -1.6199  0.0181  0.0673
  119MOL   H19442910   6.353   3.836   0.797  0.8192 -1.9918  3.3526
  119MOL   H19542911   6.454   3.931   0.910  1.7660  1.5059 -0.4012
  119MOL   H19642912   6.646   3.778   0.812  0.4791  0.0899 -0.2577
  119MOL   H19742913   6.533   3.723   0.703  0.0025  1.3587  0.0710
  119MOL   H19842914   6.547   3.699   1.011  0.4221 -0.8223  0.8039
  119MOL   H19942915   6.393   3.662   0.930  0.2568  0.7696  0.9508
  119MOL   C20042916   6.613   3.463   0.988 -0.6652 -0.5702 -1.2954
  119MOL   O20142917   6.645   3.508   1.097  0.2695 -0.4009 -0.6192
  119MOL   C20242918   6.636   3.314   0.944  0.0040 -0.6294 -0.3430
  119MOL   C20342919   6.746   3.277   0.847  0.0767 -0.2762  0.3184
  119MOL   C20442920   6.714   3.313   0.701 -0.6354  0.4238  0.1316
  119MOL   C20542921   6.832   3.287   0.598  0.5739 -0.9011 -1.3556
  119MOL   C20642922   6.790   3.291   0.451  0.5177 -0.2471 -0.4014
  119MOL   O20742923   6.900   3.294   0.357 -0.2680  0.1936  0.1417
  119MOL   H20842924   6.543   3.269   0.910 -0.0805 -0.8403  0.1653
  119MOL   H20942925   6.643   3.261   1.039 -1.0792  1.4408  0.9384
  119MOL   H21042926   6.770   3.170   0.856 -2.0494 -0.8151 -0.3202
  119MOL   H21142927   6.840   3.329   0.870 -0.4375  0.7881  0.0192
  119MOL   H21242928   6.682   3.417   0.691  0.1782  0.7501  0.8975
  119MOL   H21342929   6.634   3.249   0.664  0.8798 -2.5234  1.8192
  119MOL   H21442930   6.880   3.193   0.625 -2.5194 -1.6706  1.8622
  119MOL   H21542931   6.912   3.361   0.608  0.6159 -0.9106 -1.6072
  119MOL   H21642932   6.739   3.199   0.424 -0.0191  0.5514 -2.1253
  119MOL   H21742933   6.728   3.376   0.425  1.1915  0.8386  1.4209
  119MOL   C21842934   6.861   3.265   0.224 -0.5631  0.4188  0.3318
  119MOL   O21942935   6.740   3.275   0.188  0.4095  0.1691  0.1838
  119MOL   C22042936   6.969   3.218   0.130 -0.4224  0.2840  0.1310
  119MOL   C22142937   6.929   3.186   7.843  0.8494 -0.1274  0.8748
  119MOL   C22242938   6.887   3.043   7.817  0.3258 -0.0017  0.3950
  119MOL   C22342939   7.009   2.950   7.783  0.4365 -0.6384  0.7605
  119MOL   C22442940   6.960   2.810   7.759 -0.2551  0.5869 -0.1847
  119MOL   O22542941   6.932   2.756   0.042 -0.3064  0.6033  0.1166
  119MOL   H22642942   7.018   3.137   0.184 -0.3977 -0.1256 -0.4983
  119MOL   H22742943   7.051   3.290   0.124  0.8525 -0.9599  2.1796
  119MOL   H22842944   7.011   3.207   7.775  1.7298  0.1160  1.9980
  119MOL   H22942945   6.853   3.257   7.811  3.0631  0.6458 -2.8593
  119MOL   H23042946   6.813   3.041   7.737  2.6260 -1.8984 -1.7698
  119MOL   H23142947   6.843   3.008   0.066 -0.9934 -1.4811 -0.7726
  119MOL   H23242948   7.094   2.956   0.007  0.8769  2.6879  0.0277
  119MOL   H23342949   7.054   2.980   7.688  1.2207 -0.9843  1.0226
  119MOL   H23442950   6.866   2.799   7.704 -0.5972 -2.4685  0.8830
  119MOL   H23542951   7.032   2.758   7.697 -3.0043 -1.1182 -2.0682
  119MOL   C23642952   6.959   2.627   0.074 -0.1579 -0.5791 -0.2575
  119MOL   O23742953   7.007   2.537   0.004  0.2436 -0.2086 -0.2891
  119MOL   C23842954   6.896   2.593   0.207  0.0135 -0.3742 -0.3017
  119MOL   C23942955   6.907   2.444   0.255 -0.3455 -0.1148 -0.2416
  119MOL   C24042956   6.867   2.445   0.407 -0.6022  0.5771  0.0759
  119MOL   C24142957   6.852   2.307   0.464  0.1320  0.1245 -0.0373
  119MOL   C24242958   6.766   2.291   0.590  0.1228  0.0977  0.0511
  119MOL   O24342959   6.732   2.159   0.622 -0.0249 -0.3069  0.1879
  119MOL   H24442960   6.793   2.624   0.191  0.2744  0.9639  0.5478
  119MOL   H24542961   6.927   2.665   0.283  1.6019 -1.4310  0.0928
  119MOL   H24642962   7.002   2.393   0.240 -0.0975  0.6229 -1.2254
  119MOL   H24742963   6.827   2.391   0.204 -1.0560 -0.1476  0.8734
  119MOL   H24842964   6.772   2.498   0.420 -0.1270  1.6695 -0.7802
  119MOL   H24942965   6.939   2.496   0.471 -1.2992  2.0542 -0.2963
  119MOL   H25042966   6.951   2.264   0.477 -0.1580 -1.0960 -1.6772
  119MOL   H25142967   6.808   2.249   0.383 -1.4281  1.5350 -0.2277
  119MOL   H25242968   6.813   2.353   0.665  0.2627  1.0651 -0.8324
  119MOL   H25342969   6.673   2.344   0.568  1.0754  1.7144 -0.1465
  119MOL   C25442970   6.733   2.126   0.749  0.3873  0.8764  0.0373
  119MOL   O25542971   6.751   2.198   0.845 -0.2731  0.9247 -0.5239
  119MOL   C25642972   6.713   1.969   0.761 -0.1706  0.6071  0.3827
  119MOL   C25742973   6.831   1.876   0.718  0.2894 -0.2851 -0.1426
  119MOL   C25842974   6.893   1.783   0.826 -0.0682 -0.2621  0.5025
  119MOL   C25942975   6.997   1.692   0.766  1.0793 -0.5645 -0.8872
  119MOL   C26042976   7.058   1.593   0.866  0.1771  0.5785  0.1861
  119MOL   O26142977   7.121   1.664   0.975 -0.1821 -0.0870  0.3905
  119MOL   H26242978   6.623   1.961   0.700 -0.7059 -0.2221  1.2650
  119MOL   H26342979   6.688   1.945   0.864  1.4399 -4.4429 -0.2778
  119MOL   H26442980   6.910   1.927   0.663  0.5578 -0.0472  0.4616
  119MOL   H26542981   6.787   1.812   0.641  0.3689 -0.4252 -0.0710
  119MOL   H26642982   6.810   1.719   0.857 -0.3884 -1.1203 -1.9505
  119MOL   H26742983   6.936   1.818   0.919  0.9000 -1.0472  0.3551
  119MOL   H26842984   7.079   1.744   0.716  1.5621  0.4525  0.9257
  119MOL   H26942985   6.954   1.618   0.698  0.8409 -1.5922  0.3605
  119MOL   H27042986   6.986   1.522   0.905 -0.1567 -0.2182 -1.7957
  119MOL   H27142987   7.125   1.524   0.814  2.4573  0.8786  2.6250
  119MOL   C27242988   7.238   1.726   0.954 -0.2035  0.0535 -0.2286
  119MOL   O27342989   7.288   1.745   0.842 -0.3038  0.0978 -0.2592
  119MOL   C27442990   7.310   1.768   1.083  0.3011  0.7037  0.1056
  119MOL   C27542991   7.442   1.839   1.061 -0.7701  0.5437 -1.0678
  119MOL   C27642992   7.500   1.894   1.200  0.5378  0.6795 -0.0755
  119MOL   C27742993   7.420   2.004   1.271  0.5770  0.1845  0.5126
  119MOL   C27842994   7.419   2.140   1.201  0.1213 -0.6651  0.6133
  119MOL   O27942995   7.536   2.217   1.254 -0.0131  0.1156 -0.0663
  119MOL   H28042996   7.317   1.698   1.167  2.4554 -1.1012 -1.5263
  119MOL   H28142997   7.246   1.844   1.128 -1.3621 -1.0373  0.7923
  119MOL   H28242998   7.429   1.923   0.993 -1.1038  1.1567 -0.2649
  119MOL   H28342999   7.511   1.767   1.017  2.2035  1.4007  1.8915
  119MOL   H28443000   7.603   1.922   1.178  0.1744  0.4161 -2.2354
  119MOL   H28543001   7.520   1.806   1.260  0.0795  1.3167  1.0366
  119MOL   H28643002   7.442   2.007   1.378 -0.1964 -0.9780  0.7233
  119MOL   H28743003   7.313   1.980   1.272  0.7494 -1.4237 -4.5217
  119MOL   H28843004   7.409   2.114   1.095  0.5887  0.6008  0.2569
  119MOL   H28943005   7.331   2.194   1.235  1.3034  0.8537  1.2734
  119MOL   C29043006   7.641   2.250   1.168 -0.0881  0.3241  0.3067
  119MOL   O29143007   7.651   2.213   1.047 -0.1589  0.6156 -0.1872
  119MOL   C29243008   7.749   2.338   1.235 -0.5753  0.6130  0.4870
  119MOL   C29343009   0.042   2.283   1.272  0.3208 -0.6909 -1.5145
  119MOL   C29443010   0.072   2.280   1.430 -0.3764  0.4690  0.7091
  119MOL   C29543011   0.214   2.224   1.466 -0.3060 -0.3510 -0.3384
  119MOL   C29643012   0.249   2.227   1.616  0.3011  0.1059  0.1917
  119MOL   O29743013   0.157   2.140   1.676 -0.2217 -0.4586  0.0842
  119MOL   H29843014   7.712   2.376   1.331 -1.3011  0.6061  0.2153
  119MOL   H29943015   7.771   2.426   1.173  1.1366  0.9852  1.5944
  119MOL   H30043016   0.121   2.353   1.244  1.1073 -1.3584 -0.9801
  119MOL   H30143017   0.045   2.189   1.219 -2.0705 -0.4411 -2.1671
  119MOL   H30243018   0.003   2.217   1.485  0.1398  0.9968  1.9680
  119MOL   H30343019   0.080   2.378   1.477  0.7684  0.3125  0.8513
  119MOL   H30443020   0.280   2.282   1.401 -2.2837  0.7300 -1.3999
  119MOL   H30543021   0.221   2.124   1.423 -1.6171 -0.9008  0.7109
  119MOL   H30643022   0.352   2.202   1.641 -1.0973 -1.6630  4.7406
  119MOL   H30743023   0.240   2.332   1.646 -2.7968 -0.1412  0.3072
  119MOL   C30843024   0.170   2.009   1.675  0.3809  0.8830  0.0477
  119MOL   O30943025   0.262   1.943   1.627  0.0007 -0.2158 -0.0280
  119MOL   C31043026   0.050   1.942   1.725 -1.2047  0.2157  0.1745
  119MOL   C31143027   0.035   1.942   1.877 -0.0916 -0.2350 -0.4382
  119MOL   C31243028   0.113   1.830   1.959  0.0930  0.0316 -0.2448
  119MOL   C31343029   0.092   1.829   2.112 -0.4995  0.0483 -0.3686
  119MOL   C31443030   0.157   1.710   2.185 -0.1552  0.3159 -0.4781
  119MOL   O31543031   0.293   1.690   2.136 -0.2427 -0.2014 -0.1994
  119MOL   H31643032   0.064   1.840   1.690  3.1865  0.6720  0.2790
  119MOL   H31743033   7.818   1.999   1.673 -3.4544  0.8062  3.9427
  119MOL   H31843034   7.771   1.935   1.888 -0.1514  1.9423  0.5207
  119MOL   H31943035   0.063   2.040   1.916  1.3453 -0.4178 -0.9609
  119MOL   H32043036   0.216   1.845   1.928  0.4600 -2.4165 -0.2690
  119MOL   H32143037   0.074   1.735   1.921  0.5407 -0.0803 -0.4258
  119MOL   H32243038   7.829   1.815   2.124 -0.4512 -0.9823 -1.0107
  119MOL   H32343039   0.128   1.922   2.154 -0.4308  1.0805 -2.6307
  119MOL   H32443040   0.146   1.719   2.293  2.0661  1.3595 -0.3246
  119MOL   H32543041   0.100   1.622   2.153 -0.5316 -0.1321  1.3714
  119MOL   C32643042   0.391   1.757   2.186  0.2459  0.0839 -0.4430
  119MOL   O32743043   0.390   1.858   2.257 -0.0980  0.2120 -0.0460
  119MOL   C32843044   0.526   1.698   2.145  0.2530  0.5832  0.4958
  119MOL   C32943045   0.596   1.766   2.025  0.1326  0.2152  0.4938
  119MOL   C33043046   0.513   1.757   1.896  0.1614  0.0654  0.3408
  119MOL   C33143047   0.592   1.780   1.773  0.2420  0.4360  0.5423
  119MOL   C33243048   0.747   1.807   1.788  0.2334 -0.1901 -0.4972
  119MOL   O33343049   0.812   1.867   1.676  0.1505 -0.2789  0.2652
  119MOL   H33443050   0.495   1.595   2.126 -2.7503  0.5854  4.6628
  119MOL   H33543051   0.586   1.707   2.236 -0.1629  1.0319  0.7331
  119MOL   H33643052   0.696   1.724   2.016  0.4176  1.0480 -0.3157
  119MOL   H33743053   0.618   1.872   2.038  0.3540  0.1655  0.5370
  119MOL   H33843054   0.422   1.818   1.893  0.2194  0.1005 -3.4898
  119MOL   H33943055   0.466   1.660   1.888  1.7505 -0.6092 -1.2043
  119MOL   H34043056   0.548   1.868   1.727 -2.8885 -0.5895  1.4156
  119MOL   H34143057   0.578   1.697   1.703  2.6856  0.8301 -0.4599
  119MOL   H34243058   0.756   1.882   1.867  2.1500  0.5582 -1.3921
  119MOL   H34343059   0.799   1.717   1.820  1.1193  0.4806 -0.0312
  119MOL   C34443060   0.870   1.785   1.588  0.0036 -0.0457 -0.4357
  119MOL   O34543061   0.856   1.661   1.589  0.2773 -0.0680 -0.0855
  119MOL   C34643062   0.977   1.843   1.493  0.5273 -0.1684  0.1400
  119MOL   C34743063   0.991   1.762   1.361 -0.5582 -0.1176  0.4711
  119MOL   C34843064   0.854   1.751   1.289  0.2793 -1.1941 -0.4463
  119MOL   C34943065   0.859   1.695   1.142 -0.2498  0.0851  0.2851
  119MOL   C35043066   0.726   1.688   1.074  0.2417  0.2504 -0.4852
  119MOL   O35143067   0.753   1.680   0.937 -0.0510  0.2002  0.0008
  119MOL   H35243068   1.072   1.834   1.546  1.8403  2.2114 -1.7182
  119MOL   H35343069   0.957   1.945   1.460  0.4962  0.2613  1.4495
  119MOL   H35443070   1.024   1.661   1.388 -0.5691  0.1704  1.5406
  119MOL   H35543071   1.070   1.804   1.299 -1.2933 -1.0989 -1.1798
  119MOL   H35643072   0.814   1.849   1.262 -1.1685 -1.2508  1.4258
  119MOL   H35743073   0.777   1.705   1.350 -1.1336  1.0371 -0.5205
  119MOL   H35843074   0.912   1.602   1.121 -2.3014 -1.2056  0.7281
  119MOL   H35943075   0.913   1.773   1.088 -1.0054 -0.9802 -2.0703
  119MOL   H36043076   0.668   1.609   1.123  0.7691  0.3515  0.3172
  119MOL   H36143077   0.660   1.769   1.103 -0.2549 -1.5599  3.8532
  119MOL   H36243078   0.684   1.631   0.896  1.3055 -3.5109  1.8978
  120MOL     C143079   3.116   5.647   2.785  0.3393  0.0571  0.7200
  120MOL     O243080   3.123   5.587   2.895  0.0219 -0.1816  0.0341
  120MOL     C343081   3.029   5.772   2.763  0.1134  0.3126 -0.5985
  120MOL     C443082   2.899   5.770   2.850  0.7955 -0.5068 -0.4884
  120MOL     C543083   2.786   5.666   2.812 -0.6775 -0.5446 -0.3698
  120MOL     C643084   2.694   5.714   2.701  0.1110  0.3758 -0.2877
  120MOL     C743085   2.590   5.605   2.671 -0.1779 -0.6373 -0.2726
  120MOL     O843086   2.659   5.507   2.598  0.6560  0.4410 -0.0572
  120MOL     H943087   3.020   5.778   2.655 -2.6077 -0.2395 -0.4548
  120MOL    H1043088   3.073   5.867   2.790  0.0804  0.4962 -1.1828
  120MOL    H1143089   2.851   5.868   2.843 -1.4683 -1.7036 -2.5922
  120MOL    H1243090   2.933   5.759   2.953  2.5356 -1.3579 -1.1341
  120MOL    H1343091   2.727   5.647   2.902  0.0502 -0.5735  0.1066
  120MOL    H1443092   2.841   5.577   2.784  1.1216  0.2892  0.4298
  120MOL    H1543093   2.737   5.753   2.609 -2.4715  0.8568 -1.3514
  120MOL    H1643094   2.652   5.804   2.747 -1.2768 -0.8770  0.9524
  120MOL    H1743095   2.551   5.567   2.765 -1.7499 -0.7730 -0.9518
  120MOL    H1843096   2.500   5.626   2.613  0.2617 -2.0296 -1.4783
  120MOL    H1943097   3.171   5.610   2.699  0.4856 -0.7109  1.1371
  120MOL    C2043098   2.686   5.391   2.646 -0.1224  0.2878  0.1095
  120MOL    O2143099   2.662   5.353   2.758  0.6176 -0.7116  0.4282
  120MOL    C2243100   2.767   5.312   2.548 -0.2807 -0.0412  0.2753
  120MOL    C2343101   2.916   5.344   2.546  0.2459 -0.0982 -0.1253
  120MOL    C2443102   2.994   5.288   2.663 -0.3108 -0.4076 -0.0690
  120MOL    C2543103   3.148   5.275   2.647 -0.1134 -0.2513  0.0184
  120MOL    C2643104   3.210   5.237   2.783 -0.4981 -0.0375  0.4228
  120MOL    O2743105   3.156   5.115   2.819 -0.0193  0.4147 -0.7344
  120MOL    H2843106   2.727   5.325   2.448  0.0870  3.0678  0.4753
  120MOL    H2943107   2.756   5.205   2.559  2.0536 -0.4873 -1.3977
  120MOL    H3043108   2.939   5.449   2.528  1.5391  0.1380  2.5490
  120MOL    H3143109   2.957   5.284   2.465 -1.2357 -1.8854  0.4177
  120MOL    H3243110   2.951   5.189   2.680  0.3461 -0.3829  1.9743
  120MOL    H3343111   2.962   5.343   2.752  0.4667  0.0877 -0.0958
  120MOL    H3443112   3.181   5.372   2.610 -0.5585 -0.1659 -0.1648
  120MOL    H3543113   3.167   5.203   2.567 -0.2551 -0.4502  0.1625
  120MOL    H3643114   3.318   5.225   2.773 -0.8808 -1.4670 -2.4242
  120MOL    H3743115   3.188   5.326   2.842 -0.7938  0.3560 -0.2800
  120MOL    C3843116   3.193   5.002   2.759 -0.7975  0.2098 -0.5980
  120MOL    O3943117   3.277   4.988   2.671 -0.3330  0.2515 -0.5016
  120MOL    C4043118   3.113   4.881   2.806  0.5216  0.2198  0.4358
  120MOL    C4143119   3.129   4.868   2.957 -0.5140 -0.0419  0.4781
  120MOL    C4243120   3.058   4.746   3.013 -0.2472  1.1101  0.2235
  120MOL    C4343121   3.093   4.717   3.161 -0.3429 -0.4783 -0.0796
  120MOL    C4443122   3.026   4.593   3.205  0.0824 -0.3142  0.2207
  120MOL    O4543123   3.082   4.481   3.146 -0.2133  0.5359 -0.4879
  120MOL    H4643124   3.153   4.796   2.752  1.5800  1.3254 -0.5496
  120MOL    H4743125   3.011   4.899   2.773  0.1837 -1.7094  0.3952
  120MOL    H4843126   3.087   4.957   3.004  0.7642 -0.2620  2.0738
  120MOL    H4943127   3.232   4.871   2.991 -0.1682  1.7549 -0.6944
  120MOL    H5043128   3.081   4.655   2.957  0.3440  1.2767  0.1855
  120MOL    H5143129   2.950   4.758   3.013 -0.4430 -0.4050 -1.1359
  120MOL    H5243130   3.060   4.796   3.228  2.4698  0.4291  0.3157
  120MOL    H5343131   3.201   4.726   3.172 -0.2966 -2.1096  0.8396
  120MOL    H5443132   3.027   4.580   3.313 -2.0718  2.9750  0.7020
  120MOL    H5543133   2.922   4.592   3.172  0.6437  0.0093 -1.5885
  120MOL    C5643134   3.026   4.366   3.137 -0.2202  0.5202 -0.1956
  120MOL    O5743135   2.924   4.330   3.196  0.2325  0.1768  0.0443
  120MOL    C5843136   3.124   4.265   3.077 -0.9138 -0.5254  0.5019
  120MOL    C5943137   3.245   4.245   3.171  0.4338  0.1282  0.3319
  120MOL    C6043138   3.212   4.198   3.317 -0.6646  0.0003 -1.1240
  120MOL    C6143139   3.132   4.067   3.331 -0.4470 -0.0491  0.0300
  120MOL    C6243140   3.134   4.014   3.475  0.7698  0.1352 -0.1723
  120MOL    O6343141   3.259   3.957   3.504 -0.5101 -0.1030 -0.5131
  120MOL    H6443142   3.148   4.292   2.974 -0.6991 -1.3184  0.3446
  120MOL    H6543143   3.065   4.174   3.064 -2.3065  0.6474 -1.7134
  120MOL    H6643144   3.293   4.343   3.178  2.5809 -0.9119  0.6911
  120MOL    H6743145   3.313   4.179   3.116 -0.7222  0.3137 -1.3716
  120MOL    H6843146   3.162   4.277   3.372 -1.2371  0.3726 -2.1715
  120MOL    H6943147   3.304   4.183   3.374 -2.1799  0.0577  1.4552
  120MOL    H7043148   3.174   3.995   3.260  1.5094  0.5633  0.5417
  120MOL    H7143149   3.030   4.077   3.293 -0.5158 -2.1980 -0.4315
  120MOL    H7243150   3.100   4.087   3.549 -1.6549 -0.6118 -0.5056
  120MOL    H7343151   3.059   3.935   3.475 -0.5257  1.3403 -1.2430
  120MOL    C7443152   3.323   3.993   3.624 -0.4963  0.2114 -0.1444
  120MOL    O7543153   3.293   4.085   3.703 -0.9847 -0.1961  0.2111
  120MOL    C7643154   3.455   3.912   3.654  0.6480 -0.0422  0.6724
  120MOL    C7743155   3.553   3.902   3.536 -0.0221 -0.5143 -0.4506
  120MOL    C7843156   3.602   4.047   3.490 -0.2238 -0.4985  1.2004
  120MOL    C7943157   3.696   4.053   3.368  0.1957 -0.1531  0.2103
  120MOL    C8043158   3.774   4.186   3.341 -0.4376 -0.0896 -0.0232
  120MOL    O8143159   3.683   4.290   3.306 -0.0986  0.3851 -0.3076
  120MOL    H8243160   3.433   3.819   3.706 -1.9369  0.3413  0.3435
  120MOL    H8343161   3.513   3.963   3.732  1.7568  0.7640 -0.6592
  120MOL    H8443162   3.504   3.841   3.460 -1.5326 -0.7673  0.7147
  120MOL    H8543163   3.648   3.859   3.564  0.2938  1.1669  1.1625
  120MOL    H8643164   3.639   4.097   3.579  0.2231  2.8462 -0.8050
  120MOL    H8743165   3.515   4.105   3.460 -0.5284 -0.4820  2.0959
  120MOL    H8843166   3.647   4.032   3.273 -0.4445 -0.2012  0.5464
  120MOL    H8943167   3.762   3.968   3.380  1.3757  0.8517  1.0421
  120MOL    H9043168   3.843   4.200   3.424 -0.8258 -0.4584  0.3620
  120MOL    H9143169   3.844   4.171   3.259 -0.2030 -1.2396  0.3745
  120MOL    C9243170   3.661   4.323   3.182 -0.6812 -0.1086 -0.4821
  120MOL    O9343171   3.695   4.259   3.082 -0.5973  0.5227 -0.2303
  120MOL    C9443172   3.594   4.454   3.178  0.8046 -0.1903 -0.6296
  120MOL    C9543173   3.673   4.566   3.241  0.9754  0.1165  0.3733
  120MOL    C9643174   3.802   4.591   3.166 -0.1143 -0.3887  0.5154
  120MOL    C9743175   3.849   4.732   3.214 -0.1225  0.2360  0.2521
  120MOL    C9843176   3.992   4.779   3.168 -0.2072  0.8968  0.4282
  120MOL    O9943177   4.008   4.799   3.029 -0.4638 -0.2878  0.8859
  120MOL   H10043178   3.503   4.435   3.234  1.5132 -2.2761 -0.1423
  120MOL   H10143179   3.560   4.471   3.075 -0.5246 -0.0865 -0.1825
  120MOL   H10243180   3.683   4.559   3.350  0.0904  0.5405  0.4880
  120MOL   H10343181   3.621   4.661   3.228 -0.2752 -0.4772  0.8510
  120MOL   H10443182   3.798   4.567   3.059  1.0080  1.0436  0.1282
  120MOL   H10543183   3.881   4.520   3.191 -0.3603  0.1176  2.8569
  120MOL   H10643184   3.843   4.726   3.322 -2.4141 -4.0280  0.0168
  120MOL   H10743185   3.777   4.810   3.188 -0.9515 -0.7040 -0.3376
  120MOL   H10843186   4.016   4.867   3.227  0.1846 -0.2568  2.0520
  120MOL   H10943187   4.073   4.710   3.196 -1.1697 -0.2140  0.5036
  120MOL   C11043188   3.993   4.919   2.970 -0.8055  0.0834  0.2780
  120MOL   O11143189   3.992   5.024   3.030 -0.9937 -0.1604 -0.1934
  120MOL   C11243190   3.978   4.912   2.824 -0.5954  0.3849  0.2802
  120MOL   C11343191   3.893   4.803   2.765 -0.2479 -0.0866  0.1630
  120MOL   C11443192   3.745   4.808   2.803 -0.0509 -0.6675 -0.2488
  120MOL   C11543193   3.678   4.676   2.750  0.0038 -0.7705  0.0254
  120MOL   C11643194   3.527   4.648   2.797  0.0905 -0.5362 -0.3560
  120MOL   O11743195   3.509   4.505   2.780 -0.1772 -0.2280  0.0479
  120MOL   H11843196   4.082   4.895   2.795 -0.4458 -0.9681  1.5329
  120MOL   H11943197   3.955   5.007   2.775 -3.1939  0.2444  1.1742
  120MOL   H12043198   3.931   4.704   2.793 -0.0249 -0.1175 -0.2489
  120MOL   H12143199   3.900   4.805   2.657  1.2619 -3.2393  0.1414
  120MOL   H12243200   3.692   4.898   2.773  1.5415  0.7377  1.0714
  120MOL   H12343201   3.732   4.819   2.910  0.4649 -0.2366 -0.2298
  120MOL   H12443202   3.737   4.594   2.791  1.1933  0.1050  0.0760
  120MOL   H12543203   3.676   4.659   2.642 -0.4851  0.7086 -0.2121
  120MOL   H12643204   3.508   4.685   2.898  0.2320 -0.3413 -0.4003
  120MOL   H12743205   3.459   4.698   2.728 -0.1650 -1.7226 -0.9900
  120MOL   C12843206   3.379   4.460   2.800 -0.0410  0.0558  0.5375
  120MOL   O12943207   3.285   4.530   2.831  0.2877  0.1224 -0.0231
  120MOL   C13043208   3.378   4.309   2.781 -0.1237  0.1277  0.0307
  120MOL   C13143209   3.442   4.266   2.644 -0.2169  0.2854  0.2476
  120MOL   C13243210   3.512   4.125   2.651  0.3527  0.3906 -0.0010
  120MOL   C13343211   3.665   4.135   2.657 -0.4571  0.4251  0.4433
  120MOL   C13443212   3.748   4.002   2.654 -0.4478  0.3641  0.2479
  120MOL   O13543213   3.718   3.947   2.785 -0.3358  0.0640  0.5079
  120MOL   H13643214   3.275   4.274   2.788  0.0150  0.1233  2.3271
  120MOL   H13743215   3.445   4.270   2.857 -1.1494 -0.2465  0.7619
  120MOL   H13843216   3.524   4.328   2.607  0.8560 -2.0290 -1.3729
  120MOL   H13943217   3.366   4.250   2.568  1.8097 -0.0882 -1.7643
  120MOL   H14043218   3.462   4.068   2.573 -1.2341  1.5528  0.1516
  120MOL   H14143219   3.479   4.073   2.741  2.4743  3.2518  2.5490
  120MOL   H14243220   3.703   4.199   2.736  1.0561 -0.0618  0.1135
  120MOL   H14343221   3.699   4.198   2.576  2.7316  1.7003  2.6896
  120MOL   H14443222   3.711   3.932   2.579  0.8144 -1.1821  1.0252
  120MOL   H14543223   3.856   4.007   2.635 -0.6944 -0.4703 -1.4416
  120MOL   C14643224   3.813   3.940   2.881  0.4233  0.5554 -0.0630
  120MOL   O14743225   3.930   3.955   2.872 -0.4029  0.1037 -0.6827
  120MOL   C14843226   3.754   3.903   3.017  0.2806 -0.5060  0.1868
  120MOL   C14943227   3.763   3.750   3.056  0.2205 -0.9044 -0.4578
  120MOL   C15043228   3.701   3.725   3.193 -0.0685 -0.0199 -0.7385
  120MOL   C15143229   3.701   3.578   3.234 -0.3983 -0.6626  0.5826
  120MOL   C15243230   3.614   3.551   3.359 -0.1766  0.7572  0.2041
  120MOL   O15343231   3.482   3.532   3.313  0.4750  0.3844 -0.2758
  120MOL   H15443232   3.654   3.942   2.999  0.8305  1.2703  0.9168
  120MOL   H15543233   3.806   3.961   3.092 -2.7667 -0.3111  2.2115
  120MOL   H15643234   3.865   3.714   3.045  1.3494  2.3551 -1.1125
  120MOL   H15743235   3.702   3.688   2.990 -2.2628 -0.8797  1.6920
  120MOL   H15843236   3.598   3.761   3.188 -0.6458 -1.4004  0.7985
  120MOL   H15943237   3.742   3.772   3.283 -0.8388 -2.7691  1.1265
  120MOL   H16043238   3.801   3.557   3.273 -0.1795 -0.5270  0.1001
  120MOL   H16143239   3.681   3.515   3.148  1.3222 -0.6759  0.1793
  120MOL   H16243240   3.644   3.457   3.406  1.0480  1.5657  1.0823
  120MOL   H16343241   3.620   3.623   3.441 -1.3030  1.6848 -0.5071
  120MOL   C16443242   3.381   3.570   3.394 -0.5051  0.2025 -0.1145
  120MOL   O16543243   3.390   3.599   3.513 -0.2400 -0.0606 -0.3566
  120MOL   C16643244   3.255   3.580   3.316  0.3971 -0.3913  0.4727
  120MOL   C16743245   3.268   3.712   3.228 -0.1751  0.0734 -0.6063
  120MOL   C16843246   3.162   3.727   3.115 -0.6942  0.5805 -0.2422
  120MOL   C16943247   3.017   3.739   3.177 -0.1354  0.9130  0.0640
  120MOL   C17043248   2.917   3.812   3.088 -0.4562  0.5501  0.3629
  120MOL   O17143249   2.894   3.730   2.975 -0.4693 -0.0071 -0.5225
  120MOL   H17243250   3.170   3.561   3.382 -0.8438 -1.0522 -1.2558
  120MOL   H17343251   3.258   3.486   3.260  0.0943 -0.2948  0.2937
  120MOL   H17443252   3.367   3.724   3.185  1.0529 -0.8771  1.8329
  120MOL   H17543253   3.272   3.796   3.298  0.5560 -0.4841  0.0281
  120MOL   H17643254   3.163   3.640   3.050  1.9388  0.5270 -0.1776
  120MOL   H17743255   3.184   3.820   3.062 -0.9245  1.7771  1.7293
  120MOL   H17843256   3.027   3.802   3.265  0.5877  1.6295 -0.5141
  120MOL   H17943257   2.989   3.639   3.210 -0.1134  1.2213  1.0208
  120MOL   H18043258   2.822   3.821   3.141  1.0321  1.3653  3.0042
  120MOL   H18143259   2.949   3.913   3.062 -1.2119 -0.0683 -3.2837
  120MOL   C18243260   2.773   3.733   2.915  0.5206 -0.5859  0.1230
  120MOL   O18343261   2.672   3.799   2.945 -0.0349 -0.1603 -0.0561
  120MOL   C18443262   2.778   3.646   2.793  0.4254  0.2942  0.6288
  120MOL   C18543263   2.719   3.718   2.671  0.5464  0.3514  0.0856
  120MOL   C18643264   2.754   3.642   2.544 -0.3984 -0.8684 -0.0981
  120MOL   C18743265   2.717   3.723   2.415  0.1399  0.2317  0.2756
  120MOL   C18843266   2.580   3.778   2.414 -0.1968  0.6530 -0.0207
  120MOL   O18943267   2.555   3.835   2.289  0.5496 -0.5554  0.2467
  120MOL   H19043268   2.716   3.557   2.808  0.9319 -0.3279 -0.8964
  120MOL   H19143269   2.882   3.623   2.770  1.0440  0.8218  2.8060
  120MOL   H19243270   2.748   3.823   2.673 -2.3773  1.2118 -0.2555
  120MOL   H19343271   2.610   3.721   2.675  0.4991 -2.3021  3.0962
  120MOL   H19443272   2.699   3.549   2.529  0.1737 -1.2468  0.1052
  120MOL   H19543273   2.862   3.625   2.553 -0.5959 -0.5974  3.7309
  120MOL   H19643274   2.717   3.651   2.334 -1.3459 -1.3114  1.5834
  120MOL   H19743275   2.782   3.810   2.406  1.1242 -0.4769  0.5155
  120MOL   H19843276   2.504   3.706   2.442  0.2531  0.1330 -0.1292
  120MOL   H19943277   2.571   3.864   2.480 -2.4753 -0.4808  1.2095
  120MOL   C20043278   2.507   3.764   2.189 -0.1937  0.1001  0.3758
  120MOL   O20143279   2.472   3.648   2.193 -0.3152  0.0404 -0.1097
  120MOL   C20243280   2.522   3.851   2.061 -0.7964 -1.1094  0.8381
  120MOL   C20343281   2.388   3.851   1.986 -0.4604  0.2230  1.0410
  120MOL   C20443282   2.393   3.911   1.852 -0.5544  0.0589  0.0978
  120MOL   C20543283   2.414   4.065   1.843 -0.0766  0.0716 -0.7184
  120MOL   C20643284   2.396   4.111   1.697 -0.0112  0.2111 -0.1522
  120MOL   O20743285   2.345   4.245   1.688 -0.3293 -0.9942  0.0322
  120MOL   H20843286   2.598   3.802   2.000 -1.8738 -0.0877 -1.3479
  120MOL   H20943287   2.553   3.951   2.092 -1.3695 -1.3415  2.2263
  120MOL   H21043288   2.319   3.915   2.040 -3.2190 -1.0300 -0.8565
  120MOL   H21143289   2.337   3.755   1.977  1.4492 -0.6596 -1.0681
  120MOL   H21243290   2.302   3.883   1.798  0.6233  0.2723 -2.0488
  120MOL   H21343291   2.465   3.860   1.789 -1.3696  0.0472 -0.8401
  120MOL   H21443292   2.512   4.090   1.884 -0.8420  0.2808  1.0035
  120MOL   H21543293   2.350   4.115   1.914  1.2866  0.4325  0.2787
  120MOL   H21643294   2.484   4.087   1.636  0.7945  0.8769  0.7335
  120MOL   H21743295   2.319   4.051   1.650  1.2956 -0.4132 -1.5417
  120MOL   C21843296   2.413   4.348   1.687  0.0991  0.2332 -0.9704
  120MOL   O21943297   2.532   4.349   1.687 -0.5379  0.0611  0.1297
  120MOL   C22043298   2.330   4.472   1.692  0.2260 -0.0883  0.2501
  120MOL   C22143299   2.394   4.598   1.646 -0.2438 -0.1362  0.5606
  120MOL   C22243300   2.494   4.647   1.740  0.1243 -0.5155 -0.5720
  120MOL   C22343301   2.527   4.800   1.718 -0.8230 -0.0465 -0.1779
  120MOL   C22443302   2.648   4.851   1.808 -0.5082 -0.0020  0.0211
  120MOL   O22543303   2.767   4.780   1.775  0.1257  0.3342  0.3472
  120MOL   H22643304   2.277   4.487   1.786  0.7475 -0.7773  0.6608
  120MOL   H22743305   2.244   4.449   1.630 -1.1923  0.3746  2.0084
  120MOL   H22843306   2.309   4.667   1.638 -1.2945 -1.2217  2.0659
  120MOL   H22943307   2.440   4.592   1.547 -0.3442  0.6297  0.4643
  120MOL   H23043308   2.587   4.590   1.748  0.7945  0.5236 -0.7923
  120MOL   H23143309   2.457   4.642   1.843 -0.0640  0.9183 -0.5608
  120MOL   H23243310   2.438   4.860   1.736  0.3403  1.1679  1.7367
  120MOL   H23343311   2.549   4.818   1.613 -0.9744 -1.0448 -0.3860
  120MOL   H23443312   2.653   4.955   1.777 -1.7523 -0.4876 -1.9059
  120MOL   H23543313   2.617   4.838   1.912  1.3748 -2.4690  0.3200
  120MOL   C23643314   2.873   4.787   1.851  0.3291 -0.3656 -0.4981
  120MOL   O23743315   2.888   4.861   1.948  0.0848  0.2318 -0.0067
  120MOL   C23843316   2.975   4.681   1.799 -0.2035  0.0042 -0.2503
  120MOL   C23943317   3.026   4.593   1.909 -0.2025 -0.4825 -0.1232
  120MOL   C24043318   3.142   4.509   1.865  0.3007  0.5540 -0.5379
  120MOL   C24143319   3.186   4.422   1.980 -0.4548 -0.1656 -0.5975
  120MOL   C24243320   3.300   4.322   1.938 -0.7844 -0.2389  0.1341
  120MOL   O24343321   3.422   4.404   1.918 -0.3126  0.2707 -0.0679
  120MOL   H24443322   3.056   4.733   1.747  0.3782  0.2841  0.9133
  120MOL   H24543323   2.934   4.621   1.719  1.9108 -1.9778  0.0988
  120MOL   H24643324   2.948   4.540   1.963  0.9041 -1.1799  0.7978
  120MOL   H24743325   3.070   4.651   1.990 -0.8614 -2.0549  1.3871
  120MOL   H24843326   3.223   4.565   1.819  2.1755 -0.3836  1.5314
  120MOL   H24943327   3.098   4.441   1.793  1.0376 -0.3825 -0.1116
  120MOL   H25043328   3.111   4.362   2.030  0.5550 -0.5282  0.5097
  120MOL   H25143329   3.204   4.494   2.060 -0.5580  0.6154 -1.2677
  120MOL   H25243330   3.312   4.254   2.021 -1.2918 -1.0976 -0.4886
  120MOL   H25343331   3.274   4.265   1.848 -0.9009  1.0691 -0.6864
  120MOL   C25443332   3.508   4.359   1.827  0.2221  0.3523  0.8933
  120MOL   O25543333   3.502   4.250   1.769 -0.0907 -0.5120 -0.1081
  120MOL   C25643334   3.632   4.446   1.808  0.3186  0.7406  0.2126
  120MOL   C25743335   3.760   4.363   1.802 -0.3631 -0.2049 -0.5165
  120MOL   C25843336   3.885   4.445   1.793  0.2871  0.0723  0.2927
  120MOL   C25943337   3.929   4.532   1.915  0.4941 -0.3019 -0.6065
  120MOL   C26043338   4.072   4.594   1.905 -0.0534  0.1849  0.2050
  120MOL   O26143339   4.177   4.495   1.903  0.1839  0.4375 -0.1434
  120MOL   H26243340   3.641   4.511   1.896 -2.2102 -0.3989  1.3700
  120MOL   H26343341   3.617   4.506   1.718  1.1726  0.2138 -0.2872
  120MOL   H26443342   3.759   4.320   1.702  2.1187  1.1042 -1.1306
  120MOL   H26543343   3.782   4.275   1.862 -0.4924  0.6859  0.8510
  120MOL   H26643344   3.871   4.511   1.707 -0.8096 -3.0058 -1.9880
  120MOL   H26743345   3.968   4.379   1.769 -0.2261 -0.2440 -0.6526
  120MOL   H26843346   3.928   4.469   2.004 -0.2311  1.3926  0.6212
  120MOL   H26943347   3.863   4.619   1.923 -1.0160 -1.5054  0.4763
  120MOL   H27043348   4.082   4.656   1.816 -0.0726  1.5798  1.1622
  120MOL   H27143349   4.083   4.655   1.995 -2.4986 -0.2676  0.8511
  120MOL   C27243350   4.290   4.524   1.973 -0.0376 -0.5917  0.1957
  120MOL   O27343351   4.314   4.630   2.040  0.3103 -0.1853 -0.2296
  120MOL   C27443352   4.377   4.401   1.977 -0.5813  0.4457 -0.0506
  120MOL   C27543353   4.431   4.352   1.843  0.1510 -0.5351 -0.5696
  120MOL   C27643354   4.565   4.281   1.859 -0.3605  0.2005  0.2486
  120MOL   C27743355   4.593   4.182   1.742  0.8686 -0.0098  0.2635
  120MOL   C27843356   4.700   4.074   1.763  0.8363  0.1197 -0.0715
  120MOL   O27943357   4.727   4.021   1.631  0.0316  0.2120  0.2491
  120MOL   H28043358   4.314   4.324   2.020 -0.2685 -0.5817 -1.3973
  120MOL   H28143359   4.455   4.409   2.052 -1.2446 -0.0360  0.6987
  120MOL   H28243360   4.444   4.424   1.762 -0.0333  0.7266  0.5012
  120MOL   H28343361   4.362   4.273   1.816 -0.9992 -1.2107  4.0254
  120MOL   H28443362   4.562   4.234   1.957 -1.4092  4.0430  2.1794
  120MOL   H28543363   4.654   4.344   1.869 -0.1754  0.0532 -0.4369
  120MOL   H28643364   4.614   4.239   1.652 -0.4536 -1.4169 -0.9448
  120MOL   H28743365   4.500   4.133   1.713  0.9272  0.1409 -0.1844
  120MOL   H28843366   4.782   4.132   1.804  0.8417 -1.1703  1.8269
  120MOL   H28943367   4.663   4.005   1.839 -0.2540 -0.7662 -1.3757
  120MOL   C29043368   4.698   3.896   1.601  0.0922  0.6179 -0.0675
  120MOL   O29143369   4.646   3.814   1.676  0.6088 -0.0218  0.1674
  120MOL   C29243370   4.745   3.861   1.458 -0.5761  0.3152  0.5632
  120MOL   C29343371   4.895   3.818   1.459  0.7102 -0.5350  0.1731
  120MOL   C29443372   5.003   3.933   1.467  0.0727 -0.0015  0.2025
  120MOL   C29543373   4.991   4.032   1.349 -0.1489  0.6586  0.1800
  120MOL   C29643374   5.101   4.140   1.360 -0.1265 -0.5426 -0.6246
  120MOL   O29743375   5.232   4.089   1.391 -0.4340  0.5039  0.1767
  120MOL   H29843376   4.732   3.941   1.386  0.8841 -0.5511 -0.6993
  120MOL   H29943377   4.680   3.779   1.427  0.3014 -0.8653  1.7426
  120MOL   H30043378   4.917   3.767   1.366  0.3522 -1.3211  0.5077
  120MOL   H30143379   4.911   3.748   1.542  0.3201  0.2714  0.9433
  120MOL   H30243380   5.106   3.900   1.481  1.0444  4.3309  4.5953
  120MOL   H30343381   4.997   4.001   1.552  0.9389  0.8202 -0.3843
  120MOL   H30443382   4.894   4.079   1.332 -0.6129 -0.3648 -0.0712
  120MOL   H30543383   5.008   3.983   1.253 -0.3385 -1.6120  1.2615
  120MOL   H30643384   5.124   4.193   1.267  0.0562 -2.4153 -1.6763
  120MOL   H30743385   5.063   4.209   1.435  2.2252  0.2360 -0.1224
  120MOL   C30843386   5.315   4.173   1.437  0.2953  0.5738  0.0592
  120MOL   O30943387   5.293   4.295   1.453 -0.3366  0.5719 -0.5311
  120MOL   C31043388   5.451   4.107   1.477 -0.6285  0.5510  0.6332
  120MOL   C31143389   5.548   4.101   1.355  0.6719  0.1464  0.3262
  120MOL   C31243390   5.689   4.058   1.383 -0.3665 -0.6759  0.4556
  120MOL   C31343391   5.712   3.926   1.448 -0.0271  0.9310  0.4650
  120MOL   C31443392   5.863   3.875   1.451 -0.5359  0.2065 -1.0256
  120MOL   O31543393   5.892   3.745   1.499 -0.0403 -0.3640 -0.5751
  120MOL   H31643394   5.443   4.002   1.504 -0.5171 -0.2445 -2.1774
  120MOL   H31743395   5.494   4.159   1.562  2.4069  2.0680 -1.7140
  120MOL   H31843396   5.564   4.200   1.314  2.2174 -0.8404 -1.5688
  120MOL   H31943397   5.513   4.039   1.272 -0.1770  1.3427 -0.2238
  120MOL   H32043398   5.738   4.136   1.442 -2.0733  1.8868 -1.4123
  120MOL   H32143399   5.740   4.059   1.287 -0.7778 -1.6720  0.2210
  120MOL   H32243400   5.654   3.859   1.385  0.0665 -0.0584  1.4259
  120MOL   H32343401   5.679   3.920   1.551 -3.1977  0.7393 -0.5034
  120MOL   H32443402   5.898   3.884   1.349  2.5726 -3.3931 -0.3671
  120MOL   H32543403   5.919   3.945   1.512 -0.0525  0.8952 -2.2549
  120MOL   C32643404   5.931   3.639   1.416 -0.2764 -0.2813 -0.1884
  120MOL   O32743405   5.917   3.634   1.294 -0.4751 -0.5333 -0.4054
  120MOL   C32843406   5.964   3.523   1.502  0.7224 -0.2499  0.1405
  120MOL   C32943407   5.910   3.385   1.456 -0.4537 -0.6062  0.5956
  120MOL   C33043408   5.778   3.344   1.507 -0.0692 -0.3202 -0.7124
  120MOL   C33143409   5.712   3.231   1.436  0.2811  0.8223  0.0394
  120MOL   C33243410   5.564   3.210   1.476 -0.6085 -0.7675  0.2967
  120MOL   O33343411   5.546   3.069   1.464  0.2177  0.3621  0.4077
  120MOL   H33443412   5.939   3.539   1.607  0.6581 -0.7549  0.2056
  120MOL   H33543413   6.072   3.522   1.488  0.4872 -0.4347 -1.6598
  120MOL   H33643414   5.979   3.304   1.475 -0.6775 -0.9338  0.0277
  120MOL   H33743415   5.894   3.375   1.348 -2.3959 -0.2866  0.8294
  120MOL   H33843416   5.709   3.428   1.504 -0.6701 -0.8485 -2.5819
  120MOL   H33943417   5.788   3.304   1.607 -1.2722 -0.3428 -0.6005
  120MOL   H34043418   5.777   3.144   1.452  1.6646  1.6433 -0.9961
  120MOL   H34143419   5.707   3.253   1.330 -1.9131 -2.1931 -0.5589
  120MOL   H34243420   5.550   3.257   1.574 -0.2206 -1.2138  0.5663
  120MOL   H34343421   5.505   3.267   1.404  1.5058 -0.1042 -0.9344
  120MOL   C34443422   5.430   3.015   1.516 -0.0992  0.8306  1.0002
  120MOL   O34543423   5.328   3.075   1.542  0.2962 -0.7660  0.8926
  120MOL   C34643424   5.444   2.869   1.544 -0.0068  0.5354  0.3139
  120MOL   C34743425   5.569   2.819   1.621  0.3745  0.3531  0.2202
  120MOL   C34843426   5.533   2.675   1.681 -0.4365 -0.2259 -0.4478
  120MOL   C34943427   5.641   2.639   1.783  0.0028  0.0933 -0.5015
  120MOL   C35043428   5.636   2.493   1.801  0.4569 -0.3832  0.3039
  120MOL   O35143429   5.732   2.455   1.895 -0.9591 -0.2239 -0.5511
  120MOL   H35243430   5.434   2.815   1.450 -0.5925  1.2830 -0.0550
  120MOL   H35343431   5.354   2.838   1.599  0.1007  0.1856  0.2916
  120MOL   H35443432   5.600   2.882   1.703 -0.5890 -0.1420  0.9813
  120MOL   H35543433   5.641   2.810   1.540  0.7762 -1.9631  0.8006
  120MOL   H35643434   5.520   2.597   1.606  0.0161 -1.3858  0.6471
  120MOL   H35743435   5.450   2.685   1.751 -3.3092 -1.9962 -3.5054
  120MOL   H35843436   5.644   2.704   1.870  0.3065 -0.8754  0.2199
  120MOL   H35943437   5.731   2.667   1.729 -0.6965  0.2678 -1.5981
  120MOL   H36043438   5.538   2.458   1.835  0.2094 -1.8708 -1.8317
  120MOL   H36143439   5.656   2.443   1.706  0.0197  1.8629 -1.0143
  120MOL   H36243440   5.788   2.529   1.913 -0.3962 -0.8885  0.4736
  121MOL     C143441   6.948   7.070   4.724 -0.3285  0.0231 -0.1053
  121MOL     O243442   6.902   7.025   4.828 -0.2559  0.1291 -0.3763
  121MOL     C343443   7.097   7.110   4.711  0.2239 -0.2776 -0.4487
  121MOL     C443444   7.169   7.070   4.846  0.0404  0.4220 -0.1815
  121MOL     C543445   7.314   7.071   4.826  0.9558  0.0854 -0.5947
  121MOL     C643446   7.394   7.036   4.953 -0.1585 -0.0187 -0.0765
  121MOL     C743447   7.546   7.026   4.928  0.4635 -0.1019 -0.2026
  121MOL     O843448   7.600   6.969   5.043 -0.8966 -0.3046 -0.3961
  121MOL     H943449   7.108   7.218   4.697  0.1673 -0.3596 -1.1311
  121MOL    H1043450   7.141   7.052   4.631  0.5185 -0.0289 -0.4683
  121MOL    H1143451   7.138   6.969   4.870  0.8933 -0.2097 -1.7114
  121MOL    H1243452   7.140   7.130   4.933 -0.3010  0.5120 -0.3536
  121MOL    H1343453   7.342   7.172   4.794  2.5834  0.3000  1.3503
  121MOL    H1443454   7.342   6.999   4.750  0.1069  0.4740 -1.2892
  121MOL    H1543455   7.359   6.944   4.999 -0.9393  0.1787 -0.2722
  121MOL    H1643456   7.373   7.115   5.025 -1.3177 -1.4792  1.1937
  121MOL    H1743457   7.558   6.966   4.838  2.7356 -3.5810  2.2950
  121MOL    H1843458   7.584   7.127   4.912 -0.9412  0.0665 -2.8736
  121MOL    H1943459   6.890   7.063   4.632 -1.6992  2.4886  0.5235
  121MOL    C2043460   7.700   7.020   5.104 -0.8368  0.6846 -0.3222
  121MOL    O2143461   7.775   7.106   5.065 -0.2105 -0.3514  0.3873
  121MOL    C2243462   7.732   6.952   5.241  0.2579 -0.3900 -0.5088
  121MOL    C2343463   7.810   6.821   5.219  0.2663 -0.4001 -0.2379
  121MOL    C2443464   7.839   6.733   5.345 -0.1932 -0.5419 -0.2055
  121MOL    C2543465   0.083   6.609   5.311  0.1581  0.4675  0.3074
  121MOL    C2643466   0.134   6.530   5.431 -0.2698  0.6901 -0.4785
  121MOL    O2743467   0.248   6.601   5.487 -0.4711  0.5069  0.1999
  121MOL    H2843468   7.639   6.932   5.295  0.8131  2.4811  1.6406
  121MOL    H2943469   7.777   7.026   5.307 -2.0279 -0.5845  1.3186
  121MOL    H3043470   0.063   6.841   5.174 -0.0811 -2.8217 -2.1406
  121MOL    H3143471   7.762   6.767   5.138 -0.1837 -0.0848 -0.1857
  121MOL    H3243472   7.750   6.696   5.395  0.8703 -2.1793  0.5136
  121MOL    H3343473   0.043   6.789   5.425 -0.9968 -0.4613  0.2316
  121MOL    H3443474   0.168   6.646   5.253 -1.2814  0.6952 -1.6999
  121MOL    H3543475   0.026   6.545   5.244  0.5457  0.9198 -0.4687
  121MOL    H3643476   0.052   6.538   5.502  0.5370 -0.2712  0.5756
  121MOL    H3743477   0.149   6.426   5.402 -1.3420  1.1056 -2.6777
  121MOL    C3843478   0.323   6.537   5.570  0.6044 -0.4126  0.3575
  121MOL    O3943479   0.318   6.416   5.595 -0.0676  0.0595  0.0351
  121MOL    C4043480   0.425   6.638   5.636  0.6166  0.1206  0.5647
  121MOL    C4143481   0.532   6.568   5.732 -0.4158  0.3636  0.4303
  121MOL    C4243482   0.465   6.517   5.858 -0.5769  0.2912  0.2356
  121MOL    C4343483   0.558   6.429   5.954  0.0608  0.8156 -0.1620
  121MOL    C4443484   0.485   6.383   6.085 -0.5445 -1.0610 -0.3607
  121MOL    O4543485   0.579   6.306   6.157  0.3481  0.1039 -0.3033
  121MOL    H4643486   0.382   6.714   5.701 -0.7575 -0.2361  0.0795
  121MOL    H4743487   0.484   6.691   5.561  0.6363  1.1325  1.2766
  121MOL    H4843488   0.619   6.630   5.753  2.4043 -3.3679  0.3961
  121MOL    H4943489   0.581   6.483   5.683 -0.9022 -0.9471  2.1393
  121MOL    H5043490   0.383   6.456   5.819  1.6611 -1.4124 -1.9220
  121MOL    H5143491   0.420   6.596   5.919  0.1154  0.5574  0.4007
  121MOL    H5243492   0.654   6.469   5.985 -0.1754  0.1783  1.4870
  121MOL    H5343493   0.598   6.342   5.903  0.7262  0.5143  0.8549
  121MOL    H5443494   0.453   6.466   6.148 -3.3655 -1.0915 -1.6567
  121MOL    H5543495   0.396   6.322   6.071 -1.5747  0.0609  1.1345
  121MOL    C5643496   0.590   6.174   6.143  0.1054  0.0599  0.4712
  121MOL    O5743497   0.514   6.112   6.060 -0.6508 -0.3320  0.1665
  121MOL    C5843498   0.708   6.117   6.219 -0.2299 -1.1749  0.1669
  121MOL    C5943499   0.830   6.069   6.137 -0.1024 -0.0361  0.1134
  121MOL    C6043500   0.819   5.917   6.127 -0.1777  0.3322  0.0317
  121MOL    C6143501   0.914   5.851   6.020 -0.3176  0.1768 -0.3808
  121MOL    C6243502   0.868   5.716   5.969  0.0707 -0.5581 -0.2295
  121MOL    O6343503   0.832   5.622   6.070  0.0035 -0.2039  0.3840
  121MOL    H6443504   0.680   6.032   6.281  3.1370 -0.7022  2.4519
  121MOL    H6543505   0.729   6.191   6.296  0.5913 -1.9317  0.6796
  121MOL    H6643506   0.920   6.101   6.189  1.2003 -3.0417 -0.1855
  121MOL    H6743507   0.826   6.116   6.039 -1.8510 -2.4294 -1.0041
  121MOL    H6843508   0.719   5.885   6.097 -0.0850 -0.7935  0.8865
  121MOL    H6943509   0.823   5.871   6.226 -1.9028  2.7289  1.2672
  121MOL    H7043510   1.014   5.843   6.063 -0.4099 -1.0469 -0.3892
  121MOL    H7143511   0.930   5.918   5.936  3.3106  0.0726  0.1464
  121MOL    H7243512   0.786   5.737   5.901 -0.6353 -1.5808  0.2984
  121MOL    H7343513   0.941   5.676   5.899  0.0854  1.6110 -1.5166
  121MOL    C7443514   0.818   5.495   6.032  0.0133  0.1615 -0.0077
  121MOL    O7543515   0.809   5.451   5.916 -0.4768  1.2995  0.5948
  121MOL    C7643516   0.799   5.403   6.158  0.5140  0.3569  0.4281
  121MOL    C7743517   0.846   5.257   6.131  0.1633 -1.1868  1.0701
  121MOL    C7843518   0.756   5.149   6.060  0.2017  0.0235 -0.1167
  121MOL    C7943519   0.840   5.039   6.000 -0.4352 -0.3246 -0.5072
  121MOL    C8043520   0.754   4.912   5.970  0.4687 -0.4016  0.2886
  121MOL    O8143521   0.668   4.954   5.868 -0.2839  0.5061  0.0225
  121MOL    H8243522   0.696   5.404   6.195  1.0230 -1.3547  1.9385
  121MOL    H8343523   0.851   5.445   6.244  1.8176 -0.7613  0.1926
  121MOL    H8443524   0.879   5.228   6.231  0.1660 -1.4323  0.9966
  121MOL    H8543525   0.938   5.258   6.074  0.7249  0.4679  1.9675
  121MOL    H8643526   0.675   5.187   5.998  0.8830  1.1700 -0.3143
  121MOL    H8743527   0.705   5.116   6.150 -0.4497  0.9419 -0.1414
  121MOL    H8843528   0.916   5.004   6.071 -0.2451  4.2861  1.7636
  121MOL    H8943529   0.894   5.069   5.911 -0.3935  0.6401 -0.1643
  121MOL    H9043530   0.818   4.831   5.934  0.4682 -0.1648 -0.2496
  121MOL    H9143531   0.688   4.881   6.050 -0.3374 -0.7629 -0.5093
  121MOL    C9243532   0.573   4.871   5.829  0.4780 -0.3897  0.6675
  121MOL    O9343533   0.548   4.770   5.889  0.2678 -0.3831  0.0436
  121MOL    C9443534   0.493   4.925   5.707 -0.1363  0.0040  0.5103
  121MOL    C9543535   0.425   5.057   5.742 -1.0221  0.3205 -0.5829
  121MOL    C9643536   0.320   5.096   5.642  0.2003 -0.2499  0.0598
  121MOL    C9743537   0.243   5.224   5.684  0.1419 -0.7931  0.0169
  121MOL    C9843538   0.150   5.264   5.571  0.1432 -0.9385 -0.4879
  121MOL    O9943539   0.108   5.395   5.587  0.2478 -0.3979  0.4933
  121MOL   H10043540   0.415   4.854   5.678 -0.8854  1.0660 -0.0974
  121MOL   H10143541   0.559   4.942   5.622 -0.7687 -3.1015 -0.7099
  121MOL   H10243542   0.494   5.140   5.755  2.5646 -2.4586 -1.0277
  121MOL   H10343543   0.378   5.052   5.839 -0.7587 -1.1875 -0.5229
  121MOL   H10443544   0.259   5.017   5.600 -1.6126  1.3738 -0.4359
  121MOL   H10543545   0.376   5.124   5.553  1.4068 -2.7299  0.0122
  121MOL   H10643546   0.312   5.307   5.704  0.1138 -0.7208 -0.1829
  121MOL   H10743547   0.194   5.211   5.780 -1.6587  1.4335 -0.5424
  121MOL   H10843548   0.196   5.248   5.474  1.4184  0.4420 -0.1307
  121MOL   H10943549   0.064   5.196   5.574 -1.1357  0.6616 -0.4634
  121MOL   C11043550   0.008   5.443   5.519 -0.4110 -0.0070 -0.3869
  121MOL   O11143551   7.791   5.382   5.431  0.2359 -0.4596 -0.3165
  121MOL   C11243552   7.816   5.586   5.560 -0.7151  0.4301 -0.2032
  121MOL   C11343553   7.786   5.594   5.712  0.2962 -0.9041 -0.0148
  121MOL   C11443554   7.654   5.534   5.760 -0.1416  0.0847 -0.0778
  121MOL   C11543555   7.638   5.538   5.912  0.0483 -0.5304 -1.0877
  121MOL   C11643556   7.507   5.489   5.968  0.3791 -0.1861  1.0913
  121MOL   O11743557   7.391   5.565   5.924  0.1795 -0.7426 -0.0375
  121MOL   H11843558   7.729   5.619   5.503 -1.1151  2.1213  1.3341
  121MOL   H11943559   0.054   5.655   5.543 -0.6765  0.4758  0.1603
  121MOL   H12043560   7.783   5.700   5.737 -1.1444 -0.7189 -0.9130
  121MOL   H12143561   0.027   5.556   5.769 -0.3390  2.4968  3.3939
  121MOL   H12243562   7.656   5.429   5.732  0.9327  0.7307 -2.5270
  121MOL   H12343563   7.568   5.569   5.703 -0.5408 -2.0445 -0.8321
  121MOL   H12443564   7.659   5.638   5.951 -0.7297 -2.1794  3.9521
  121MOL   H12543565   7.717   5.470   5.946 -0.7357 -1.6533 -1.4735
  121MOL   H12643566   7.489   5.389   5.931 -2.2282  0.0584  1.5625
  121MOL   H12743567   7.499   5.481   6.076  1.1342 -0.3337  1.1346
  121MOL   C12843568   7.279   5.505   5.882 -0.8080  0.1067  0.1642
  121MOL   O12943569   7.262   5.381   5.893  0.3638  0.6429 -0.1488
  121MOL   C13043570   7.170   5.597   5.839  0.6288  0.2013  0.5619
  121MOL   C13143571   7.032   5.532   5.830 -0.3233 -0.1843  0.0925
  121MOL   C13243572   7.010   5.426   5.721 -0.4938  0.1739 -0.7105
  121MOL   C13343573   6.864   5.387   5.708  0.2681 -0.1634  0.7194
  121MOL   C13443574   6.841   5.251   5.631 -0.0719 -0.4280 -0.1572
  121MOL   O13543575   6.894   5.267   5.500  0.0556 -0.8237 -0.1901
  121MOL   H13643576   7.183   5.634   5.737  0.6695  1.8862  1.1627
  121MOL   H13743577   7.166   5.676   5.914  1.9753  1.1312 -0.3415
  121MOL   H13843578   6.954   5.608   5.825  0.0154  0.1835  0.4527
  121MOL   H13943579   7.016   5.485   5.927 -0.5088  2.3452  1.3422
  121MOL   H14043580   7.066   5.333   5.718  0.1174  0.5205 -0.0986
  121MOL   H14143581   7.029   5.475   5.625  0.3853 -0.4390 -0.8506
  121MOL   H14243582   6.803   5.475   5.687 -0.0799  0.2794  3.3199
  121MOL   H14343583   6.823   5.364   5.807 -2.2071  0.6981 -0.0793
  121MOL   H14443584   6.897   5.169   5.676  1.1695  0.1078 -0.7094
  121MOL   H14543585   6.735   5.224   5.629 -0.2487  0.2294 -3.2370
  121MOL   C14643586   6.837   5.206   5.392  0.1052  0.1974  0.0161
  121MOL   O14743587   6.738   5.136   5.392 -0.3049  0.1393 -0.0051
  121MOL   C14843588   6.899   5.250   5.259  0.8383  0.3665 -0.4019
  121MOL   C14943589   7.043   5.216   5.251 -0.2369 -0.0677  0.0741
  121MOL   C15043590   7.106   5.246   5.109  0.0106  0.0357 -0.4349
  121MOL   C15143591   7.124   5.397   5.091 -0.2478 -0.3195 -0.3904
  121MOL   C15243592   7.149   5.412   4.940  0.5985  0.2624  0.6528
  121MOL   O15343593   7.024   5.380   4.872  0.3847 -0.2390 -0.3549
  121MOL   H15443594   6.868   5.351   5.233 -0.5871  0.3928  1.2694
  121MOL   H15543595   6.851   5.192   5.180 -0.8614  0.0866  0.7978
  121MOL   H15643596   7.050   5.111   5.277 -0.6251 -0.4350 -1.2711
  121MOL   H15743597   7.103   5.266   5.328  0.5434  1.1803 -1.3259
  121MOL   H15843598   7.036   5.211   5.032 -0.1620  1.3107 -0.8767
  121MOL   H15943599   7.192   5.183   5.088  0.6829  1.3097 -1.5936
  121MOL   H16043600   7.214   5.428   5.145 -0.7573 -1.6364  1.2638
  121MOL   H16143601   7.045   5.458   5.133  0.9031  0.5631  0.5413
  121MOL   H16243602   7.183   5.512   4.915  0.6423  0.3949  1.2605
  121MOL   H16343603   7.211   5.337   4.891  0.1549  1.5952 -2.0532
  121MOL   C16443604   6.967   5.463   4.777 -0.3592  0.6557 -0.1269
  121MOL   O16543605   7.008   5.579   4.751  0.0656 -0.0003  0.1950
  121MOL   C16643606   6.849   5.394   4.703  0.3504  0.4532 -0.5092
  121MOL   C16743607   6.721   5.401   4.794 -0.1502 -0.4239 -0.8033
  121MOL   C16843608   6.613   5.312   4.738 -0.0675  0.6012 -0.3327
  121MOL   C16943609   6.477   5.317   4.803  0.0481 -0.0710  0.2285
  121MOL   C17043610   6.471   5.288   4.958  0.1266  0.4688  0.3213
  121MOL   O17143611   6.572   5.185   4.979  0.4574  0.2934  0.3422
  121MOL   H17243612   6.866   5.290   4.676 -1.5247 -0.2874  1.0135
  121MOL   H17343613   6.811   5.457   4.622 -1.9814 -0.8709 -0.4957
  121MOL   H17443614   6.685   5.503   4.797  1.1912  0.0514 -0.3095
  121MOL   H17543615   6.735   5.376   4.900 -0.6680 -0.7512 -0.8112
  121MOL   H17643616   6.663   5.215   4.739 -2.0665 -0.4505  1.6484
  121MOL   H17743617   6.597   5.333   4.632  0.0936  1.1193 -0.2523
  121MOL   H17843618   6.406   5.248   4.758 -0.2390  1.7014 -2.1485
  121MOL   H17943619   6.434   5.416   4.788  1.7309  0.8453  1.3345
  121MOL   H18043620   6.502   5.371   5.022 -0.9182 -0.0777  1.5758
  121MOL   H18143621   6.370   5.259   4.988  0.6117 -1.2032  0.3881
  121MOL   C18243622   6.541   5.087   5.067  0.6394  0.0710 -0.8109
  121MOL   O18343623   6.433   5.065   5.115  0.1739 -0.5069  0.1201
  121MOL   C18443624   6.652   4.988   5.084  0.4093  0.3799 -0.1280
  121MOL   C18543625   6.656   4.865   4.994  0.5664 -0.2342  0.0557
  121MOL   C18643626   6.523   4.791   4.970  0.5906  0.4018  0.2904
  121MOL   C18743627   6.549   4.650   4.955  0.0967 -0.7000 -0.2888
  121MOL   C18843628   6.411   4.589   4.934 -0.3391 -0.0339  0.1488
  121MOL   O18943629   6.412   4.453   4.905 -0.0862 -0.3405  0.1687
  121MOL   H19043630   6.639   4.956   5.187 -0.2906  0.9904 -0.0257
  121MOL   H19143631   6.749   5.038   5.080  1.1096 -0.8577  0.9171
  121MOL   H19243632   6.721   4.793   5.044  2.0475  1.6030  0.8115
  121MOL   H19343633   6.703   4.883   4.898 -0.9793  0.7693 -0.5230
  121MOL   H19443634   6.462   4.827   4.887 -0.9172 -1.9477  0.2973
  121MOL   H19543635   6.466   4.811   5.061 -1.2605  0.8997 -0.9532
  121MOL   H19643636   6.586   4.600   5.045  2.3834  0.0427 -0.7751
  121MOL   H19743637   6.622   4.626   4.877  0.2365  1.4648 -0.8469
  121MOL   H19843638   6.354   4.596   5.027  0.2892 -2.0667  0.7029
  121MOL   H19943639   6.362   4.652   4.860  1.4259  0.9787 -0.2052
  121MOL   C20043640   6.461   4.422   4.784 -0.2110 -0.2751  0.0764
  121MOL   O20143641   6.477   4.502   4.690  0.1199 -0.1599 -0.3469
  121MOL   C20243642   6.489   4.269   4.767  0.0135 -1.0725  0.0645
  121MOL   C20343643   6.621   4.225   4.830 -0.7624 -0.0522  0.1289
  121MOL   C20443644   6.742   4.296   4.755  0.1659 -0.0667  0.1612
  121MOL   C20543645   6.765   4.257   4.610  0.0858  0.6550  0.1429
  121MOL   C20643646   6.885   4.335   4.562  0.7937  0.8524  0.3956
  121MOL   O20743647   7.012   4.286   4.599 -0.1588  0.5530 -0.4928
  121MOL   H20843648   6.489   4.248   4.660  0.6076  1.7813 -0.5398
  121MOL   H20943649   6.406   4.215   4.813  0.2843 -0.5000  1.2650
  121MOL   H21043650   6.634   4.117   4.838 -1.1427 -0.0297  1.1910
  121MOL   H21143651   6.627   4.257   4.935  0.9745  0.8873 -0.2412
  121MOL   H21243652   6.826   4.261   4.814  0.0663  0.1123  0.4118
  121MOL   H21343653   6.736   4.402   4.780  1.8765  0.8368 -3.1039
  121MOL   H21443654   6.678   4.288   4.553 -0.5187  0.7175  1.0869
  121MOL   H21543655   6.781   4.149   4.612 -0.9294  0.4963 -0.2985
  121MOL   H21643656   6.881   4.330   4.453  0.8323 -0.0582  0.4306
  121MOL   H21743657   6.877   4.442   4.582 -0.5438  1.2131 -1.9811
  121MOL   C21843658   7.067   4.198   4.513  0.0030  0.0282  0.6252
  121MOL   O21943659   7.010   4.138   4.424 -0.5114  0.5464  0.9553
  121MOL   C22043660   7.214   4.179   4.531 -0.1135  0.0481  0.0082
  121MOL   C22143661   7.275   4.091   4.417 -0.3847 -0.5600  0.0079
  121MOL   C22243662   7.286   4.163   4.276  0.2115  0.1016  0.1559
  121MOL   C22343663   7.384   4.104   4.178 -0.0561 -0.1046  0.7767
  121MOL   C22443664   7.362   4.168   4.043  0.1930  0.0259 -0.5205
  121MOL   O22543665   7.438   4.111   3.942 -0.5049  0.1934  0.1435
  121MOL   H22643666   7.219   4.119   4.622 -1.3717 -0.5180 -0.2754
  121MOL   H22743667   7.268   4.274   4.533 -1.7437  1.0526 -1.6042
  121MOL   H22843668   7.226   3.993   4.416 -0.9927 -0.2650 -3.3246
  121MOL   H22943669   7.377   4.060   4.440 -0.5730 -1.0520  0.2096
  121MOL   H23043670   7.308   4.269   4.289  1.1927 -0.2392  1.3015
  121MOL   H23143671   7.182   4.174   4.247  0.6343  2.7276 -0.5177
  121MOL   H23243672   7.369   3.996   4.178 -0.0456 -0.1036  0.1958
  121MOL   H23343673   7.487   4.119   4.211  0.7893 -1.1749 -1.3072
  121MOL   H23443674   7.260   4.148   4.012 -0.7043  1.1198  1.5934
  121MOL   H23543675   7.384   4.274   4.054 -2.1110  0.3839  0.9386
  121MOL   C23643676   7.444   4.183   3.824 -0.7495 -0.2008 -0.0028
  121MOL   O23743677   7.406   4.300   3.813  0.3591  0.7635 -0.3921
  121MOL   C23843678   7.503   4.117   3.708 -0.1266  0.6411  0.1087
  121MOL   C23943679   7.517   4.193   3.575 -0.1770  0.0839 -1.1322
  121MOL   C24043680   7.391   4.206   3.491 -0.7065 -0.5577  0.0067
  121MOL   C24143681   7.403   4.316   3.381 -0.3908  0.0558 -0.0441
  121MOL   C24243682   7.507   4.302   3.273 -0.1000 -0.6707  0.1028
  121MOL   O24343683   7.468   4.381   3.157 -0.1413 -0.5001  0.5995
  121MOL   H24443684   7.471   4.013   3.698  2.4723 -0.2874  0.8973
  121MOL   H24543685   7.609   4.100   3.731  0.2382  1.5446 -0.9041
  121MOL   H24643686   7.595   4.139   3.520 -0.8432 -1.7647 -0.2895
  121MOL   H24743687   7.562   4.292   3.579  0.7765 -0.3899  0.1751
  121MOL   H24843688   7.305   4.234   3.553  0.7536 -0.0317  1.8421
  121MOL   H24943689   7.360   4.113   3.444 -1.8703  0.6263 -1.5964
  121MOL   H25043690   7.405   4.421   3.412  1.8455  0.3916 -1.1923
  121MOL   H25143691   7.312   4.301   3.324 -0.5581 -1.2643  0.5529
  121MOL   H25243692   7.605   4.329   3.313  0.2674 -0.4357 -0.9466
  121MOL   H25343693   7.526   4.197   3.253 -3.5521 -1.1502 -0.9498
  121MOL   C25443694   7.543   4.402   3.048 -0.7107  0.4351  0.3558
  121MOL   O25543695   7.643   4.336   3.020  0.5667  0.1840 -0.2087
  121MOL   C25643696   7.495   4.506   2.950 -0.2114  0.0002  0.1177
  121MOL   C25743697   7.408   4.624   3.013 -0.2972  0.1219  0.0434
  121MOL   C25843698   7.331   4.694   2.900 -0.1452 -0.2585 -0.4133
  121MOL   C25943699   7.232   4.797   2.945  0.1489 -0.6142 -0.0854
  121MOL   C26043700   7.175   4.850   2.811 -0.6134 -0.0274 -0.1639
  121MOL   O26143701   7.057   4.912   2.842  0.4191 -0.3236 -0.3954
  121MOL   H26243702   7.438   4.450   2.876 -0.0181 -0.2570  0.1610
  121MOL   H26343703   7.581   4.550   2.899  1.0367 -2.6166 -0.1177
  121MOL   H26443704   7.484   4.692   3.051 -1.2149  1.0340  0.2526
  121MOL   H26543705   7.343   4.588   3.092  0.3128  0.9607  0.9422
  121MOL   H26643706   7.276   4.617   2.846 -0.1121 -1.0780  0.7104
  121MOL   H26743707   7.402   4.735   2.828  1.0674  1.1633  1.5686
  121MOL   H26843708   7.277   4.880   3.000  0.6597 -0.2509 -1.0470
  121MOL   H26943709   7.153   4.748   3.003 -1.4500  0.3499 -1.3789
  121MOL   H27043710   7.237   4.922   2.757  0.4378  0.1768  1.2971
  121MOL   H27143711   7.149   4.769   2.743  2.4457 -0.8642 -0.4211
  121MOL   C27243712   6.969   4.941   2.747  0.0697 -0.0804 -0.5260
  121MOL   O27343713   6.984   4.932   2.627  0.0531  0.3838  0.5182
  121MOL   C27443714   6.838   5.008   2.811  0.0072  0.6611 -0.2942
  121MOL   C27543715   6.849   5.138   2.889 -0.2938  0.2322 -0.5795
  121MOL   C27643716   6.709   5.176   2.944  0.2861  0.0505 -0.1268
  121MOL   C27743717   6.693   5.275   3.057 -1.1488 -0.1010 -0.0824
  121MOL   C27843718   6.658   5.418   3.003 -0.6671 -0.7178 -0.2251
  121MOL   O27943719   6.643   5.511   3.115  0.5682  0.1939  0.1284
  121MOL   H28043720   6.795   4.938   2.883  1.3105  1.2501  1.0825
  121MOL   H28143721   6.765   5.008   2.730  0.5456 -2.1472 -0.8397
  121MOL   H28243722   6.885   5.228   2.839  3.8127 -1.7013 -1.2861
  121MOL   H28343723   6.917   5.120   2.972 -1.3042 -1.0451 -0.0044
  121MOL   H28443724   6.669   5.080   2.978 -0.6478 -0.0123 -1.3675
  121MOL   H28543725   6.633   5.205   2.872  0.6591  0.2868 -0.4236
  121MOL   H28643726   6.791   5.295   3.101 -1.4145 -0.3838  0.6536
  121MOL   H28743727   6.624   5.241   3.134  2.3743 -2.1273  2.3696
  121MOL   H28843728   6.741   5.455   2.943  0.1857 -1.0026  0.7695
  121MOL   H28943729   6.560   5.409   2.957 -1.2363  0.4583  0.7281
  121MOL   C29043730   6.553   5.606   3.110  0.0752  0.3640 -0.3590
  121MOL   O29143731   6.469   5.611   3.022  0.6003 -0.2360  0.0331
  121MOL   C29243732   6.546   5.703   3.231 -0.0316 -0.0326  0.0827
  121MOL   C29343733   6.505   5.629   3.364  0.5865 -0.3952  1.3302
  121MOL   C29443734   6.625   5.567   3.444  0.6412 -0.2311  0.9608
  121MOL   C29543735   6.571   5.492   3.571 -0.0474  0.3736  0.0714
  121MOL   C29643736   6.670   5.383   3.616  0.1987  0.5193 -0.1100
  121MOL   O29743737   6.785   5.446   3.673  0.0289  0.7239  0.1477
  121MOL   H29843738   6.492   5.796   3.209  0.7093  0.2144 -0.7139
  121MOL   H29943739   6.645   5.746   3.246 -0.5456  1.4785 -0.7585
  121MOL   H30043740   6.421   5.570   3.329 -0.4893 -1.1743  5.0194
  121MOL   H30143741   6.449   5.689   3.436 -1.3495  1.2063 -1.4374
  121MOL   H30243742   6.694   5.649   3.464 -0.2420  0.4331  1.3425
  121MOL   H30343743   6.677   5.495   3.381 -0.3689  0.0438 -0.2218
  121MOL   H30443744   6.480   5.437   3.547  0.4756  0.4395 -2.1838
  121MOL   H30543745   6.541   5.562   3.649 -1.0594 -0.0071  0.0236
  121MOL   H30643746   6.618   5.315   3.684  0.6061  1.0777  0.7650
  121MOL   H30743747   6.713   5.325   3.534 -1.9603  0.4170 -1.1945
  121MOL   C30843748   6.869   5.373   3.736  0.6217 -0.3171 -0.8308
  121MOL   O30943749   6.846   5.254   3.760 -0.3311  0.0933 -0.5262
  121MOL   C31043750   6.980   5.451   3.797  0.3715  0.4943 -0.0093
  121MOL   C31143751   7.092   5.364   3.864 -0.0126 -0.3444  0.3154
  121MOL   C31243752   7.185   5.295   3.763 -0.0286 -0.0770 -0.2699
  121MOL   C31343753   7.277   5.193   3.828 -0.6639  0.2675  0.4063
  121MOL   C31443754   7.361   5.124   3.718  0.7747  0.0582 -0.2565
  121MOL   O31543755   7.440   5.016   3.763 -0.1417 -0.0376 -0.1706
  121MOL   H31643756   6.938   5.514   3.875 -0.0806 -0.6169  0.6409
  121MOL   H31743757   7.026   5.525   3.731 -1.0598  1.4624  0.0425
  121MOL   H31843758   7.040   5.274   3.897 -0.2686 -0.7208 -1.0671
  121MOL   H31943759   7.141   5.411   3.949  0.0018  0.6458 -0.2337
  121MOL   H32043760   7.256   5.358   3.709  2.0231 -1.1281  1.1634
  121MOL   H32143761   7.124   5.251   3.685 -0.2313  0.8740 -0.6614
  121MOL   H32243762   7.219   5.118   3.882 -0.9902 -0.6283 -1.1581
  121MOL   H32343763   7.342   5.235   3.906 -0.5468 -0.9540  0.9815
  121MOL   H32443764   7.306   5.086   3.632  0.9954  0.3914 -0.5487
  121MOL   H32543765   7.420   5.204   3.673 -2.0472  2.6942  0.5593
  121MOL   C32643766   7.397   4.892   3.774 -0.0809 -0.0183  0.3164
  121MOL   O32743767   7.288   4.850   3.730 -0.2315  0.1292 -0.1545
  121MOL   C32843768   7.492   4.795   3.853  0.4343  0.5523  0.0766
  121MOL   C32943769   7.426   4.658   3.889 -0.3621 -0.1526  0.1216
  121MOL   C33043770   7.310   4.676   4.003  0.1734  0.1181 -0.1013
  121MOL   C33143771   7.251   4.547   4.046 -0.0177  0.5513  1.3492
  121MOL   C33243772   7.153   4.576   4.161  0.4602  0.2894 -0.1862
  121MOL   O33343773   7.231   4.620   4.275  0.2571  0.1888 -0.0909
  121MOL   H33443774   7.510   4.841   3.951 -0.1840 -3.3561  2.1169
  121MOL   H33543775   7.589   4.779   3.806  0.4861  1.0053  0.0204
  121MOL   H33643776   7.502   4.590   3.927 -0.5579 -0.0897  0.6282
  121MOL   H33743777   7.392   4.603   3.801  0.2338  0.8439 -0.7512
  121MOL   H33843778   7.234   4.753   3.991  0.1740  0.0273 -0.7076
  121MOL   H33943779   7.368   4.714   4.087  0.7441 -0.5627 -0.1804
  121MOL   H34043780   7.323   4.469   4.070 -0.2911  0.9631  3.6536
  121MOL   H34143781   7.194   4.504   3.963  1.2843  0.2601  0.5921
  121MOL   H34243782   7.081   4.647   4.120 -0.3948  0.0900  0.9527
  121MOL   H34343783   7.106   4.487   4.202  1.1798  0.3752  0.8626
  121MOL   C34443784   7.164   4.660   4.385  0.0668  0.1494 -0.3413
  121MOL   O34543785   7.047   4.656   4.398  0.3931  0.2666  0.0257
  121MOL   C34643786   7.250   4.716   4.498  0.4103 -0.4162  0.6414
  121MOL   C34743787   7.397   4.673   4.496  0.2714  0.3386 -0.3475
  121MOL   C34843788   7.420   4.520   4.545 -0.6092  0.0765  0.4494
  121MOL   C34943789   7.568   4.475   4.550  0.4227 -0.3871 -0.2882
  121MOL   C35043790   7.580   4.331   4.608 -0.8454  0.0885  0.1230
  121MOL   O35143791   7.712   4.291   4.577  0.1397 -0.2101  0.1737
  121MOL   H35243792   7.194   4.712   4.592  1.4577 -0.9047  1.2577
  121MOL   H35343793   7.250   4.820   4.466 -0.0843 -0.5189  0.2942
  121MOL   H35443794   7.445   4.744   4.564 -1.7400  2.1781 -0.7881
  121MOL   H35543795   7.448   4.687   4.401  1.0242  0.1498  0.0245
  121MOL   H35643796   7.378   4.453   4.471  0.0381  1.3584 -1.1058
  121MOL   H35743797   7.362   4.495   4.633 -0.9149  1.8834  0.7846
  121MOL   H35843798   7.628   4.538   4.615  0.0428 -0.6379  0.3108
  121MOL   H35943799   7.604   4.492   4.449 -0.1945 -0.8008 -0.5822
  121MOL   H36043800   7.568   4.332   4.716 -2.6419 -1.2660 -0.0432
  121MOL   H36143801   7.513   4.259   4.559  1.1420 -0.6371 -1.5819
  121MOL   H36243802   7.710   4.270   4.485  0.3263  0.4561  0.0205
  122MOL     C143803   7.751   4.176   0.462 -0.0233 -0.1180  0.2568
  122MOL     O243804   7.818   4.194   0.359 -0.2159  0.0233  0.2839
  122MOL     C343805   7.654   4.273   0.514  0.1729  0.1392  0.4341
  122MOL     C443806   7.635   4.402   0.430 -0.1564 -0.3049 -0.6958
  122MOL     C543807   7.565   4.373   0.295 -0.1532  0.3139 -0.1688
  122MOL     C643808   7.521   4.512   0.243 -0.7423  0.4524 -0.4680
  122MOL     C743809   7.437   4.496   0.120 -0.2163  0.0332 -0.2955
  122MOL     O843810   7.491   4.408   0.025  0.2353 -0.0850 -0.6587
  122MOL     H943811   7.699   4.309   0.606 -1.7517 -0.0882  1.5053
  122MOL    H1043812   7.558   4.222   0.521 -0.3398  0.6405 -2.4485
  122MOL    H1143813   7.734   4.444   0.412 -0.0851  0.6403  1.6109
  122MOL    H1243814   7.588   4.483   0.484  2.1396  0.1528  0.7195
  122MOL    H1343815   7.474   4.313   0.307 -0.3978  0.6179 -0.5010
  122MOL    H1443816   7.626   4.307   0.233 -0.1285 -1.1728  1.3945
  122MOL    H1543817   7.609   4.570   0.214 -1.0827 -0.3961 -3.3513
  122MOL    H1643818   7.464   4.563   0.321  1.9148 -1.6178  2.9477
  122MOL    H1743819   7.343   4.454   0.153 -0.5826  0.6928 -0.4764
  122MOL    H1843820   7.408   4.595   0.084 -1.3495 -0.0832  0.2777
  122MOL    H1943821   7.770   4.092   0.529 -4.0723 -0.5081  1.0424
  122MOL    C2043822   7.571   4.459   7.773 -0.5904 -0.3035 -0.0693
  122MOL    O2143823   7.594   4.581   7.758  0.5795  0.3215  0.3260
  122MOL    C2243824   7.616   4.347   7.676 -0.1305 -0.0969 -0.0323
  122MOL    C2343825   7.691   4.233   7.757 -0.3426 -0.1113  0.4058
  122MOL    C2443826   7.770   4.133   7.667  0.0478 -0.0526  0.0042
  122MOL    C2543827   7.683   4.048   7.584  0.5503 -0.0055 -0.1005
  122MOL    C2643828   7.764   3.947   7.503 -0.5947  0.1862  0.0537
  122MOL    O2743829   7.830   3.848   7.582  0.1095 -0.5962  0.0308
  122MOL    H2843830   7.681   4.384   7.596 -0.0993  0.6549  0.3367
  122MOL    H2943831   7.527   4.309   7.625 -1.0611 -0.6888  1.9667
  122MOL    H3043832   7.612   4.188   7.817  0.2399 -0.9266  0.5677
  122MOL    H3143833   7.761   4.266   7.834  0.1156  0.5456 -0.2910
  122MOL    H3243834   7.829   4.070   7.733 -2.5471 -1.7030  0.8253
  122MOL    H3343835   7.836   4.184   7.598 -2.4112  1.7323 -1.1164
  122MOL    H3443836   7.618   4.108   7.521  0.4124  0.2695  0.2968
  122MOL    H3543837   7.612   3.991   7.645  0.3458  1.6708  1.2757
  122MOL    H3643838   7.695   3.896   7.435 -1.2423 -0.4039  1.1334
  122MOL    H3743839   7.840   3.990   7.439 -1.2882 -1.3206 -1.8393
  122MOL    C3843840   7.777   3.723   7.602  0.1109 -0.1275 -0.2920
  122MOL    O3943841   7.661   3.698   7.563  0.0659  0.5123  0.2251
  122MOL    C4043842   0.016   3.631   7.697  0.3860 -0.1413  0.7147
  122MOL    C4143843   7.828   3.484   7.669 -0.0259  0.3386  0.1627
  122MOL    C4243844   7.717   3.433   7.756 -0.7395 -0.4249 -0.6555
  122MOL    C4343845   7.683   3.283   7.734  0.4219 -0.1017  0.3986
  122MOL    C4443846   7.587   3.225   7.840  0.5569  0.4826  0.8441
  122MOL    O4543847   7.537   3.094   7.807 -0.3548  0.0454 -0.2517
  122MOL    H4643848   0.004   3.655   7.803  1.3923  0.4178  0.7177
  122MOL    H4743849   0.124   3.645   7.683  0.3791 -0.0578  0.7416
  122MOL    H4843850   0.073   3.424   7.684 -1.6572 -2.2485 -0.1873
  122MOL    H4943851   7.814   3.468   7.563  1.0351  1.9947 -0.2490
  122MOL    H5043852   7.628   3.490   7.727 -0.4843  0.4982  0.3191
  122MOL    H5143853   7.745   3.456   0.014 -2.2417 -2.9746  0.3802
  122MOL    H5243854   7.774   3.223   7.741  0.1110 -0.6699 -0.3325
  122MOL    H5343855   7.635   3.272   7.637 -1.4488  1.8191  1.0677
  122MOL    H5443856   7.636   3.207   0.091  0.0560  2.2286  1.4311
  122MOL    H5543857   7.503   3.293   0.007 -0.0127  0.4172 -2.3631
  122MOL    C5643858   7.430   3.089   7.730 -0.1273 -0.3906 -0.8636
  122MOL    O5743859   7.375   3.180   7.668 -0.0361 -0.1628  0.3684
  122MOL    C5843860   7.373   2.946   7.728  0.0395  0.2250  1.0909
  122MOL    C5943861   7.484   2.845   7.686 -0.4848 -0.4452  0.7892
  122MOL    C6043862   7.449   2.703   7.724 -0.2077 -0.1399 -0.0275
  122MOL    C6143863   7.319   2.648   7.670 -0.0808  0.9486 -1.0370
  122MOL    C6243864   7.298   2.495   7.695 -0.1021 -0.6684 -0.2297
  122MOL    O6343865   7.179   2.466   7.634  0.1979 -0.2888 -0.2809
  122MOL    H6443866   7.286   2.935   7.664  0.9371 -1.0654  0.0735
  122MOL    H6543867   7.347   2.918   7.830  1.1672  2.0743  1.9212
  122MOL    H6643868   7.585   2.869   7.722  0.7433 -2.9062 -0.9110
  122MOL    H6743869   7.487   2.843   7.577  2.4984 -2.2972  0.8374
  122MOL    H6843870   7.453   2.697   7.833  1.7656 -0.4214 -0.0968
  122MOL    H6943871   7.529   2.636   7.693  0.5441  0.5416  0.4204
  122MOL    H7043872   7.321   2.654   7.561  1.5169 -1.0580 -1.1529
  122MOL    H7143873   7.236   2.708   7.708  0.6972  0.9374  0.7242
  122MOL    H7243874   7.382   2.431   7.666 -0.7759 -1.2138 -1.0068
  122MOL    H7343875   7.278   2.485   7.802  1.5873  2.3279  0.4241
  122MOL    C7443876   7.169   2.410   7.515  0.4248 -0.0932  0.2825
  122MOL    O7543877   7.265   2.372   7.451  0.0383  0.1404 -0.0817
  122MOL    C7643878   7.022   2.396   7.475 -0.2884  0.2562  0.7722
  122MOL    C7743879   6.936   2.524   7.476  0.2554  0.7928  0.2216
  122MOL    C7843880   6.797   2.503   7.410  0.1280  0.0261  0.2394
  122MOL    C7943881   6.708   2.622   7.447 -0.0313 -0.2368 -0.2377
  122MOL    C8043882   6.561   2.589   7.463 -0.3647  0.0547 -0.3273
  122MOL    O8143883   6.514   2.509   7.355  0.6034  0.1742 -0.5205
  122MOL    H8243884   6.969   2.318   7.530 -1.5312  0.1639 -0.5369
  122MOL    H8343885   7.026   2.363   7.371  1.8321  0.1982  0.8431
  122MOL    H8443886   6.985   2.617   7.446  0.9114  0.5434  0.5243
  122MOL    H8543887   6.915   2.527   7.583  1.8334 -2.0737  0.6728
  122MOL    H8643888   6.769   2.401   7.437 -3.1089  1.1040  1.1335
  122MOL    H8743889   6.817   2.497   7.303 -1.6174  0.1808 -0.1133
  122MOL    H8843890   6.713   2.704   7.374  1.3249  0.1580  0.2654
  122MOL    H8943891   6.735   2.669   7.542  0.1709 -1.2418  0.2056
  122MOL    H9043892   6.554   2.528   7.553 -3.4201 -0.4171 -0.8148
  122MOL    H9143893   6.499   2.675   7.489 -1.1751 -0.4444 -0.5944
  122MOL    C9243894   6.459   2.572   7.257  0.1455  0.1893  0.6228
  122MOL    O9343895   6.443   2.697   7.251 -0.2825  0.5006 -0.1166
  122MOL    C9443896   6.417   2.474   7.144 -0.0446  0.0579 -0.4538
  122MOL    C9543897   6.443   2.521   7.000  0.5643 -0.0957 -0.3040
  122MOL    C9643898   6.588   2.515   6.966  0.6017  0.6594 -0.1015
  122MOL    C9743899   6.618   2.559   6.824  0.7019 -0.4437 -0.4317
  122MOL    C9843900   6.764   2.539   6.778  0.3617 -0.1343 -0.0640
  122MOL    O9943901   6.817   2.583   6.657 -0.3921  0.4010  0.3738
  122MOL   H10043902   6.315   2.438   7.154 -0.5176  1.1705 -1.1626
  122MOL   H10143903   6.472   2.382   7.165 -0.9531 -0.4675 -0.3638
  122MOL   H10243904   6.419   2.627   6.990  1.5797  0.1873  0.2019
  122MOL   H10343905   6.374   2.471   6.932 -0.4488 -0.6326  1.0943
  122MOL   H10443906   6.631   2.416   6.981 -1.3206 -0.1249  0.3863
  122MOL   H10543907   6.648   2.577   7.032  1.8196  0.0068 -0.5654
  122MOL   H10643908   6.597   2.665   6.807  0.6067 -0.3980 -0.0232
  122MOL   H10743909   6.559   2.497   6.756  0.8890 -0.7319 -0.3333
  122MOL   H10843910   6.820   2.595   6.852 -0.4548  1.6155 -0.7320
  122MOL   H10943911   6.797   2.435   6.780  1.4477  0.1700 -1.7047
  122MOL   C11043912   6.802   2.515   6.540  0.1063  0.4812  0.2013
  122MOL   O11143913   6.765   2.404   6.512  0.3934  0.4050  0.3026
  122MOL   C11243914   6.839   2.613   6.426 -0.3743 -0.2506  0.3278
  122MOL   C11343915   6.989   2.655   6.414  0.7300  0.0923  0.1539
  122MOL   C11443916   7.086   2.540   6.386  0.3608  0.5068 -0.2206
  122MOL   C11543917   7.042   2.438   6.280  0.5114  0.5224  0.2881
  122MOL   C11643918   7.020   2.510   6.147  0.6346 -0.0570 -0.4637
  122MOL   O11743919   7.141   2.561   6.088 -0.1534  0.0307 -0.0104
  122MOL   H11843920   6.785   2.707   6.444  0.4227  0.6573 -1.8671
  122MOL   H11943921   6.806   2.585   6.326 -0.6332  0.0852  0.3157
  122MOL   H12043922   7.019   2.699   6.509 -0.9785  2.4497 -0.3563
  122MOL   H12143923   6.998   2.730   6.336  1.8196 -0.9123 -0.7081
  122MOL   H12243924   7.112   2.478   6.471 -0.3639  1.3593  0.6310
  122MOL   H12343925   7.184   2.584   6.363  0.6825 -0.4813 -0.7365
  122MOL   H12443926   6.948   2.395   6.314  0.3215 -0.2302 -1.1609
  122MOL   H12543927   7.112   2.358   6.254  0.0230  0.6914 -1.6269
  122MOL   H12643928   6.980   2.437   6.077 -0.0706 -0.7357  0.6288
  122MOL   H12743929   6.948   2.592   6.150  1.1403  0.3586  0.6185
  122MOL   C12843930   7.138   2.607   5.959 -0.1149 -0.6400 -0.7619
  122MOL   O12943931   7.037   2.606   5.887  0.1996 -0.2749  0.0797
  122MOL   C13043932   7.274   2.667   5.909 -0.1766 -0.3971 -0.0535
  122MOL   C13143933   7.390   2.571   5.920 -0.8269 -0.1476  0.6917
  122MOL   C13243934   7.389   2.468   5.811  0.5092 -0.3118 -0.1471
  122MOL   C13343935   7.494   2.359   5.827 -0.0066  0.5580  0.2104
  122MOL   C13443936   7.513   2.269   5.707 -0.0737  0.0063  0.0939
  122MOL   O13543937   7.392   2.196   5.669 -0.2316 -0.3674  0.1356
  122MOL   H13643938   7.308   2.744   5.977  0.9301 -0.5793 -0.3951
  122MOL   H13743939   7.257   2.700   5.806  0.8460 -3.1071 -1.1639
  122MOL   H13843940   7.397   2.522   6.016  0.5638  1.7589  1.5952
  122MOL   H13943941   7.486   2.621   5.911 -0.4369 -1.3652 -2.4723
  122MOL   H14043942   7.397   2.517   5.714  0.3902 -0.3295 -0.1659
  122MOL   H14143943   7.290   2.425   5.796  0.8596 -0.2082 -3.0806
  122MOL   H14243944   7.464   2.296   5.911  0.2883 -0.5454 -0.5056
  122MOL   H14343945   7.589   2.403   5.858 -0.0477 -0.0154  1.1788
  122MOL   H14443946   7.529   2.333   5.621 -0.9549  2.5688  1.8004
  122MOL   H14543947   7.604   2.211   5.722 -0.7412 -0.8617  0.8746
  122MOL   C14643948   7.385   2.125   5.560 -0.5343  0.0553  0.0454
  122MOL   O14743949   7.476   2.110   5.479 -0.5204  0.2690 -0.0868
  122MOL   C14843950   7.255   2.051   5.538  0.5258 -0.2813 -0.2943
  122MOL   C14943951   7.127   2.128   5.576 -0.0367  0.3568  0.2939
  122MOL   C15043952   7.010   2.114   5.473 -0.1614  0.2398 -0.0829
  122MOL   C15143953   6.870   2.135   5.530 -0.0373 -0.5414  0.2133
  122MOL   C15243954   6.833   2.268   5.589 -0.6180 -0.1678  0.7062
  122MOL   O15343955   6.825   2.373   5.491  0.1966 -0.1156 -0.5742
  122MOL   H15443956   7.268   1.950   5.579 -0.9689 -0.0027  0.9441
  122MOL   H15543957   7.235   2.030   5.433 -1.3965  0.7654 -0.1512
  122MOL   H15643958   7.143   2.232   5.603 -0.9641  0.7640 -0.7020
  122MOL   H15743959   7.085   2.087   5.668 -1.8206 -1.5258 -1.3101
  122MOL   H15843960   7.020   2.010   5.442  2.2401  0.0478  1.2081
  122MOL   H15943961   7.007   2.185   5.390  0.4281  0.1759 -0.1628
  122MOL   H16043962   6.858   2.070   5.617 -1.2490 -2.1279 -1.1266
  122MOL   H16143963   6.789   2.101   5.467 -2.3573 -0.5084  3.0619
  122MOL   H16243964   6.735   2.273   5.636 -1.2840  0.7640 -0.7726
  122MOL   H16343965   6.906   2.295   5.666  0.4601 -0.6183 -0.1524
  122MOL   C16443966   6.707   2.374   5.419  0.1208 -0.5241  0.0409
  122MOL   O16543967   6.620   2.293   5.428  0.7088  0.0715  0.4440
  122MOL   C16643968   6.700   2.498   5.326 -0.5783 -0.6849  0.4659
  122MOL   C16743969   6.679   2.453   5.186 -0.0626 -0.0695  0.2322
  122MOL   C16843970   6.814   2.403   5.123 -0.1556  0.0671 -1.5430
  122MOL   C16943971   6.797   2.322   4.996 -0.1414  0.1196 -0.4528
  122MOL   C17043972   6.938   2.274   4.946 -0.7889  0.0079  0.0047
  122MOL   O17143973   6.972   2.349   4.826 -0.2395  0.0467  0.0744
  122MOL   H17243974   6.788   2.563   5.325 -1.3619  0.3934 -1.5391
  122MOL   H17343975   6.620   2.562   5.365  0.5042 -0.6322  2.6404
  122MOL   H17443976   6.622   2.521   5.124  0.4019 -0.5992 -0.7817
  122MOL   H17543977   6.616   2.364   5.183  0.7255 -0.6673  0.9531
  122MOL   H17643978   6.862   2.333   5.191 -0.8423 -0.6166 -1.7419
  122MOL   H17743979   6.887   2.481   5.105  0.3509  0.0315  0.3098
  122MOL   H17843980   6.752   2.383   4.918  1.9674  1.9286 -0.3021
  122MOL   H17943981   6.729   2.238   5.012 -1.9521  1.7815  0.7682
  122MOL   H18043982   7.013   2.270   5.025 -0.5205  0.3991 -0.2317
  122MOL   H18143983   6.920   2.169   4.922 -1.0355  0.5864 -2.5037
  122MOL   C18243984   6.986   2.284   4.704  1.0462 -0.2735 -0.6089
  122MOL   O18343985   6.974   2.161   4.691 -0.0361  0.6185  0.0314
  122MOL   C18443986   7.018   2.375   4.578 -0.2008  0.4759  0.2938
  122MOL   C18543987   7.112   2.495   4.609 -0.0856 -0.7151  0.0243
  122MOL   C18643988   7.260   2.470   4.588 -0.0198  0.5443 -0.0767
  122MOL   C18743989   7.370   2.572   4.640  0.2261  0.2627 -0.8241
  122MOL   C18843990   7.394   2.698   4.558  0.2217 -0.2465  0.3546
  122MOL   O18943991   7.279   2.778   4.552 -0.0243 -0.5312  0.1521
  122MOL   H19043992   6.927   2.406   4.528 -1.8504 -3.8877  0.4742
  122MOL   H19143993   7.069   2.308   4.509 -1.0288 -2.4106  2.4057
  122MOL   H19243994   7.110   2.514   4.717  2.2599  0.7893 -0.1534
  122MOL   H19343995   7.075   2.585   4.561 -0.8312 -2.1760 -2.1803
  122MOL   H19443996   7.276   2.451   4.482  1.8131  1.5687 -0.0052
  122MOL   H19543997   7.277   2.375   4.641 -0.1413  0.4003 -0.2965
  122MOL   H19643998   7.467   2.523   4.644  0.4300  0.5303 -2.2601
  122MOL   H19743999   7.352   2.611   4.741  0.8983 -1.0228 -0.1981
  122MOL   H19844000   7.473   2.762   4.596 -2.2570  2.9804  0.2853
  122MOL   H19944001   7.412   2.663   4.456 -1.7898  2.9141 -1.1595
  122MOL   C20044002   7.283   2.906   4.517 -0.3230 -0.3094 -0.0006
  122MOL   O20144003   7.377   2.970   4.475  0.0823 -0.1780  0.2901
  122MOL   C20244004   7.139   2.970   4.522  0.1866  0.5411  0.1773
  122MOL   C20344005   7.136   3.110   4.457  0.1484 -0.1914  0.3042
  122MOL   C20444006   7.007   3.150   4.393 -0.0149 -0.4060  0.5742
  122MOL   C20544007   7.005   3.282   4.315  0.4700  0.2461 -0.3611
  122MOL   C20644008   6.961   3.399   4.415  0.1508  0.1859 -0.1840
  122MOL   O20744009   6.994   3.523   4.357 -0.0582 -0.7085 -0.4448
  122MOL   H20844010   7.099   2.970   4.624 -2.7661 -0.4466 -0.9340
  122MOL   H20944011   7.063   2.911   4.471  0.1585  1.2874 -0.6537
  122MOL   H21044012   7.212   3.128   4.381  0.2558  0.4319  0.5609
  122MOL   H21144013   7.158   3.184   4.533  0.4507  0.3760 -0.3363
  122MOL   H21244014   6.923   3.136   4.462  0.5757 -0.9047  1.2037
  122MOL   H21344015   6.982   3.073   4.319  3.0084 -1.0303  0.1277
  122MOL   H21444016   6.939   3.287   4.228 -0.4227  2.8180  0.4074
  122MOL   H21544017   7.108   3.291   4.278  1.2626  2.5115  2.1859
  122MOL   H21644018   6.853   3.393   4.432  0.1584 -0.6799 -0.4349
  122MOL   H21744019   7.003   3.384   4.514 -0.2003 -1.0430 -0.2098
  122MOL   C21844020   7.116   3.568   4.375  0.4923 -0.0538 -0.9906
  122MOL   O21944021   7.199   3.513   4.449  0.2350 -0.6045  0.2446
  122MOL   C22044022   7.147   3.695   4.294  0.2989 -0.4395  0.4584
  122MOL   C22144023   7.191   3.667   4.145  0.3933 -0.5404 -0.0694
  122MOL   C22244024   7.156   3.782   4.055 -0.1875 -0.0468  0.0595
  122MOL   C22344025   7.233   3.787   3.927 -0.0993 -0.2868  0.0706
  122MOL   C22444026   7.169   3.876   3.817 -0.6846  0.3299 -0.2744
  122MOL   O22544027   7.245   3.874   3.698  0.7618  0.5869 -0.0919
  122MOL   H22644028   7.227   3.738   4.354  0.6654 -2.2448  1.2992
  122MOL   H22744029   7.060   3.759   4.306  0.9661  0.5967 -0.1171
  122MOL   H22844030   7.140   3.578   4.107 -0.1117  0.2363 -1.2357
  122MOL   H22944031   7.296   3.639   4.156  0.1381 -1.4263  0.2018
  122MOL   H23044032   7.182   3.879   4.097  1.1360  0.7076 -2.3894
  122MOL   H23144033   7.048   3.788   4.041 -0.3313 -1.2130  0.6447
  122MOL   H23244034   7.223   3.687   3.884  2.1587  0.3780 -2.1844
  122MOL   H23344035   7.339   3.811   3.933  0.0725 -0.8785 -0.4767
  122MOL   H23444036   7.064   3.861   3.792 -0.2567 -1.9723 -0.7784
  122MOL   H23544037   7.176   3.982   3.844  1.5725  0.3129 -0.6399
  122MOL   C23644038   7.243   3.764   3.622 -0.3886  0.2029  0.5322
  122MOL   O23744039   7.173   3.661   3.645  0.0054  0.1632 -0.3440
  122MOL   C23844040   7.335   3.783   3.502  0.4691  0.3669 -0.5648
  122MOL   C23944041   7.419   3.651   3.480  0.0317  1.0568 -0.4180
  122MOL   C24044042   7.538   3.688   3.389 -0.3338 -0.7347  0.2238
  122MOL   C24144043   7.645   3.574   3.373 -0.4369  0.4441 -0.2909
  122MOL   C24244044   7.730   3.579   3.247 -0.2754 -0.3392 -0.6368
  122MOL   O24344045   7.797   3.704   3.240  0.0737  0.4656 -0.4035
  122MOL   H24444046   7.400   3.870   3.515  2.7673 -1.5525  1.2121
  122MOL   H24544047   7.277   3.791   3.410  0.4965  1.4227 -0.4978
  122MOL   H24644048   7.356   3.575   3.435 -0.8073 -0.1809  2.6995
  122MOL   H24744049   7.448   3.621   3.581 -0.5629 -0.6927 -0.7526
  122MOL   H24844050   7.583   3.781   3.424 -0.5120 -0.9427  1.0265
  122MOL   H24944051   7.496   3.709   3.291  0.1450  1.0908  0.3827
  122MOL   H25044052   7.588   3.482   3.384 -0.8575  0.6770 -0.4735
  122MOL   H25144053   7.711   3.569   3.459 -2.9389  1.5516  1.7573
  122MOL   H25244054   7.796   3.493   3.243 -1.7726 -1.5018 -1.0747
  122MOL   H25344055   7.673   3.568   3.155  1.8356  0.7051 -2.1004
  122MOL   C25444056   0.073   3.711   3.173  0.5559 -0.2238  0.2738
  122MOL   O25544057   0.135   3.615   3.137  0.6229 -0.1423 -0.8678
  122MOL   C25644058   0.122   3.853   3.143 -0.1629  0.3780  0.0704
  122MOL   C25744059   0.193   3.858   3.007 -0.5090 -0.0233 -0.1245
  122MOL   C25844060   0.203   4.003   2.961  0.1847  0.6455  0.2974
  122MOL   C25944061   0.254   4.021   2.819 -0.0017  0.4936  0.1287
  122MOL   C26044062   0.237   4.168   2.778  0.5209  0.1640  0.6907
  122MOL   O26144063   0.107   4.206   2.760  0.1939  0.0145  0.0181
  122MOL   H26244064   0.191   3.892   3.218  2.5664  1.1192 -2.6961
  122MOL   H26344065   0.039   3.923   3.135 -0.0271  0.8590  2.5293
  122MOL   H26444066   0.157   3.799   2.923  0.2751  1.5555 -1.5897
  122MOL   H26544067   0.294   3.818   3.020 -1.0387 -1.4460 -0.2748
  122MOL   H26644068   0.259   4.065   3.030  0.3474 -0.2605  0.9985
  122MOL   H26744069   0.104   4.043   2.981  0.7267  1.1109  2.0962
  122MOL   H26844070   0.200   3.948   2.758 -2.4315  2.0510  0.3422
  122MOL   H26944071   0.358   3.987   2.818  0.5399  2.0954  0.9972
  122MOL   H27044072   0.264   4.230   2.863 -1.0229 -1.5354  2.4656
  122MOL   H27144073   0.306   4.185   2.695  0.7641 -0.7425  0.7062
  122MOL   C27244074   0.079   4.321   2.695  0.8814 -0.4976 -1.1114
  122MOL   O27344075   0.153   4.380   2.618  0.1781  0.1341  0.2291
  122MOL   C27444076   7.775   4.364   2.715  0.9003  0.3285 -0.5343
  122MOL   C27544077   7.670   4.252   2.688 -0.3784  0.1098  0.0391
  122MOL   C27644078   7.625   4.243   2.537  0.7394  0.0784 -0.4302
  122MOL   C27744079   7.526   4.129   2.508  1.0964 -0.6225 -0.5081
  122MOL   C27844080   7.399   4.140   2.587  0.3720 -0.8479  0.8352
  122MOL   O27944081   7.310   4.235   2.546 -0.1573  0.3172 -0.0645
  122MOL   H28044082   7.749   4.447   2.650  0.9703  0.2177 -0.7042
  122MOL   H28144083   7.762   4.405   2.815 -0.6938 -1.4311  0.0259
  122MOL   H28244084   7.588   4.265   2.759  1.0271  3.5511  1.1375
  122MOL   H28344085   7.698   4.153   2.723 -0.4235  0.9191  2.4393
  122MOL   H28444086   7.712   4.233   2.472  1.3459  0.7761  0.2653
  122MOL   H28544087   7.574   4.339   2.523 -1.3351 -0.7750  1.1298
  122MOL   H28644088   7.581   4.036   2.530  0.3722 -1.1362 -0.8595
  122MOL   H28744089   7.497   4.123   2.404  3.7282 -0.2465 -1.2944
  122MOL   H28844090   7.342   4.048   2.575  0.4793 -0.8883  0.6252
  122MOL   H28944091   7.423   4.139   2.693 -0.6152  1.0525  1.0981
  122MOL   C29044092   7.256   4.324   2.634 -0.9570 -0.0487  1.0076
  122MOL   O29144093   7.260   4.326   2.755 -1.0087  0.3825  0.3280
  122MOL   C29244094   7.167   4.422   2.555  0.0142 -0.9006 -0.3557
  122MOL   C29344095   7.249   4.532   2.497  0.1345 -0.3521  0.0730
  122MOL   C29444096   7.165   4.653   2.470  0.8990  0.6981 -0.0092
  122MOL   C29544097   7.239   4.785   2.436 -0.3771 -0.2096  0.5374
  122MOL   C29644098   7.299   4.804   2.296  0.2379 -0.3453  0.1451
  122MOL   O29744099   7.197   4.811   2.202 -0.3756  0.7503  0.0230
  122MOL   H29844100   7.107   4.469   2.632  0.2582  1.3485 -1.4778
  122MOL   H29944101   7.094   4.377   2.488 -1.1066  0.2467  0.0797
  122MOL   H30044102   7.298   4.503   2.404  0.8944 -1.3348  0.7737
  122MOL   H30144103   7.340   4.564   2.547  0.8134  2.7425 -2.8919
  122MOL   H30244104   7.108   4.671   2.561 -1.9544 -1.6196 -1.2576
  122MOL   H30344105   7.085   4.627   2.400  0.9494  1.2934 -0.2967
  122MOL   H30444106   7.331   4.790   2.495  1.0326 -0.1060 -1.5907
  122MOL   H30544107   7.186   4.877   2.459  1.8824  1.4868 -0.7621
  122MOL   H30644108   7.360   4.894   2.291 -0.9055  0.3456 -2.1398
  122MOL   H30744109   7.365   4.719   2.280  0.9173  0.1495  0.2990
  122MOL   C30844110   7.186   4.915   2.116 -0.1997 -0.1102 -0.1285
  122MOL   O30944111   7.250   5.023   2.125  0.1150  0.3195  0.4437
  122MOL   C31044112   7.072   4.887   2.012  0.0814 -0.4883 -0.5558
  122MOL   C31144113   7.045   5.003   1.907  0.5174  0.4777 -0.1538
  122MOL   C31244114   7.008   5.140   1.974 -0.8844  0.9969  0.1397
  122MOL   C31344115   6.958   5.241   1.864  0.1699  0.4461 -0.0612
  122MOL   C31444116   6.929   5.383   1.912  0.2660 -0.7219  0.1070
  122MOL   O31544117   6.834   5.378   2.016  0.0913  0.2528  0.0141
  122MOL   H31644118   6.977   4.867   2.061 -0.3133  1.6404 -0.4010
  122MOL   H31744119   7.091   4.790   1.967 -2.1250 -1.5380  0.7102
  122MOL   H31844120   6.962   4.975   1.843  1.2557  1.0397 -1.3810
  122MOL   H31944121   7.126   5.012   1.835  1.0174 -2.1271  0.0535
  122MOL   H32044122   7.094   5.189   2.019  0.8660 -0.4386 -1.5020
  122MOL   H32144123   6.937   5.120   2.054 -0.9669  0.9737  0.0616
  122MOL   H32244124   6.879   5.202   1.799  1.6695 -2.2102 -0.3897
  122MOL   H32344125   7.038   5.246   1.791 -1.3944 -0.9720 -1.9392
  122MOL   H32444126   7.023   5.427   1.946 -1.3520  1.9242  1.2633
  122MOL   H32544127   6.893   5.446   1.830  0.0756 -0.6912  0.2155
  122MOL   C32644128   6.793   5.495   2.062  0.1167  0.4811 -0.7811
  122MOL   O32744129   6.834   5.602   2.024 -0.3795 -0.3207  0.1479
  122MOL   C32844130   6.674   5.473   2.158  0.1477  0.0567 -0.8473
  122MOL   C32944131   6.613   5.593   2.232  0.1361  0.9092 -0.3254
  122MOL   C33044132   6.524   5.671   2.135  0.3103 -0.4346 -1.1506
  122MOL   C33144133   6.421   5.763   2.205  0.3665 -0.5898  0.1387
  122MOL   C33244134   6.321   5.823   2.104  0.7423  0.6244  0.2656
  122MOL   O33344135   6.242   5.735   2.019 -0.0059 -0.0169 -0.7302
  122MOL   H33444136   6.712   5.400   2.230  0.9197  0.8554 -0.4285
  122MOL   H33544137   6.598   5.415   2.107 -1.3699  1.9898 -0.8655
  122MOL   H33644138   6.701   5.641   2.275  2.4538 -2.3899 -1.2180
  122MOL   H33744139   6.546   5.555   2.309  0.3080  2.1792  0.4710
  122MOL   H33844140   6.462   5.604   2.077 -1.1399 -0.5399  0.4733
  122MOL   H33944141   6.579   5.731   2.062 -1.0060  1.0780 -0.9280
  122MOL   H34044142   6.476   5.842   2.256 -0.0290 -1.7829  2.4852
  122MOL   H34144143   6.362   5.707   2.278 -0.5634 -0.0901 -0.2244
  122MOL   H34244144   6.239   5.865   2.161  0.6895 -2.1571  2.3617
  122MOL   H34344145   6.370   5.896   2.040  1.1008 -1.4465 -1.8899
  122MOL   C34444146   6.174   5.629   2.062 -0.4909 -0.1715 -0.0810
  122MOL   O34544147   6.164   5.582   2.172 -0.2963  0.1336 -0.6143
  122MOL   C34644148   6.101   5.563   1.944  0.1641 -0.0619  0.0272
  122MOL   C34744149   6.176   5.532   1.811  0.0991  0.0423  0.5164
  122MOL   C34844150   6.284   5.431   1.831 -0.0368 -0.2031 -0.1052
  122MOL   C34944151   6.355   5.406   1.697  0.1699  0.1427 -0.7329
  122MOL   C35044152   6.468   5.309   1.716 -0.2107  0.0947 -0.1869
  122MOL   O35144153   6.537   5.269   1.597 -0.5106  0.2786  0.3861
  122MOL   H35244154   6.029   5.637   1.910 -0.5999 -1.4170 -1.3405
  122MOL   H35344155   6.047   5.478   1.985  1.6429 -1.2941 -0.5459
  122MOL   H35444156   6.212   5.629   1.777 -0.7103  0.0064 -0.4652
  122MOL   H35544157   6.118   5.491   1.728  0.2048 -2.1255  1.4711
  122MOL   H35644158   6.239   5.337   1.864  0.3118  0.1448  1.3778
  122MOL   H35744159   6.357   5.450   1.909  0.5975 -2.2947 -0.1548
  122MOL   H35844160   6.383   5.501   1.652  0.3657  1.1919  1.5226
  122MOL   H35944161   6.300   5.357   1.617 -0.3943  0.0467 -0.2842
  122MOL   H36044162   6.530   5.362   1.788  1.6886 -2.4386  0.1313
  122MOL   H36144163   6.431   5.214   1.754  1.0830 -0.0812  0.6708
  122MOL   H36244164   6.580   5.338   1.549  0.2849 -0.8235 -0.5229
  123MOL     C144165   3.488   5.198   2.583 -0.4189  0.2875  0.5217
  123MOL     O244166   3.445   5.291   2.514  0.4865  0.2152  0.3981
  123MOL     C344167   3.539   5.068   2.522  0.8660  0.3330 -0.6166
  123MOL     C444168   3.685   5.064   2.482 -0.2001 -0.5412 -0.2982
  123MOL     C544169   3.698   5.125   2.338  0.2111  0.8312  0.1178
  123MOL     C644170   3.756   5.261   2.336 -0.2438  0.3622 -0.5532
  123MOL     C744171   3.779   5.331   2.198 -0.3990  0.3659 -0.2169
  123MOL     O844172   3.859   5.230   2.126 -0.6715 -0.5614  0.0807
  123MOL     H944173   3.472   5.023   2.447  1.3954 -1.3030 -0.1271
  123MOL    H1044174   3.534   4.998   2.605  1.9725  0.3770 -0.5109
  123MOL    H1144175   3.727   4.966   2.462  4.7733  1.5917 -1.2222
  123MOL    H1244176   3.750   5.117   2.551 -0.2965 -0.7536 -0.0441
  123MOL    H1344177   3.606   5.128   2.279  0.2736 -0.5972 -0.0719
  123MOL    H1444178   3.765   5.055   2.289 -0.6070  0.5676 -0.6420
  123MOL    H1544179   3.850   5.260   2.392  0.6039 -3.4088 -1.9265
  123MOL    H1644180   3.684   5.330   2.381  0.3212  0.8155 -0.3302
  123MOL    H1744181   3.687   5.356   2.145 -0.7484  1.7823  1.0276
  123MOL    H1844182   3.840   5.421   2.199 -0.8265  0.6690 -0.8436
  123MOL    H1944183   3.503   5.206   2.691 -1.4102  0.2758  0.6694
  123MOL    C2044184   3.810   5.160   2.032  0.1258  0.0735 -0.1271
  123MOL    O2144185   3.692   5.157   2.008  0.1065 -0.0436  0.6051
  123MOL    C2244186   3.918   5.085   1.955  0.3118 -0.0019 -0.4154
  123MOL    C2344187   3.915   4.935   1.987 -0.0754 -0.5571  0.2733
  123MOL    C2444188   3.985   4.887   2.125 -1.2929  0.2078  0.0757
  123MOL    C2544189   3.905   4.774   2.189  0.1944 -0.2973 -0.7973
  123MOL    C2644190   3.950   4.750   2.339  0.1258 -0.2849  0.0675
  123MOL    O2744191   3.910   4.619   2.374 -0.2493 -0.2284  0.3161
  123MOL    H2844192   4.013   5.139   1.960  0.7454 -0.6868 -1.0739
  123MOL    H2944193   3.888   5.099   1.851 -0.5254  1.1149 -0.0358
  123MOL    H3044194   3.959   4.884   1.902 -2.9568  1.1636 -2.3786
  123MOL    H3144195   3.815   4.892   1.981 -0.5468  0.5691 -0.0285
  123MOL    H3244196   3.990   4.963   2.202 -1.2832 -0.6300  0.9161
  123MOL    H3344197   4.092   4.868   2.117 -1.6373 -1.6126 -0.4026
  123MOL    H3444198   3.921   4.685   2.129  0.1117  1.0472 -2.8901
  123MOL    H3544199   3.798   4.794   2.179  0.2807  0.4180 -0.3648
  123MOL    H3644200   4.058   4.768   2.350  0.0058 -1.7565  5.0428
  123MOL    H3744201   3.906   4.821   2.410 -0.9175  0.4705 -1.3125
  123MOL    C3844202   3.977   4.555   2.468 -0.1858 -0.3574 -0.4863
  123MOL    O3944203   4.087   4.591   2.509 -0.0638  0.1924 -0.3807
  123MOL    C4044204   3.916   4.418   2.507 -0.3275  0.7910 -1.0662
  123MOL    C4144205   3.994   4.326   2.606 -0.1059 -0.1818  0.0340
  123MOL    C4244206   3.977   4.370   2.750  0.0835  0.1727  0.9539
  123MOL    C4344207   4.076   4.285   2.837 -0.3986 -1.1641  0.0609
  123MOL    C4444208   4.078   4.326   2.978 -0.0297 -0.1268  0.3877
  123MOL    O4544209   4.128   4.214   3.053  0.4182  0.1987  0.3926
  123MOL    H4644210   3.902   4.368   2.411  1.1705 -2.7618  0.4874
  123MOL    H4744211   3.815   4.436   2.543  0.3360 -0.6622  1.6019
  123MOL    H4844212   4.099   4.336   2.580 -0.6542 -1.0282 -2.6649
  123MOL    H4944213   3.973   4.220   2.591  0.1563 -0.1165 -0.8092
  123MOL    H5044214   3.872   4.351   2.769 -0.2431  0.6735 -0.2991
  123MOL    H5144215   3.995   4.478   2.755  0.4381  0.3410 -2.4751
  123MOL    H5244216   4.174   4.300   2.791 -0.4099  0.3596  0.4977
  123MOL    H5344217   4.047   4.181   2.829  2.6853 -2.1777  1.3463
  123MOL    H5444218   4.135   4.416   3.002  1.5712 -1.0004 -0.0315
  123MOL    H5544219   3.977   4.350   3.010 -0.5075  0.1680 -1.2923
  123MOL    C5644220   4.120   4.205   3.185  1.0847 -0.1557  0.2157
  123MOL    O5744221   4.053   4.284   3.258  0.1285  0.3874  0.4688
  123MOL    C5844222   4.195   4.084   3.240  0.5454  0.0548 -0.0769
  123MOL    C5944223   4.098   3.967   3.255 -0.3165  0.8248 -0.3650
  123MOL    C6044224   4.160   3.841   3.328  0.2282 -0.5857  0.4472
  123MOL    C6144225   4.060   3.727   3.327  0.0423 -0.5059 -0.4408
  123MOL    C6244226   4.105   3.613   3.407  0.1171 -0.3408 -0.4792
  123MOL    O6344227   4.084   3.630   3.546 -0.0389 -0.3341 -0.2832
  123MOL    H6444228   4.226   4.117   3.339 -1.5557 -0.5435  0.8104
  123MOL    H6544229   4.284   4.058   3.184 -0.7293 -0.1518 -2.0511
  123MOL    H6644230   4.080   3.934   3.153  1.4815 -0.5328 -0.2610
  123MOL    H6744231   4.010   3.999   3.311  1.5174  1.8139  2.0857
  123MOL    H6844232   4.182   3.861   3.433 -1.9099 -0.3729  0.8732
  123MOL    H6944233   4.245   3.790   3.283  1.4714  3.3474 -1.9604
  123MOL    H7044234   4.044   3.692   3.225  2.7090 -2.1473 -0.3572
  123MOL    H7144235   3.964   3.759   3.367  0.9393  1.3599  0.2707
  123MOL    H7244236   4.053   3.521   3.379  0.7706 -0.6537 -0.6821
  123MOL    H7344237   4.210   3.590   3.389  0.3748  0.5727 -0.1754
  123MOL    C7444238   3.961   3.614   3.601  0.4082 -0.4016  0.4963
  123MOL    O7544239   3.866   3.562   3.543  1.1590  0.1610  0.3273
  123MOL    C7644240   3.947   3.662   3.743  0.0843 -0.2882 -0.1611
  123MOL    C7744241   3.994   3.565   3.855 -0.2591  0.4143  0.1140
  123MOL    C7844242   4.018   3.644   3.985 -0.5816  0.0315 -0.0520
  123MOL    C7944243   4.050   3.567   4.117 -0.7314  0.0982  0.3485
  123MOL    C8044244   4.094   3.671   4.222  0.0762 -0.2462 -0.1459
  123MOL    O8144245   4.137   3.608   4.334 -0.5637 -0.1592  0.1732
  123MOL    H8244246   3.845   3.694   3.764  0.6399  0.4408  1.6108
  123MOL    H8344247   4.004   3.755   3.753  0.1864 -0.3927  0.2522
  123MOL    H8444248   4.079   3.510   3.815  1.6240  4.0283 -1.1289
  123MOL    H8544249   3.911   3.497   3.874  0.2974 -0.7074 -1.3878
  123MOL    H8644250   3.938   3.711   4.017  0.1215 -0.8657  3.8317
  123MOL    H8744251   4.112   3.698   3.972 -1.7627  1.8240 -1.3385
  123MOL    H8844252   4.136   3.501   4.106  0.6131  2.0417 -1.1663
  123MOL    H8944253   3.964   3.505   4.144 -1.0975  0.2901 -0.3541
  123MOL    H9044254   4.172   3.742   4.195 -0.5340  1.9630  3.5334
  123MOL    H9144255   4.004   3.724   4.253  0.5084  0.6737 -0.4271
  123MOL    C9244256   4.261   3.640   4.392 -0.1239 -0.3640 -0.1173
  123MOL    O9344257   4.343   3.729   4.355 -0.1003 -0.9130 -0.1119
  123MOL    C9444258   4.291   3.548   4.517  0.1293  0.0956  0.0061
  123MOL    C9544259   4.191   3.576   4.635 -0.2322 -0.4496 -0.6257
  123MOL    C9644260   4.222   3.709   4.707 -0.2153 -0.1934 -0.2026
  123MOL    C9744261   4.126   3.749   4.827 -0.3914 -0.1095  0.4329
  123MOL    C9844262   4.128   3.900   4.862 -0.0500 -0.2713  0.2619
  123MOL    O9944263   4.250   3.944   4.928  0.6539 -0.3263  0.1737
  123MOL   H10044264   4.396   3.569   4.533 -0.0433  0.3157  0.8862
  123MOL   H10144265   4.259   3.450   4.481  1.0817 -1.0260  2.1290
  123MOL   H10244266   4.216   3.498   4.707  0.8823 -0.7410 -1.3208
  123MOL   H10344267   4.092   3.567   4.592  0.4054  0.4959 -2.3446
  123MOL   H10444268   4.232   3.783   4.628  1.4765  0.9346  1.0130
  123MOL   H10544269   4.322   3.718   4.750  0.2037 -0.6798 -1.0693
  123MOL   H10644270   4.161   3.704   4.920 -0.8205 -0.9535  0.1868
  123MOL   H10744271   4.024   3.719   4.804 -0.1980 -0.2502 -0.2553
  123MOL   H10844272   4.112   3.954   4.769 -0.9914 -0.2496  0.4367
  123MOL   H10944273   4.044   3.918   4.929  0.0671  1.6220 -0.0913
  123MOL   C11044274   4.272   4.076   4.938 -0.4426 -0.2026  0.4035
  123MOL   O11144275   4.184   4.162   4.921  0.1670 -0.5863  0.0815
  123MOL   C11244276   4.424   4.113   4.983  0.0154  0.0785  0.2149
  123MOL   C11344277   4.504   4.025   5.078  0.3886  0.2083 -0.0839
  123MOL   C11444278   4.444   4.004   5.223  0.2056  0.5639  0.7630
  123MOL   C11544279   4.492   3.895   5.311 -0.0263  0.8269  0.1319
  123MOL   C11644280   4.405   3.873   5.437  0.1028  0.9888 -0.3717
  123MOL   O11744281   4.290   3.804   5.410 -0.1794 -0.5994  0.0346
  123MOL   H11844282   4.426   4.215   5.021  0.2206  1.0524 -2.3676
  123MOL   H11944283   4.474   4.108   4.887 -0.6430  1.4466 -0.2087
  123MOL   H12044284   4.609   4.053   5.083 -0.0673  2.1035 -0.9895
  123MOL   H12144285   4.502   3.922   5.041 -0.2986  0.2452 -0.1581
  123MOL   H12244286   4.336   3.997   5.210  0.2875 -0.6983  0.6610
  123MOL   H12344287   4.473   4.091   5.281  1.8121  0.5573 -0.0032
  123MOL   H12444288   4.595   3.915   5.339  0.2975 -0.7923  0.0921
  123MOL   H12544289   4.492   3.802   5.256 -0.4233  1.0474 -0.2507
  123MOL   H12644290   4.461   3.810   5.506  1.4186  2.2656 -0.2571
  123MOL   H12744291   4.377   3.962   5.494  1.5396 -0.0666  2.0622
  123MOL   C12844292   4.198   3.787   5.508 -0.0414  0.4916  0.1704
  123MOL   O12944293   4.217   3.813   5.625 -0.6919  0.4015  0.2392
  123MOL   C13044294   4.076   3.710   5.452 -0.5594  0.6893 -0.3943
  123MOL   C13144295   4.010   3.774   5.325 -0.4148 -0.7203 -0.2644
  123MOL   C13244296   3.968   3.920   5.346 -0.1129  0.0144  0.6066
  123MOL   C13344297   3.960   3.983   5.208 -0.7274 -0.4087 -0.1878
  123MOL   C13444298   3.864   3.913   5.111 -0.0777 -0.6055  0.1844
  123MOL   O13544299   3.734   3.902   5.160 -0.4417 -0.6250 -0.6928
  123MOL   H13644300   4.003   3.707   5.532  1.7243  0.4617  1.7559
  123MOL   H13744301   4.092   3.604   5.435 -2.6268 -0.0168  1.8563
  123MOL   H13844302   3.920   3.715   5.312 -1.8022  1.0239  1.1659
  123MOL   H13944303   4.076   3.766   5.238  0.4643  1.1111  0.1986
  123MOL   H14044304   4.034   3.985   5.402  0.6476  1.1840 -1.5820
  123MOL   H14144305   3.867   3.925   5.386 -0.7405 -4.1966 -0.1173
  123MOL   H14244306   4.054   3.987   5.154  0.0854 -2.1463  1.0658
  123MOL   H14344307   3.924   4.083   5.232 -0.1134 -0.5183  1.1785
  123MOL   H14444308   3.853   3.961   5.014  0.9143  1.0395  0.8807
  123MOL   H14544309   3.910   3.817   5.088  1.3926  0.0469  0.3569
  123MOL   C14644310   3.638   3.989   5.132  0.4189  0.2730  0.1642
  123MOL   O14744311   3.645   4.103   5.100 -0.2594  0.2164 -0.5473
  123MOL   C14844312   3.502   3.918   5.151 -0.1536  0.4230  0.4245
  123MOL   C14944313   3.484   3.883   5.302  0.5837 -0.5044  1.0079
  123MOL   C15044314   3.348   3.871   5.344  0.4455 -0.0001 -0.4102
  123MOL   C15144315   3.329   3.826   5.487 -0.2372  0.5589  0.7277
  123MOL   C15244316   3.189   3.797   5.536 -0.2953  0.0328 -0.6477
  123MOL   O15344317   3.184   3.796   5.679 -0.2992  0.1836  0.2520
  123MOL   H15444318   3.493   3.831   5.086 -2.3180  2.2368 -1.7968
  123MOL   H15544319   3.423   3.989   5.128  0.2238  0.4706 -0.7702
  123MOL   H15644320   3.534   3.955   5.366  0.0875  2.4534 -1.8099
  123MOL   H15744321   3.527   3.784   5.318  1.6822  0.2367  2.7632
  123MOL   H15844322   3.303   3.797   5.278 -0.8266 -1.7979  2.3946
  123MOL   H15944323   3.297   3.967   5.344 -0.0531 -0.2549 -1.8491
  123MOL   H16044324   3.373   3.901   5.553  1.2061  0.2894  0.0847
  123MOL   H16144325   3.384   3.732   5.496  0.9944  1.2350  0.4171
  123MOL   H16244326   3.115   3.873   5.512 -0.5818 -0.1080 -0.2174
  123MOL   H16344327   3.152   3.704   5.493 -3.0303  0.6994  0.1932
  123MOL   C16444328   3.187   3.678   5.750  0.1596 -0.4440  0.1725
  123MOL   O16544329   3.201   3.562   5.710 -0.3471 -0.7992  0.5474
  123MOL   C16644330   3.171   3.694   5.903 -0.0365  0.1583 -1.0620
  123MOL   C16744331   3.221   3.827   5.959  0.6946 -0.2063  0.3341
  123MOL   C16844332   3.099   3.919   5.999  0.1182  0.7992 -0.0285
  123MOL   C16944333   3.147   4.038   6.080  0.2583  0.4954  0.2053
  123MOL   C17044334   3.032   4.131   6.126  0.0929 -0.5048  0.4736
  123MOL   O17144335   2.974   4.206   6.022 -0.2884  0.3291 -0.3923
  123MOL   H17244336   3.217   3.607   5.951 -1.4116 -0.3825 -0.6924
  123MOL   H17344337   3.067   3.684   5.936 -0.1493 -0.8178 -1.6851
  123MOL   H17444338   3.292   3.875   5.892  0.1601 -0.5941 -0.5201
  123MOL   H17544339   3.288   3.804   6.042  0.0111 -0.9036  0.6995
  123MOL   H17644340   3.053   3.854   6.073  1.5419 -0.7660 -0.4660
  123MOL   H17744341   3.028   3.933   5.918  0.7184 -0.9902 -0.8980
  123MOL   H17844342   3.225   4.090   6.025 -0.4943  1.7704  0.3277
  123MOL   H17944343   3.183   3.990   6.171  1.6803 -1.1256 -1.1709
  123MOL   H18044344   2.956   4.062   6.164 -0.7619  0.5863  0.7805
  123MOL   H18144345   3.063   4.207   6.198  0.3529  1.1735 -1.3652
  123MOL   C18244346   2.841   4.203   6.005  0.4450 -0.0215 -0.3838
  123MOL   O18344347   2.748   4.152   6.069 -0.3015  0.1247  0.2517
  123MOL   C18444348   2.805   4.282   5.876  0.0047 -0.5696 -0.5040
  123MOL   C18544349   2.857   4.426   5.856  0.0603  1.1671  0.0444
  123MOL   C18644350   2.802   4.533   5.956  0.0022 -0.4493  0.2974
  123MOL   C18744351   2.875   4.662   5.933  0.1585 -0.9854  0.4113
  123MOL   C18844352   2.810   4.774   6.012  0.1359  0.1641 -0.2245
  123MOL   O18944353   2.835   4.755   6.148 -0.1395 -0.3681  0.1313
  123MOL   H19044354   2.698   4.296   5.870 -0.0139  1.1933  2.7059
  123MOL   H19144355   2.833   4.227   5.787  0.6423  0.8503 -1.2015
  123MOL   H19244356   2.843   4.458   5.753 -0.1251  0.9791  0.0113
  123MOL   H19344357   2.965   4.410   5.857 -0.2839 -1.4230  2.1234
  123MOL   H19444358   2.817   4.496   6.057 -0.7625  1.6633  1.2402
  123MOL   H19544359   2.693   4.533   5.947  0.0457  2.3019 -1.0131
  123MOL   H19644360   2.856   4.681   5.827 -1.5469  2.0705  1.2058
  123MOL   H19744361   2.981   4.661   5.956  0.2682 -0.5714 -0.0640
  123MOL   H19844362   2.856   4.868   5.983  0.5434  0.3030  0.8575
  123MOL   H19944363   2.705   4.769   5.983  0.5118  0.8604 -1.7430
  123MOL   C20044364   2.738   4.791   6.239 -0.3726 -0.1713 -0.2114
  123MOL   O20144365   2.633   4.847   6.202  0.0103 -0.4648 -0.3733
  123MOL   C20244366   2.784   4.766   6.381  0.1110 -0.4677  0.2016
  123MOL   C20344367   2.904   4.849   6.422 -0.0266 -0.6154 -0.3038
  123MOL   C20444368   2.883   5.001   6.451  0.3310  0.1163 -0.3060
  123MOL   C20544369   3.020   5.055   6.471  0.0342 -0.1357  0.2695
  123MOL   C20644370   3.035   5.207   6.449  0.2030 -0.1687  0.0195
  123MOL   O20744371   3.164   5.260   6.417 -0.1368 -0.2017  0.4396
  123MOL   H20844372   2.791   4.661   6.408  0.8338  0.1547  2.5377
  123MOL   H20944373   2.703   4.795   6.448  0.1867 -0.0509  0.1147
  123MOL   H21044374   2.978   4.835   6.342  0.5160  1.0250 -0.0976
  123MOL   H21144375   2.949   4.810   6.513  1.0480  1.5129  0.0997
  123MOL   H21244376   2.826   5.021   6.542 -0.4563 -0.9452 -0.5532
  123MOL   H21344377   2.831   5.054   6.370  0.5281 -0.3486 -0.7368
  123MOL   H21444378   3.094   4.996   6.418 -0.6413 -1.6480  0.9833
  123MOL   H21544379   3.047   5.027   6.573 -2.3626  1.0620  1.2882
  123MOL   H21644380   2.969   5.248   6.372  0.0123 -0.9843 -0.2563
  123MOL   H21744381   3.006   5.251   6.544 -0.9274 -0.8023 -0.0158
  123MOL   C21844382   3.178   5.389   6.380  0.1728  1.0000 -0.0752
  123MOL   O21944383   3.086   5.469   6.384  0.3210  0.1585 -0.3873
  123MOL   C22044384   3.323   5.416   6.340  0.6899  0.0001  0.2935
  123MOL   C22144385   3.339   5.537   6.248  0.4761  0.3350  0.7014
  123MOL   C22244386   3.322   5.670   6.319  0.1646 -0.3875 -0.1832
  123MOL   C22344387   3.310   5.797   6.239 -0.3547  0.2778 -0.0533
  123MOL   C22444388   3.333   5.927   6.320 -0.0619  0.2297 -0.6552
  123MOL   O22544389   3.466   5.923   6.370  0.1946  0.2216  0.2939
  123MOL   H22644390   3.344   5.327   6.282  0.0538  0.9021 -1.3651
  123MOL   H22744391   3.390   5.428   6.425 -1.5330  0.9736  1.9518
  123MOL   H22844392   3.260   5.534   6.172  0.2261 -3.4956  1.0454
  123MOL   H22944393   3.433   5.548   6.194 -0.4870  0.6655 -0.9789
  123MOL   H23044394   3.403   5.671   6.392 -0.7658 -3.0174  0.9402
  123MOL   H23144395   3.225   5.657   6.367  0.3703  1.1735  0.6644
  123MOL   H23244396   3.213   5.790   6.190  1.0311  0.0163 -2.8819
  123MOL   H23344397   3.385   5.797   6.160  0.0989 -1.8026  0.3461
  123MOL   H23444398   3.320   6.001   6.241 -0.3440 -0.6183 -1.4070
  123MOL   H23544399   3.259   5.944   6.398  0.6422 -2.6454  0.7189
  123MOL   C23644400   3.513   6.043   6.430 -0.1504 -0.0496 -0.0828
  123MOL   O23744401   3.450   6.144   6.445  0.6743 -0.2313  0.4419
  123MOL   C23844402   3.658   6.031   6.477 -0.4099 -0.4190  0.4471
  123MOL   C23944403   3.707   6.151   6.556  0.3906 -0.7722 -0.1984
  123MOL   C24044404   3.857   6.134   6.601 -0.4273  0.3984  0.6465
  123MOL   C24144405   3.949   6.132   6.478 -0.0530 -0.4702  0.0540
  123MOL   C24244406   4.092   6.138   6.518  0.3553  0.6115  0.2441
  123MOL   O24344407   4.137   6.036   6.610 -0.2912 -0.2350 -0.2719
  123MOL   H24444408   3.719   6.025   6.388  0.7514  0.0289  1.2067
  123MOL   H24544409   3.651   5.936   6.530  1.5802 -1.8055 -1.7117
  123MOL   H24644410   3.639   6.171   6.638 -0.8427  0.5216 -1.4870
  123MOL   H24744411   3.715   6.246   6.503  0.0008 -1.8259 -2.1964
  123MOL   H24844412   3.853   6.041   6.659  0.2752 -0.3679 -0.5237
  123MOL   H24944413   3.873   6.221   6.665  1.3097  1.3385 -1.0274
  123MOL   H25044414   3.934   6.221   6.418  0.5486 -0.8248 -0.6260
  123MOL   H25144415   3.928   6.042   6.420 -2.1781 -0.7299  1.1975
  123MOL   H25244416   4.155   6.135   6.429 -0.1761 -0.0872 -0.1063
  123MOL   H25344417   4.111   6.236   6.562  2.1703  0.2932  0.1729
  123MOL   C25444418   4.170   6.067   6.734 -0.4518  0.0131  0.0859
  123MOL   O25544419   4.161   6.178   6.789  0.1192  0.5855 -0.6488
  123MOL   C25644420   4.228   5.942   6.800 -0.0929  0.5333 -0.2960
  123MOL   C25744421   4.139   5.816   6.790 -0.7222 -0.1906 -0.3696
  123MOL   C25844422   4.170   5.736   6.660  0.1460  0.9385 -0.2447
  123MOL   C25944423   4.153   5.577   6.677  0.3822 -0.1274  0.1791
  123MOL   C26044424   4.147   5.502   6.548 -0.2295 -0.2452  0.0530
  123MOL   O26144425   4.262   5.539   6.462  0.0922 -0.2674  0.2687
  123MOL   H26244426   4.252   5.971   6.902  1.0469  2.4407 -1.0710
  123MOL   H26344427   4.322   5.928   6.745  0.2598 -0.7880  0.6340
  123MOL   H26444428   4.035   5.838   6.813 -0.9305 -1.9226  0.4576
  123MOL   H26544429   4.164   5.749   6.872  0.5014 -1.4301 -1.7118
  123MOL   H26644430   4.268   5.764   6.621  0.4297  0.9267  0.4537
  123MOL   H26744431   4.096   5.760   6.584 -0.4150 -0.1191 -0.0431
  123MOL   H26844432   4.071   5.554   6.745  0.4683 -1.9939 -0.3367
  123MOL   H26944433   4.242   5.539   6.729 -0.3532  0.6843  2.0936
  123MOL   H27044434   4.146   5.395   6.567 -0.8138 -0.5422 -1.5137
  123MOL   H27144435   4.055   5.525   6.492  0.7193  2.3957 -0.4735
  123MOL   C27244436   4.264   5.518   6.334  0.0998 -0.2321  0.1539
  123MOL   O27344437   4.170   5.477   6.261 -0.2114 -0.4098 -0.1153
  123MOL   C27444438   4.392   5.571   6.270  0.2462 -0.3205 -0.0647
  123MOL   C27544439   4.424   5.720   6.298 -0.0481  0.4117  0.0067
  123MOL   C27644440   4.327   5.820   6.238 -0.3005  0.7518 -0.3538
  123MOL   C27744441   4.374   5.969   6.228  0.4935  0.2795  0.3021
  123MOL   C27844442   4.392   6.031   6.364 -0.0347 -0.6222  0.3212
  123MOL   O27944443   4.409   6.170   6.350 -0.0173  0.1058 -0.0953
  123MOL   H28044444   4.376   5.560   6.163 -0.1850 -1.0081  0.0606
  123MOL   H28144445   4.479   5.509   6.291  0.6995  0.2579 -0.2246
  123MOL   H28244446   4.517   5.742   6.245 -0.2520 -1.1006 -0.9776
  123MOL   H28344447   4.446   5.733   6.404 -2.3901 -0.3021  0.6126
  123MOL   H28444448   4.239   5.815   6.302  0.6150 -1.0041  0.8003
  123MOL   H28544449   4.274   5.788   6.149 -2.2696 -0.5257  1.2310
  123MOL   H28644450   4.295   6.021   6.174  0.8614 -1.4520 -1.9453
  123MOL   H28744451   4.460   5.984   6.163  0.3089 -0.3136 -0.0826
  123MOL   H28844452   4.314   6.004   6.435  0.2590 -2.1080  0.0958
  123MOL   H28944453   4.485   5.993   6.407  0.1682  1.0859  1.4340
  123MOL   C29044454   4.438   6.249   6.451 -0.4781 -0.5929  0.6372
  123MOL   O29144455   4.454   6.210   6.564 -0.3048 -0.2639 -0.3511
  123MOL   C29244456   4.458   6.399   6.416 -0.1179  0.8186 -0.2600
  123MOL   C29344457   4.428   6.508   6.519 -0.0910  0.3790  0.0898
  123MOL   C29444458   4.290   6.493   6.596 -0.4218 -0.3478  0.9649
  123MOL   C29544459   4.167   6.479   6.505 -0.3132  0.2252  0.0252
  123MOL   C29644460   4.041   6.483   6.596 -0.5438 -0.3367 -0.4890
  123MOL   O29744461   3.932   6.497   6.505  0.0942 -0.3547  0.2298
  123MOL   H29844462   4.405   6.404   6.321 -0.4615 -2.7336 -0.3176
  123MOL   H29944463   4.564   6.403   6.391  0.1678 -0.1302  0.7228
  123MOL   H30044464   4.425   6.606   6.470 -1.7283  0.9780  1.3371
  123MOL   H30144465   4.508   6.510   6.592 -0.0547  1.8153  0.0281
  123MOL   H30244466   4.283   6.584   6.654 -1.8720  1.3331 -1.7374
  123MOL   H30344467   4.307   6.411   6.667 -1.8373  0.1481  1.8793
  123MOL   H30444468   4.175   6.393   6.438  0.9578  0.9383 -0.7471
  123MOL   H30544469   4.171   6.569   6.445 -0.5770  1.3541  1.6716
  123MOL   H30644470   4.026   6.397   6.661 -2.4945 -0.2713 -0.8285
  123MOL   H30744471   4.047   6.570   6.662 -2.0012  0.0509 -0.8398
  123MOL   C30844472   3.835   6.575   6.534 -0.1826 -0.0764  0.2832
  123MOL   O30944473   3.819   6.643   6.635 -0.2433 -0.1669  0.3090
  123MOL   C31044474   3.730   6.571   6.419  0.0131  0.3352 -0.5676
  123MOL   C31144475   3.588   6.512   6.451 -0.3134  0.1623 -0.0902
  123MOL   C31244476   3.514   6.586   6.567  0.2342 -0.3698  0.4976
  123MOL   C31344477   3.414   6.499   6.648  0.0368 -0.3380 -0.2660
  123MOL   C31444478   3.342   6.581   6.765  0.2463  0.3035  0.6503
  123MOL   O31544479   3.252   6.657   6.687  0.1898 -0.2403 -0.5382
  123MOL   H31644480   3.780   6.524   6.335  2.6299  1.2066  0.4606
  123MOL   H31744481   3.722   6.678   6.399  1.4969  0.9231  1.7784
  123MOL   H31844482   3.581   6.410   6.488 -1.8398  0.3948  0.3082
  123MOL   H31944483   3.532   6.515   6.358 -1.0326  0.0552  0.3358
  123MOL   H32044484   3.470   6.678   6.529  0.3309  0.1043  1.5166
  123MOL   H32144485   3.581   6.616   6.648  0.8974 -1.1228  0.2376
  123MOL   H32244486   3.471   6.425   6.705  1.5134  0.8333 -0.1728
  123MOL   H32344487   3.344   6.447   6.584 -0.6153  0.1595  0.0377
  123MOL   H32444488   3.288   6.514   6.831 -0.6240  0.9621  0.6260
  123MOL   H32544489   3.405   6.648   6.824  0.9770 -0.0922  0.3209
  123MOL   C32644490   3.130   6.613   6.683  0.6416  0.2138  0.4013
  123MOL   O32744491   3.070   6.544   6.768  0.3415 -0.3990  0.0432
  123MOL   C32844492   3.049   6.678   6.574  0.1296 -0.5392  0.2694
  123MOL   C32944493   3.117   6.655   6.432  0.2150 -0.5919 -0.5321
  123MOL   C33044494   3.108   6.506   6.389 -0.1035 -0.6608  0.1691
  123MOL   C33144495   3.158   6.478   6.247 -0.1670 -0.0893  0.5170
  123MOL   C33244496   3.162   6.330   6.224  0.4749  0.5463  0.2714
  123MOL   O33344497   3.219   6.321   6.092  0.7935  0.1466  0.0010
  123MOL   H33444498   3.028   6.783   6.592  1.2856 -0.0594 -1.0454
  123MOL   H33544499   2.949   6.636   6.576  0.3984 -1.2193 -0.0915
  123MOL   H33644500   3.216   6.699   6.427 -0.5249  0.9081 -3.0992
  123MOL   H33744501   3.057   6.725   6.374  1.9275 -0.2301 -1.8958
  123MOL   H33844502   3.002   6.482   6.398 -0.5728  1.0938 -0.3882
  123MOL   H33944503   3.164   6.435   6.449 -1.5959 -1.0358  1.1531
  123MOL   H34044504   3.259   6.518   6.234  0.2035 -0.7838  1.2356
  123MOL   H34144505   3.085   6.515   6.175 -0.6729 -3.9874 -1.0735
  123MOL   H34244506   3.228   6.282   6.296 -1.7282 -2.3724  0.4303
  123MOL   H34344507   3.058   6.298   6.233  0.9549 -1.0155  0.4492
  123MOL   C34444508   3.204   6.213   6.016  0.2816 -0.3849  0.4819
  123MOL   O34544509   3.190   6.098   6.058 -1.1255  0.6766  0.5897
  123MOL   C34644510   3.216   6.245   5.863 -0.5167 -0.3816  0.2180
  123MOL   C34744511   3.097   6.335   5.810 -0.1626  0.1471 -0.9425
  123MOL   C34844512   2.960   6.287   5.851  0.2045 -0.3767 -0.6055
  123MOL   C34944513   2.844   6.371   5.800  0.1409  0.1630  0.3613
  123MOL   C35044514   2.718   6.307   5.832 -0.4803  0.1997 -0.8864
  123MOL   O35144515   2.618   6.396   5.795  0.5539 -0.0686 -0.7251
  123MOL   H35244516   3.220   6.155   5.801 -0.1093  0.0808 -0.4293
  123MOL   H35344517   3.308   6.298   5.841 -0.4594 -0.3314  0.5700
  123MOL   H35444518   3.095   6.339   5.701  0.6379  3.9047 -0.8934
  123MOL   H35544519   3.109   6.438   5.843  0.4215 -0.3960  0.5633
  123MOL   H35644520   2.955   6.293   5.960  0.9092  2.9776 -0.6854
  123MOL   H35744521   2.944   6.187   5.811 -1.2883  0.1079 -1.2122
  123MOL   H35844522   2.849   6.378   5.691  0.1271  2.4306  0.4742
  123MOL   H35944523   2.841   6.474   5.835 -0.0349  0.0213  0.7607
  123MOL   H36044524   2.693   6.211   5.785 -0.4289  0.8553 -2.2843
  123MOL   H36144525   2.716   6.294   5.940  0.7732  2.9650 -0.4984
  123MOL   H36244526   2.645   6.486   5.810 -0.1202  0.0678 -0.3141
  124MOL     C144527   1.602   5.264   2.149  0.5863  0.0988  0.2306
  124MOL     O244528   1.625   5.200   2.050 -0.0420  0.4153 -0.0673
  124MOL     C344529   1.703   5.264   2.262 -0.2645 -1.0064 -0.6470
  124MOL     C444530   1.832   5.187   2.254  0.1585 -0.5366  0.4234
  124MOL     C544531   1.824   5.030   2.242  0.0218  0.8099 -0.2965
  124MOL     C644532   1.799   4.975   2.384  0.1485 -0.0430  0.3490
  124MOL     C744533   1.820   4.821   2.393 -0.2188  0.2671 -0.7322
  124MOL     O844534   1.740   4.758   2.295  0.3754 -0.5954 -0.9985
  124MOL     H944535   1.642   5.238   2.349 -2.4560  0.5099 -1.6763
  124MOL    H1044536   1.730   5.370   2.265 -1.7076 -0.5812 -1.7151
  124MOL    H1144537   1.891   5.215   2.341  1.2038 -1.1516 -0.0833
  124MOL    H1244538   1.892   5.223   2.171  1.4710 -0.4021  1.4106
  124MOL    H1344539   1.919   4.985   2.214 -0.7133 -0.5645 -0.6207
  124MOL    H1444540   1.762   4.976   2.171 -0.7990 -0.2960  1.2503
  124MOL    H1544541   1.699   4.994   2.423  0.8342  2.5104  0.9596
  124MOL    H1644542   1.875   5.021   2.447  1.0640 -1.8906  0.6294
  124MOL    H1744543   1.925   4.793   2.379 -0.6456 -0.8595 -1.8750
  124MOL    H1844544   1.794   4.782   2.491  1.6244 -0.6708 -0.5933
  124MOL    H1944545   1.512   5.324   2.166 -0.8615 -1.6718 -1.0864
  124MOL    C2044546   1.763   4.641   2.251 -0.7196 -0.8258 -0.5074
  124MOL    O2144547   1.858   4.569   2.285  0.5794  0.5219  0.0150
  124MOL    C2244548   1.655   4.585   2.164 -1.1406 -0.6077 -0.4088
  124MOL    C2344549   1.692   4.585   2.015 -0.1827 -0.1653 -0.0923
  124MOL    C2444550   1.693   4.716   1.940 -0.0625 -0.3101  0.0433
  124MOL    C2544551   1.729   4.697   1.794  0.2600 -1.4837 -0.0365
  124MOL    C2644552   1.681   4.816   1.712  0.6766  0.1484  0.4135
  124MOL    O2744553   1.755   4.933   1.750 -0.7126  0.6579 -0.2235
  124MOL    H2844554   1.572   4.650   2.189 -0.2700 -1.2200  4.5915
  124MOL    H2944555   1.621   4.490   2.205  0.0948 -1.0362 -0.3505
  124MOL    H3044556   1.609   4.522   1.982 -0.0931 -0.5881  0.4926
  124MOL    H3144557   1.787   4.533   2.000  1.7998  2.9548  1.2461
  124MOL    H3244558   1.764   4.785   1.986  0.3045 -1.6339  1.4946
  124MOL    H3344559   1.599   4.771   1.949 -0.0898 -0.6402  2.0168
  124MOL    H3444560   1.669   4.612   1.760  0.5346 -0.3448 -3.5806
  124MOL    H3544561   1.835   4.683   1.772 -0.1578 -0.4950 -2.8227
  124MOL    H3644562   1.672   4.798   1.605  1.7319  2.3497 -0.0772
  124MOL    H3744563   1.578   4.825   1.746  0.6588 -2.5091  1.1567
  124MOL    C3844564   1.729   5.053   1.711 -0.3459 -0.8106  0.4343
  124MOL    O3944565   1.631   5.087   1.643 -0.3961  0.2598  0.0172
  124MOL    C4044566   1.836   5.155   1.750 -0.1632  0.2711 -0.1252
  124MOL    C4144567   1.914   5.211   1.628 -0.1050  0.3874 -0.4028
  124MOL    C4244568   1.851   5.340   1.586  0.7880  0.2679 -0.2105
  124MOL    C4344569   1.881   5.369   1.440 -0.2133 -0.6622 -0.2558
  124MOL    C4444570   1.811   5.503   1.406  0.4367  0.8324 -0.4906
  124MOL    O4544571   1.869   5.550   1.286 -0.3273 -0.1309  0.2784
  124MOL    H4644572   1.908   5.110   1.818  0.1653  0.1664 -0.5358
  124MOL    H4744573   1.785   5.235   1.803 -0.3035  1.3635 -1.8710
  124MOL    H4844574   1.916   5.147   1.540 -1.4242 -1.5142  0.9230
  124MOL    H4944575   2.019   5.225   1.651 -0.2857 -0.9400  1.2923
  124MOL    H5044576   1.897   5.420   1.645  1.7999 -1.6166  1.6071
  124MOL    H5144577   1.745   5.343   1.609  0.8120  1.1955 -0.1953
  124MOL    H5244578   1.846   5.290   1.373  0.1409 -0.0080 -1.2224
  124MOL    H5344579   1.989   5.381   1.433  0.1151 -2.1914  1.8305
  124MOL    H5444580   1.703   5.487   1.405  0.7103 -1.1317 -0.9005
  124MOL    H5544581   1.830   5.580   1.480  0.7878 -2.0703  2.5349
  124MOL    C5644582   1.802   5.617   1.200  0.7335 -0.0272  0.2197
  124MOL    O5744583   1.682   5.634   1.199  0.0503 -0.8595  0.0014
  124MOL    C5844584   1.895   5.686   1.099  0.7404  0.3975  1.0078
  124MOL    C5944585   1.981   5.796   1.157  0.6783 -0.2659  0.0764
  124MOL    C6044586   2.066   5.767   1.275  0.0766  0.3281  0.3919
  124MOL    C6144587   2.156   5.876   1.324  0.5475 -0.2463 -0.2500
  124MOL    C6244588   2.279   5.878   1.237  0.0158  0.0095  0.0353
  124MOL    O6344589   2.364   5.996   1.246 -0.2429  0.1460 -0.0898
  124MOL    H6444590   1.827   5.733   1.028 -0.5653 -1.2611  1.1229
  124MOL    H6544591   1.954   5.610   1.048 -0.4056 -0.2729  0.6404
  124MOL    H6644592   1.904   5.872   1.167 -0.1074 -0.6429 -2.5637
  124MOL    H6744593   2.037   5.843   1.076  2.1154 -0.2407  1.0782
  124MOL    H6844594   2.123   5.675   1.260  0.0905  0.2923  0.6696
  124MOL    H6944595   2.001   5.738   1.357 -0.2803  0.0805  0.0196
  124MOL    H7044596   2.184   5.851   1.427 -2.8214  0.5287  0.9292
  124MOL    H7144597   2.107   5.973   1.327  0.7941 -0.1366  0.3850
  124MOL    H7244598   2.325   5.788   1.278 -1.1813 -0.5273  0.2440
  124MOL    H7344599   2.267   5.867   1.129  2.8004 -0.1884 -0.2910
  124MOL    C7444600   2.488   5.981   1.297  0.4028 -0.5021 -0.0435
  124MOL    O7544601   2.529   5.879   1.345  0.0256  0.5695  0.0213
  124MOL    C7644602   2.579   6.102   1.283  0.2344  0.5245  0.3197
  124MOL    C7744603   2.645   6.106   1.140  0.3535  0.1151 -0.5602
  124MOL    C7844604   2.538   6.119   1.024  0.1422 -0.2422  0.4323
  124MOL    C7944605   2.598   6.165   0.886  0.2574  0.2696  0.4112
  124MOL    C8044606   2.504   6.175   0.759 -0.4608 -0.0864  0.1169
  124MOL    O8144607   2.588   6.190   0.640  0.0918 -0.1165 -0.4152
  124MOL    H8244608   2.651   6.104   1.365 -1.2779 -0.1652  1.7001
  124MOL    H8344609   2.508   6.185   1.285 -0.7369 -0.1808 -2.4655
  124MOL    H8444610   2.688   6.008   1.120  0.9343  0.4830 -1.1148
  124MOL    H8544611   2.722   6.183   1.130  2.8685 -2.5175 -2.2083
  124MOL    H8644612   2.465   6.193   1.057 -0.7408 -1.5752  1.5697
  124MOL    H8744613   2.491   6.021   1.008  1.5593 -0.7737 -0.5321
  124MOL    H8844614   2.667   6.083   0.865 -0.6204 -0.0158 -1.3865
  124MOL    H8944615   2.645   6.263   0.895  1.3392 -0.2957  0.9743
  124MOL    H9044616   2.448   6.082   0.747 -1.6984  0.6670  0.0427
  124MOL    H9144617   2.435   6.259   0.756  0.7576  0.9000 -1.3061
  124MOL    C9244618   2.532   6.150   0.523  0.6370  0.0217 -0.3110
  124MOL    O9344619   2.423   6.092   0.501 -0.4393  0.2413  0.0718
  124MOL    C9444620   2.617   6.194   0.406 -0.1168 -0.0273  0.6178
  124MOL    C9544621   2.759   6.144   0.413  0.1769  0.2990 -0.0979
  124MOL    C9644622   2.845   6.202   0.302  0.6083 -0.7690  0.4231
  124MOL    C9744623   2.990   6.159   0.307 -0.4744 -0.3029  0.0239
  124MOL    C9844624   3.070   6.224   0.197 -0.4051 -0.0413  0.0429
  124MOL    O9944625   3.041   6.186   0.061  0.0814 -0.2444  0.0120
  124MOL   H10044626   2.615   6.302   0.399 -0.0447  0.0155  1.2077
  124MOL   H10144627   2.578   6.163   0.309  2.1475  0.1944 -0.3885
  124MOL   H10244628   2.757   6.035   0.405 -1.4778  0.1722  1.6665
  124MOL   H10344629   2.790   6.171   0.514 -3.0369  0.7669  0.8074
  124MOL   H10444630   2.837   6.311   0.303  1.3284 -0.7088 -0.0712
  124MOL   H10544631   2.808   6.175   0.203 -0.0836 -1.6529  0.9175
  124MOL   H10644632   2.985   6.052   0.290 -0.2267 -0.0608 -1.6927
  124MOL   H10744633   3.031   6.188   0.404  0.9126 -0.7917 -0.4079
  124MOL   H10844634   3.067   6.333   0.199 -0.9453 -0.0433 -0.4214
  124MOL   H10944635   3.175   6.208   0.221 -0.2933 -0.3532 -0.6289
  124MOL   C11044636   3.119   6.090   0.009  0.0542  0.6407 -0.5635
  124MOL   O11144637   3.202   6.021   0.069  0.0664  0.0763  0.1415
  124MOL   C11244638   3.103   6.072   7.699  0.5289 -0.2811 -0.8059
  124MOL   C11344639   3.223   6.008   7.638  0.1946  0.0770  0.4144
  124MOL   C11444640   3.222   5.852   7.653  0.3207 -0.1030  0.0066
  124MOL   C11544641   3.364   5.798   7.631 -0.0172 -0.5498  0.4535
  124MOL   C11644642   3.354   5.654   7.616 -0.3250  0.0468 -0.3996
  124MOL   O11744643   3.338   5.613   7.754  0.1818  0.5380 -0.3359
  124MOL   H11844644   3.107   6.176   7.666 -0.1624 -0.2498 -0.7958
  124MOL   H11944645   3.009   6.030   7.663 -0.1971  0.5621  0.0714
  124MOL   H12044646   3.315   6.046   7.683  0.3237  1.3371 -0.8995
  124MOL   H12144647   3.221   6.038   7.533  1.5734  1.3004  0.7167
  124MOL   H12244648   3.161   5.814   7.571 -1.3737  1.4562  0.4954
  124MOL   H12344649   3.176   5.823   7.747 -0.2079  0.4494 -0.0784
  124MOL   H12444650   3.430   5.817   7.715  1.1630  3.7314 -1.3099
  124MOL   H12544651   3.417   5.845   7.548 -3.1290  3.1062  0.3742
  124MOL   H12644652   3.273   5.629   7.547  1.3655 -1.8641 -1.7271
  124MOL   H12744653   3.444   5.603   7.582 -0.0300 -0.2284  0.7532
  124MOL   C12844654   3.333   5.479   7.775 -0.0676  0.0622 -0.2648
  124MOL   O12944655   3.327   5.395   7.686  0.3169 -0.2815  0.0575
  124MOL   C13044656   3.351   5.434   0.078 -0.6660 -0.0882 -0.0330
  124MOL   C13144657   3.496   5.439   0.124 -0.5598 -0.3167 -0.7298
  124MOL   C13244658   3.575   5.310   0.085 -0.1394  0.1737  0.3922
  124MOL   C13344659   3.726   5.311   0.136  0.0418  0.3423 -0.5887
  124MOL   C13444660   3.829   5.207   0.076 -0.3128  0.3041 -0.8549
  124MOL   O13544661   3.849   5.234   7.781 -0.0692  0.2655  0.1565
  124MOL   H13644662   3.323   5.329   0.078  0.5968 -0.4717  2.1420
  124MOL   H13744663   3.293   5.502   0.140 -1.6042 -1.2795  0.4128
  124MOL   H13844664   3.490   5.458   0.232  2.3510  0.1490 -0.6090
  124MOL   H13944665   3.544   5.529   0.086  0.3439 -1.2984 -1.9542
  124MOL   H14044666   3.575   5.308   7.820  2.2323  3.2585  0.2379
  124MOL   H14144667   3.521   5.222   0.120 -0.2397 -0.5977 -1.6263
  124MOL   H14244668   3.722   5.293   0.243  1.6321 -1.2718 -0.7854
  124MOL   H14344669   3.767   5.412   0.129  0.8295  0.0811  0.1454
  124MOL   H14444670   3.926   5.210   0.125 -0.7072  0.6589 -0.0808
  124MOL   H14544671   3.811   5.101   0.094  1.2522  0.2694  0.6570
  124MOL   C14644672   3.923   5.146   7.714  0.5120 -0.0826 -0.5694
  124MOL   O14744673   3.965   5.040   7.760  0.3161 -0.2110  0.2587
  124MOL   C14844674   3.953   5.197   7.572 -0.2505 -0.2189 -0.0640
  124MOL   C14944675   4.097   5.245   7.571  0.0793 -0.1881 -0.3874
  124MOL   C15044676   4.125   5.310   7.431 -0.1236 -0.5327 -0.1925
  124MOL   C15144677   4.272   5.344   7.389  0.5400 -0.3561  0.1921
  124MOL   C15244678   4.288   5.409   7.251  0.2379 -0.3157 -0.6101
  124MOL   O15344679   4.245   5.321   7.154 -0.1371  0.2693 -0.2552
  124MOL   H15444680   3.893   5.283   7.540  3.1785  3.1206  1.9570
  124MOL   H15544681   3.925   5.110   7.513 -0.1494  0.2179 -0.7657
  124MOL   H15644682   4.173   5.170   7.590 -1.2611 -1.1066  1.4786
  124MOL   H15744683   4.100   5.318   7.652  1.2502  0.5710 -1.0958
  124MOL   H15844684   4.077   5.407   7.448 -0.0382 -0.6912  0.9943
  124MOL   H15944685   4.077   5.256   7.349  2.8896  0.2330 -2.5558
  124MOL   H16044686   4.323   5.248   7.392  1.1585 -0.0853 -1.3722
  124MOL   H16144687   4.325   5.410   7.458 -0.8899  0.3430  0.6379
  124MOL   H16244688   4.236   5.504   7.253  1.3897  0.3424 -1.2777
  124MOL   H16344689   4.392   5.430   7.225  0.6473 -0.5622  0.7805
  124MOL   C16444690   4.184   5.365   7.040 -0.0512  0.3206 -0.0359
  124MOL   O16544691   4.156   5.483   7.013 -0.0618 -0.1252  0.1662
  124MOL   C16644692   4.154   5.256   6.946 -0.4378  0.5852 -0.4210
  124MOL   C16744693   4.046   5.149   6.987  0.1920  0.2708  0.2313
  124MOL   C16844694   3.896   5.197   7.000 -0.7767  0.4459  0.0709
  124MOL   C16944695   3.834   5.166   7.128  0.0806  0.0086 -0.3485
  124MOL   C17044696   3.683   5.200   7.117  1.0058 -0.0297  0.1518
  124MOL   O17144697   3.614   5.182   7.243 -0.3870  0.5919 -0.0973
  124MOL   H17244698   4.252   5.211   6.929  0.1442  2.0377 -0.9751
  124MOL   H17344699   4.120   5.303   6.853 -1.1299  0.5116 -0.2082
  124MOL   H17444700   4.092   5.101   7.073  0.7756 -0.8989 -0.7195
  124MOL   H17544701   4.050   5.076   6.906 -1.4346  0.1535  0.2425
  124MOL   H17644702   3.845   5.143   6.921 -1.2578  2.7216 -1.2177
  124MOL   H17744703   3.887   5.302   6.974 -2.1061  0.4433  0.5242
  124MOL   H17844704   3.893   5.232   7.191 -1.5885  0.4083  0.8122
  124MOL   H17944705   3.848   5.060   7.150  2.3674  0.7448  1.9691
  124MOL   H18044706   3.680   5.308   7.101 -1.5223  0.3149  2.6926
  124MOL   H18144707   3.627   5.153   7.036 -0.3579  1.6814  0.0664
  124MOL   C18244708   3.486   5.211   7.246  0.3241 -0.9105  0.2895
  124MOL   O18344709   3.416   5.244   7.147 -0.2347 -0.4252  0.5556
  124MOL   C18444710   3.429   5.211   7.389  0.1607 -0.4445 -0.2035
  124MOL   C18544711   3.273   5.203   7.388  1.3699 -0.2161 -0.0401
  124MOL   C18644712   3.218   5.066   7.337 -0.1724  0.2162 -0.1600
  124MOL   C18744713   3.067   5.066   7.318  0.4797  0.3764  0.0888
  124MOL   C18844714   3.017   4.951   7.226  0.1792 -0.1681 -0.0963
  124MOL   O18944715   3.023   4.826   7.292  0.8738  0.6665 -0.5477
  124MOL   H19044716   3.464   5.295   7.449 -0.2118  0.0545 -0.6840
  124MOL   H19144717   3.481   5.132   7.443  2.4885  1.5815  0.6425
  124MOL   H19244718   3.225   5.286   7.336 -0.6844  0.1804  2.3670
  124MOL   H19344719   3.231   5.225   7.487 -1.1564 -0.3038 -1.0424
  124MOL   H19444720   3.245   4.976   7.393  1.3258 -0.7200 -2.3104
  124MOL   H19544721   3.258   5.040   7.239  0.0292 -1.0235  0.2434
  124MOL   H19644722   3.019   5.157   7.281 -0.5381 -0.9278 -1.8755
  124MOL   H19744723   3.015   5.063   7.414  0.4340 -0.5445  0.0355
  124MOL   H19844724   2.911   4.967   7.209 -0.3788 -0.8285  2.5008
  124MOL   H19944725   3.073   4.949   7.133  0.0725 -2.5858 -0.1257
  124MOL   C20044726   2.908   4.766   7.343 -0.7831  0.3179  0.3156
  124MOL   O20144727   2.790   4.794   7.320  0.2616 -0.6478 -0.0457
  124MOL   C20244728   2.945   4.637   7.412  0.4468  0.1288 -0.1924
  124MOL   C20344729   3.024   4.661   7.544 -0.2932 -0.1730  0.1870
  124MOL   C20444730   3.103   4.540   7.596  0.6341  0.2905  0.2854
  124MOL   C20544731   3.018   4.418   7.628  0.4354  0.2195 -0.3623
  124MOL   C20644732   3.107   4.295   7.664  0.3070  0.3172 -0.0670
  124MOL   O20744733   3.177   4.316   7.784  0.1031 -0.8473 -0.0052
  124MOL   H20844734   3.004   4.578   7.342  1.8481  1.5308 -0.2440
  124MOL   H20944735   2.853   4.584   7.433 -1.5596  2.8430 -1.7748
  124MOL   H21044736   2.954   4.678   7.626  2.1881 -1.0455  2.5668
  124MOL   H21144737   3.091   4.746   7.531 -1.3629  0.4856 -1.1347
  124MOL   H21244738   3.168   4.571   7.677  1.4686 -1.5906  0.3737
  124MOL   H21344739   3.173   4.502   7.521 -1.7606  1.5926 -2.7668
  124MOL   H21444740   2.948   4.390   7.549 -2.6889  0.0229  2.3460
  124MOL   H21544741   2.949   4.444   7.708  0.2363 -1.3410 -0.0023
  124MOL   H21644742   3.044   4.207   7.678  1.7337 -0.5246  1.1416
  124MOL   H21744743   3.173   4.283   7.579  0.8051 -0.0072  0.3706
  124MOL   C21844744   3.125   4.279   0.052  0.4126  0.5746  0.5864
  124MOL   O21944745   3.010   4.238   0.068 -0.6694 -0.0524 -0.4890
  124MOL   C22044746   3.222   4.282   0.164  0.4163 -0.0554 -0.0088
  124MOL   C22144747   3.188   4.384   0.273  0.2613  0.1313  0.5324
  124MOL   C22244748   3.133   4.519   0.225 -0.6095  0.9458  0.0681
  124MOL   C22344749   3.241   4.606   0.164  1.0637 -0.0898 -0.7857
  124MOL   C22444750   3.170   4.740   0.126 -0.7583  0.6502  0.1019
  124MOL   O22544751   3.266   4.839   0.092 -0.3637  0.4537 -0.0222
  124MOL   H22644752   3.320   4.320   0.132  1.0773 -1.7155 -0.0241
  124MOL   H22744753   3.246   4.185   0.208  1.5692 -0.0277 -0.5307
  124MOL   H22844754   3.276   4.390   0.337 -0.0832 -1.4236  1.1741
  124MOL   H22944755   3.106   4.340   0.330  0.0362  1.1822  1.0320
  124MOL   H23044756   3.094   4.569   0.314 -1.5088 -0.5294  0.5249
  124MOL   H23144757   3.048   4.513   0.156  0.5866 -0.8667 -1.2934
  124MOL   H23244758   3.286   4.553   0.080  0.8055  0.0909 -1.0372
  124MOL   H23344759   3.322   4.632   0.232  0.9286 -0.2893 -0.5490
  124MOL   H23444760   3.078   4.726   0.069 -0.0307 -0.0700 -0.9201
  124MOL   H23544761   3.137   4.781   0.221 -3.7574  0.4194 -0.7904
  124MOL   C23644762   3.250   4.919   7.834 -0.2906  0.6310  0.2051
  124MOL   O23744763   3.170   4.905   7.740 -0.4043 -0.0951  0.0112
  124MOL   C23844764   3.360   5.026   7.828  0.2399  0.5057 -0.4673
  124MOL   C23944765   3.465   4.997   7.714  0.6683  0.1724  0.3606
  124MOL   C24044766   3.565   4.880   7.757 -0.2481 -0.0855 -0.1531
  124MOL   C24144767   3.659   4.858   7.640 -0.8985  0.1727 -0.2396
  124MOL   C24244768   3.730   4.725   7.657  0.1036 -0.0258  0.4503
  124MOL   O24344769   3.816   4.708   7.542  0.2323  0.3980  0.3002
  124MOL   H24444770   3.407   5.037   0.081 -0.2090 -1.5671  0.0098
  124MOL   H24544771   3.304   5.116   7.800 -0.9378 -0.1333 -0.1684
  124MOL   H24644772   3.517   5.092   7.704  0.6391  0.1741  0.2248
  124MOL   H24744773   3.408   4.968   7.626  0.3888 -0.1810  0.6565
  124MOL   H24844774   3.508   4.789   7.777 -1.7487  1.4818  3.0283
  124MOL   H24944775   3.618   4.907   0.004  0.0659 -0.1268 -0.3241
  124MOL   H25044776   3.740   4.930   7.639 -0.6232 -0.1135  0.5823
  124MOL   H25144777   3.610   4.857   7.543  1.0812  5.3973 -1.4189
  124MOL   H25244778   3.785   4.712   7.750 -0.6391  2.6112  1.3094
  124MOL   H25344779   3.654   4.648   7.646  1.5184 -1.3453 -0.2928
  124MOL   C25444780   3.948   4.701   7.555 -0.3962 -0.4290 -0.6459
  124MOL   O25544781   4.003   4.656   7.653  0.0165 -0.1326  0.3304
  124MOL   C25644782   4.030   4.724   7.429 -0.2941  0.4264 -0.2081
  124MOL   C25744783   4.018   4.867   7.378 -0.1019 -0.2732  0.0283
  124MOL   C25844784   4.136   4.886   7.280  0.5874  0.4916 -0.1435
  124MOL   C25944785   4.112   4.794   7.154  0.6777  0.1732 -0.0776
  124MOL   C26044786   4.220   4.822   7.046  0.0794 -0.5920 -0.0171
  124MOL   O26144787   4.341   4.764   7.088 -0.2521 -0.4973  0.1144
  124MOL   H26244788   4.007   4.647   7.355 -1.3508 -0.9067  1.4675
  124MOL   H26344789   4.134   4.704   7.456  0.3152  0.0139 -2.7689
  124MOL   H26444790   4.029   4.940   7.458  0.1650 -1.4973  1.1180
  124MOL   H26544791   3.923   4.882   7.326  0.0601  1.6289  0.2450
  124MOL   H26644792   4.232   4.838   7.299  1.1500  0.2331 -3.2944
  124MOL   H26744793   4.138   4.993   7.259 -1.6005  0.8034  1.1148
  124MOL   H26844794   4.013   4.813   7.112  1.5588  1.6414 -1.5473
  124MOL   H26944795   4.115   4.686   7.171  1.6879  0.5382  2.2895
  124MOL   H27044796   4.183   4.787   6.950 -0.7102 -1.4868  0.6019
  124MOL   H27144797   4.231   4.930   7.038  0.1135 -0.5464  0.6209
  124MOL   C27244798   4.424   4.714   6.998  0.4591  0.5896  0.7980
  124MOL   O27344799   4.414   4.723   6.880 -0.0353  0.2758  0.1529
  124MOL   C27444800   4.555   4.666   7.065 -0.2050  0.2605  0.5912
  124MOL   C27544801   4.621   4.556   6.991 -0.0118 -0.3350  0.0649
  124MOL   C27644802   4.666   4.438   7.076  0.0779  0.1024 -0.2397
  124MOL   C27744803   4.758   4.482   7.193  0.6477 -0.3246 -0.0713
  124MOL   C27844804   4.799   4.360   7.273  0.0270 -0.0127 -0.0710
  124MOL   O27944805   4.876   4.272   7.192  0.1031 -0.5360 -0.3726
  124MOL   H28044806   4.529   4.628   7.164 -0.3168 -0.7774  0.1717
  124MOL   H28144807   4.609   4.759   7.077  2.1097 -1.0489  0.5635
  124MOL   H28244808   4.709   4.590   6.937  0.8759 -0.4889  1.4067
  124MOL   H28344809   4.554   4.518   6.913  1.4978 -2.7911 -0.0913
  124MOL   H28444810   4.705   4.365   7.005  0.0347 -0.8571  0.7019
  124MOL   H28544811   4.571   4.399   7.112 -0.2813  0.1162 -1.1787
  124MOL   H28644812   4.711   4.560   7.252  0.0305  1.4345 -2.7585
  124MOL   H28744813   4.848   4.514   7.140  0.8589  0.8243  0.9802
  124MOL   H28844814   4.854   4.383   7.364  1.8655 -2.4404 -0.5164
  124MOL   H28944815   4.700   4.319   7.293  0.8734 -1.7156  0.7258
  124MOL   C29044816   4.873   4.141   7.205  0.5809  0.4916 -0.0130
  124MOL   O29144817   4.816   4.090   7.304 -0.3533  0.1707 -0.3127
  124MOL   C29244818   4.930   4.058   7.094 -0.4854 -0.6993 -0.1726
  124MOL   C29344819   5.072   4.111   7.056  0.8123  0.5729 -0.0328
  124MOL   C29444820   5.174   4.135   7.165 -0.1005 -0.2766 -0.0932
  124MOL   C29544821   5.208   4.001   7.236  0.5295 -0.3477 -0.1606
  124MOL   C29644822   5.307   4.011   7.353 -0.3937  0.1148  0.0966
  124MOL   O29744823   5.335   3.888   7.417  0.2074  0.4082 -0.0664
  124MOL   H29844824   4.863   4.063   7.009 -0.6416 -1.0168 -0.0681
  124MOL   H29944825   4.937   3.954   7.126 -1.8054 -0.7573 -0.0553
  124MOL   H30044826   5.050   4.200   6.997  1.6313  0.1498 -0.9850
  124MOL   H30144827   5.119   4.052   6.978  0.2529  2.7167 -2.0353
  124MOL   H30244828   5.140   4.212   7.234 -0.2409  0.7987 -1.3347
  124MOL   H30344829   5.267   4.177   7.127  0.5506 -0.8467  0.8482
  124MOL   H30444830   5.244   3.930   7.162 -1.3166 -2.2071  0.6643
  124MOL   H30544831   5.120   3.961   7.286 -0.2502  0.3687 -0.9304
  124MOL   H30644832   5.399   4.063   7.325 -0.0609  0.1312  1.2064
  124MOL   H30744833   5.259   4.082   7.420  0.1238  0.1574  0.4235
  124MOL   C30844834   5.432   3.806   7.365  0.4828 -0.2811  0.3068
  124MOL   O30944835   5.514   3.843   7.281  0.1125  0.6051 -0.2245
  124MOL   C31044836   5.436   3.661   7.422  0.2022 -0.0647 -0.2875
  124MOL   C31144837   5.403   3.538   7.335 -1.1337  0.1072  0.7142
  124MOL   C31244838   5.524   3.484   7.276  0.2312  0.4626  0.3444
  124MOL   C31344839   5.509   3.373   7.171  0.5285  0.0011 -0.1700
  124MOL   C31444840   5.638   3.334   7.102  0.1813 -0.3178  0.5090
  124MOL   O31544841   5.739   3.285   7.190 -1.3090  0.2920 -0.3704
  124MOL   H31644842   5.360   3.658   7.500  0.3891  1.5324 -0.0210
  124MOL   H31744843   5.527   3.639   7.479  0.5186 -2.2090 -1.5638
  124MOL   H31844844   5.338   3.552   7.249  0.3136 -2.0470 -0.7835
  124MOL   H31944845   5.362   3.466   7.405 -0.8045 -0.2883  0.4991
  124MOL   H32044846   5.586   3.441   7.355 -0.3806 -0.2318  0.4473
  124MOL   H32144847   5.584   3.563   7.231 -1.0774  1.0612 -0.3884
  124MOL   H32244848   5.428   3.387   7.100  1.4335  0.6907 -1.0818
  124MOL   H32344849   5.487   3.272   7.207  1.5755 -0.4762 -0.8272
  124MOL   H32444850   5.615   3.254   7.032 -1.8146 -0.2490  1.0579
  124MOL   H32544851   5.670   3.419   7.042  2.4690  1.2496  3.7729
  124MOL   C32644852   5.840   3.366   7.228  0.8627  0.0193  0.1560
  124MOL   O32744853   5.857   3.484   7.209  0.3719 -0.0154  0.5111
  124MOL   C32844854   5.923   3.303   7.336 -0.1274  0.5219 -0.1259
  124MOL   C32944855   5.936   3.387   7.464  0.4655 -0.3085  0.0900
  124MOL   C33044856   5.984   3.295   7.578 -0.1571 -0.5467 -0.5019
  124MOL   C33144857   5.871   3.225   7.656  0.2560  0.9040 -0.2180
  124MOL   C33244858   5.926   3.148   7.775  0.3140 -0.3072  0.0073
  124MOL   O33344859   5.828   3.133   0.030 -0.2028 -0.4141  0.0885
  124MOL   H33444860   6.016   3.271   7.290 -0.9338 -2.5721  0.2884
  124MOL   H33544861   5.877   3.207   7.359 -0.2759  0.2647 -1.4910
  124MOL   H33644862   5.846   3.438   7.500  1.4327  1.5769 -0.0974
  124MOL   H33744863   6.010   3.464   7.441 -0.1518  0.2895  0.0679
  124MOL   H33844864   6.026   3.365   7.650 -0.9097 -0.6585  0.0444
  124MOL   H33944865   6.071   3.235   7.548  2.7249  3.4370 -0.4439
  124MOL   H34044866   5.803   3.170   7.591  0.2159 -2.6714  2.6457
  124MOL   H34144867   5.804   3.297   7.702 -0.4807  0.6450 -0.8698
  124MOL   H34244868   5.965   3.051   7.745 -1.0763 -0.1626 -2.3734
  124MOL   H34344869   6.004   3.206   7.823  2.4677 -2.9606 -0.2051
  124MOL   C34444870   5.732   3.043   0.030  0.2428  0.3020 -0.3605
  124MOL   O34544871   5.726   2.953   7.791  0.2761  0.8869  0.1803
  124MOL   C34644872   5.645   3.044   0.159 -0.8776 -0.5665  0.3001
  124MOL   C34744873   5.535   2.948   0.178  0.3565 -0.1154  0.2047
  124MOL   C34844874   5.406   2.980   0.098 -0.3805  0.2991  0.0499
  124MOL   C34944875   5.292   2.887   0.143  0.1745 -0.9349  0.0198
  124MOL   C35044876   5.154   2.897   0.066 -1.2910 -0.5171  0.2800
  124MOL   O35144877   5.085   3.014   0.092  0.3991 -0.4028 -0.2081
  124MOL   H35244878   5.606   3.146   0.158 -0.4217 -0.3994 -0.9041
  124MOL   H35344879   5.716   3.053   0.241 -0.6102  0.1405 -0.0059
  124MOL   H35444880   5.511   2.928   0.282  0.0872 -0.3021  0.1070
  124MOL   H35544881   5.571   2.851   0.144  1.6794  0.8896 -1.2824
  124MOL   H35644882   5.427   2.967   7.836 -0.5194  0.9813 -0.0662
  124MOL   H35744883   5.381   3.086   0.108 -0.8625  0.0302  1.8413
  124MOL   H35844884   5.277   2.907   0.249 -1.1198 -0.6989 -0.1919
  124MOL   H35944885   5.333   2.787   0.132 -0.0809 -1.1438  0.8957
  124MOL   H36044886   5.179   2.889   7.805 -0.5051 -0.2365  0.4414
  124MOL   H36144887   5.087   2.814   0.090 -2.2576  0.0641 -0.3829
  124MOL   H36244888   5.066   3.044   0.004  0.5227 -1.5612 -0.6385
  125MOL     C144889   0.722   3.489   7.047  0.1143 -0.7202 -0.1326
  125MOL     O244890   0.688   3.565   6.950  0.3155  0.4896 -0.4271
  125MOL     C344891   0.773   3.544   7.183 -0.1282  0.1171 -0.0845
  125MOL     C444892   0.881   3.653   7.185 -0.5274  0.0722  0.7487
  125MOL     C544893   0.804   3.787   7.182  0.1731  0.1422  0.0294
  125MOL     C644894   0.887   3.921   7.174 -0.1538  0.5733 -0.0422
  125MOL     C744895   0.811   4.054   7.156 -0.6711 -0.0699  0.3880
  125MOL     O844896   0.708   4.056   7.060 -0.2186  0.1856  0.5457
  125MOL     H944897   0.814   3.450   7.222  0.5470 -1.0085 -3.3381
  125MOL    H1044898   0.693   3.567   7.253 -0.4532 -1.2578  0.0188
  125MOL    H1144899   0.948   3.630   7.102 -0.7193  0.8892  0.3624
  125MOL    H1244900   0.943   3.641   7.273 -1.8827  1.1478  1.8848
  125MOL    H1344901   0.738   3.792   7.269  0.4472 -1.3281  0.3302
  125MOL    H1444902   0.732   3.788   7.100  1.6850  1.8867 -1.3101
  125MOL    H1544903   0.946   3.903   7.084 -0.1574  2.6986 -0.4904
  125MOL    H1644904   0.955   3.913   7.258 -0.5000 -2.4054  0.0267
  125MOL    H1744905   0.770   4.081   7.253 -1.3454  0.1792  0.0335
  125MOL    H1844906   0.891   4.126   7.134 -1.1385  0.0738 -0.8791
  125MOL    H1944907   0.712   3.381   7.033  1.2450 -0.6634 -1.5001
  125MOL    C2044908   0.627   4.164   7.066  0.3682  0.3578  0.6633
  125MOL    O2144909   0.635   4.254   7.151 -0.3035  0.0665  0.5831
  125MOL    C2244910   0.534   4.178   6.944  0.3293 -0.6736 -0.8022
  125MOL    C2344911   0.422   4.073   6.926 -0.1727 -0.0565 -0.1122
  125MOL    C2444912   0.469   3.927   6.925  0.6861 -0.4440 -0.5224
  125MOL    C2544913   0.352   3.835   6.888 -0.1431  0.2005  0.9275
  125MOL    C2644914   0.385   3.687   6.925  0.4359  0.1229 -0.1029
  125MOL    O2744915   0.268   3.610   6.898 -0.0240  0.2539 -0.0689
  125MOL    H2844916   0.594   4.171   6.853 -0.7744 -0.5113 -1.5488
  125MOL    H2944917   0.494   4.279   6.944  0.5889 -0.5641  1.5359
  125MOL    H3044918   0.386   4.080   6.824  1.2917  0.0708 -0.6339
  125MOL    H3144919   0.347   4.089   7.003 -1.2552 -0.4871 -1.0693
  125MOL    H3244920   0.512   3.893   7.019 -0.9777  0.6434  0.6490
  125MOL    H3344921   0.542   3.904   6.847 -0.5312 -3.2867 -0.9026
  125MOL    H3444922   0.317   3.850   6.786 -0.0240 -0.9712  0.7081
  125MOL    H3544923   0.276   3.868   6.959  0.0997  2.1695  0.2931
  125MOL    H3644924   0.473   3.659   6.869 -0.0213  0.7543 -1.1553
  125MOL    H3744925   0.424   3.681   7.027  0.6321  0.0775 -0.1826
  125MOL    C3844926   0.231   3.564   6.779 -0.6255  0.2546  0.3500
  125MOL    O3944927   0.284   3.602   6.678 -0.2241 -1.0086 -0.2026
  125MOL    C4044928   0.111   3.469   6.773 -0.2528  0.1392 -0.1493
  125MOL    C4144929   0.136   3.348   6.681  0.3088  1.1246 -0.4195
  125MOL    C4244930   0.018   3.251   6.663  0.0601 -0.4965 -0.1388
  125MOL    C4344931   7.836   3.178   6.790  0.3197  0.0822 -0.9620
  125MOL    C4444932   7.741   3.057   6.779 -0.8348 -0.4482  0.2548
  125MOL    O4544933   7.801   2.947   6.723 -0.0272 -0.3105 -0.3291
  125MOL    H4644934   0.024   3.522   6.735 -0.2085  0.9377  0.8268
  125MOL    H4744935   0.091   3.419   6.868  0.0691 -0.0085 -0.1564
  125MOL    H4844936   0.223   3.287   6.702  0.2614  0.4506 -2.1104
  125MOL    H4944937   0.157   3.385   6.580  2.2866 -1.1227 -0.8649
  125MOL    H5044938   0.048   3.174   6.593  0.3683 -0.6941  0.2146
  125MOL    H5144939   7.774   3.303   6.626 -2.1522 -4.6939 -1.0273
  125MOL    H5244940   7.781   3.251   6.849  2.1505  0.8035 -0.1065
  125MOL    H5344941   0.077   3.142   6.848  0.4399 -2.3750 -2.5985
  125MOL    H5444942   7.694   3.035   6.874 -0.2561 -0.5202  0.5249
  125MOL    H5544943   7.655   3.076   6.715  0.7128 -0.0731 -1.7655
  125MOL    C5644944   7.821   2.838   6.800  0.3546  0.5860  0.2488
  125MOL    O5744945   7.812   2.838   6.922  0.1715  0.1813  0.2623
  125MOL    C5844946   0.006   2.712   6.723  0.1527 -0.1642 -0.4144
  125MOL    C5944947   7.735   2.613   6.715 -0.2551  0.1105 -1.1841
  125MOL    C6044948   7.749   2.503   6.620  0.0970 -0.3199 -0.0712
  125MOL    C6144949   7.843   2.391   6.668  0.2279 -0.6651  0.0321
  125MOL    C6244950   0.015   2.274   6.576 -0.3015 -0.4132 -0.2271
  125MOL    O6344951   0.111   2.190   6.634  0.0324 -0.5798  0.6401
  125MOL    H6444952   0.096   2.664   6.761  1.0382  1.4308 -0.4633
  125MOL    H6544953   0.019   2.741   6.619  0.5239  0.3777 -0.2198
  125MOL    H6644954   7.653   2.681   6.689  0.0121  0.9538  0.1494
  125MOL    H6744955   7.712   2.570   6.813  0.4968  2.5028  0.0765
  125MOL    H6844956   7.787   2.547   6.528  1.4597 -0.7985  0.2523
  125MOL    H6944957   7.655   2.454   6.597 -0.3280 -0.2568  1.4188
  125MOL    H7044958   7.807   2.355   6.764  0.3393  1.3802  0.8552
  125MOL    H7144959   0.095   2.440   6.687  1.6364 -3.5650  0.6588
  125MOL    H7244960   7.768   2.216   6.563  0.5822 -1.2318 -2.9996
  125MOL    H7344961   0.045   2.297   6.474 -1.3096  2.1089  0.0127
  125MOL    C7444962   0.148   2.080   6.564 -0.1730  1.0910  0.1153
  125MOL    O7544963   0.101   2.044   6.454 -0.3690  0.5030  0.3922
  125MOL    C7644964   0.247   1.991   6.644  0.7269  0.1365 -0.5808
  125MOL    C7744965   0.280   1.859   6.560  1.4701  0.5258  0.6487
  125MOL    C7844966   0.172   1.758   6.531 -0.7393  0.6560  0.5564
  125MOL    C7944967   0.233   1.658   6.430 -0.3580  0.8262 -0.3422
  125MOL    C8044968   0.156   1.527   6.425  0.0502 -0.2694  1.2072
  125MOL    O8144969   0.178   1.463   6.291  0.4167 -0.4919  0.4911
  125MOL    H8244970   0.197   1.958   6.735  0.5881  0.5348 -0.5121
  125MOL    H8344971   0.341   2.030   6.683  0.7504 -2.4290  2.0597
  125MOL    H8444972   0.359   1.805   6.612  2.1488 -1.3569 -2.1919
  125MOL    H8544973   0.316   1.879   6.459  0.2512  1.6093  0.4087
  125MOL    H8644974   0.070   1.788   6.511  0.1957  0.8731 -4.4699
  125MOL    H8744975   0.161   1.709   6.628 -1.5588  0.1752  0.2220
  125MOL    H8844976   0.340   1.641   6.437 -0.8303 -2.6028 -0.7709
  125MOL    H8944977   0.217   1.701   6.331 -2.6534 -0.5943 -0.6237
  125MOL    H9044978   0.197   1.463   6.503  1.0980 -2.5103 -1.1558
  125MOL    H9144979   0.047   1.523   6.436 -0.0677 -3.8150 -0.6044
  125MOL    C9244980   0.255   1.354   6.275  0.8961 -0.2163 -0.0880
  125MOL    O9344981   0.321   1.305   6.368  0.4586 -0.2500  0.5309
  125MOL    C9444982   0.281   1.301   6.133 -0.2008  0.8436  0.3411
  125MOL    C9544983   0.430   1.294   6.084 -0.4117 -0.5012 -0.3384
  125MOL    C9644984   0.441   1.227   5.947  0.2523  0.5167  0.1801
  125MOL    C9744985   0.576   1.248   5.879 -0.1221  0.1894  0.8368
  125MOL    C9844986   0.603   1.379   5.820 -0.0862 -0.5064  0.1837
  125MOL    O9944987   0.513   1.415   5.716 -0.0171 -0.5224  0.3357
  125MOL   H10044988   0.232   1.366   6.060  1.0056  0.2701 -1.0138
  125MOL   H10144989   0.228   1.207   6.114 -0.3870  1.1836 -0.9070
  125MOL   H10244990   0.497   1.242   6.152 -0.5415 -0.3337 -0.0831
  125MOL   H10344991   0.456   1.399   6.069 -0.0206 -0.3614  1.3251
  125MOL   H10444992   0.367   1.268   5.879  1.2901  1.7328 -0.2371
  125MOL   H10544993   0.420   1.120   5.948 -3.6490  1.1959  0.4549
  125MOL   H10644994   0.566   1.182   5.793  1.0238  0.6599  0.3364
  125MOL   H10744995   0.648   1.216   5.954  0.9884  1.8908  0.5116
  125MOL   H10844996   0.600   1.461   5.891  0.3954  1.2465 -1.7555
  125MOL   H10944997   0.707   1.383   5.787 -0.3960 -0.0007 -0.7499
  125MOL   C11044998   0.501   1.543   5.688  0.2006 -0.5497 -0.3115
  125MOL   O11144999   0.571   1.632   5.744 -0.5022 -0.6127 -0.7063
  125MOL   C11245000   0.388   1.590   5.599  0.3751 -0.3349  0.4236
  125MOL   C11345001   0.396   1.743   5.568  0.2513 -0.1537 -0.0842
  125MOL   C11445002   0.342   1.782   5.427 -0.9841 -0.3248  0.0846
  125MOL   C11545003   0.359   1.931   5.393 -0.2877  0.0641 -0.2229
  125MOL   C11645004   0.301   1.978   5.254 -0.2807  0.4217  0.2566
  125MOL   O11745005   0.337   2.114   5.232  0.6319  0.2027  0.6180
  125MOL   H11845006   0.288   1.573   5.639  0.3673 -0.9493  0.1444
  125MOL   H11945007   0.395   1.530   5.508 -3.6805  0.5438 -0.5392
  125MOL   H12045008   0.503   1.765   5.575  0.1831 -0.3585  2.0470
  125MOL   H12145009   0.355   1.805   5.648 -2.5930 -0.5517 -1.1968
  125MOL   H12245010   0.236   1.757   5.428 -0.9158 -0.6121  1.0175
  125MOL   H12345011   0.384   1.723   5.346 -2.2817  0.2845 -1.0540
  125MOL   H12445012   0.468   1.937   5.395 -0.1907 -0.8102  4.3471
  125MOL   H12545013   0.319   1.981   5.481 -0.2104  1.0674 -0.7594
  125MOL   H12645014   0.356   1.909   5.190  2.2817  1.3060  1.4443
  125MOL   H12745015   0.193   1.962   5.256 -0.2290 -0.1173 -0.9073
  125MOL   C12845016   0.336   2.155   5.107  0.1311  0.7354 -0.2985
  125MOL   O12945017   0.306   2.098   5.003  0.9327 -0.2362  0.3223
  125MOL   C13045018   0.389   2.298   5.099  0.8097  0.3510  0.2521
  125MOL   C13145019   0.540   2.297   5.113 -0.2335  0.3441 -0.1554
  125MOL   C13245020   0.604   2.418   5.055 -0.0820  0.2899  0.0018
  125MOL   C13345021   0.754   2.417   5.028 -0.3460  0.2073  0.2685
  125MOL   C13445022   0.808   2.558   4.993  0.8143 -0.4004  0.3641
  125MOL   O13545023   0.951   2.547   4.972  0.2678  0.2732 -0.2641
  125MOL   H13645024   0.335   2.363   5.167 -0.6214 -1.4129  0.8231
  125MOL   H13745025   0.371   2.339   4.999 -3.5328 -1.3752  0.2264
  125MOL   H13845026   0.588   2.215   5.059  3.3120  2.4603 -0.3323
  125MOL   H13945027   0.573   2.298   5.217  0.5823 -1.6848 -0.3676
  125MOL   H14045028   0.574   2.493   5.128  0.0466 -0.0484  0.3989
  125MOL   H14145029   0.563   2.447   4.958  0.2691  1.0418  0.0810
  125MOL   H14245030   0.786   2.344   4.954 -0.7410  1.2598 -0.9500
  125MOL   H14345031   0.810   2.397   5.120 -0.7720  0.8292  0.6673
  125MOL   H14445032   0.761   2.619   4.917  0.7529  2.5176  2.6429
  125MOL   H14545033   0.793   2.606   5.090 -1.0778 -1.5860  0.6896
  125MOL   C14645034   1.006   2.531   4.857 -0.5130  0.0166  0.8226
  125MOL   O14745035   0.951   2.512   4.746 -0.2089  0.3422  0.6258
  125MOL   C14845036   1.154   2.556   4.869  0.1722 -0.3289  0.2838
  125MOL   C14945037   1.222   2.569   4.726  0.4766  0.8556  0.2535
  125MOL   C15045038   1.358   2.638   4.718 -0.1069 -0.1986 -0.1689
  125MOL   C15145039   1.341   2.793   4.696  0.2619 -0.6133 -0.1207
  125MOL   C15245040   1.477   2.867   4.699 -0.4894  0.8262 -0.0562
  125MOL   O15345041   1.566   2.813   4.605  0.7719  0.0148  0.2869
  125MOL   H15445042   1.205   2.480   4.928  2.7782  2.8824  2.3614
  125MOL   H15545043   1.167   2.646   4.928 -1.3042  1.3471 -1.8982
  125MOL   H15645044   1.150   2.624   4.666  0.3509 -0.7427 -1.0862
  125MOL   H15745045   1.231   2.474   4.673  2.2481  1.4708 -0.6212
  125MOL   H15845046   1.410   2.586   4.638  1.0336 -1.3907  1.3203
  125MOL   H15945047   1.408   2.626   4.814  1.9415  0.9833 -1.0807
  125MOL   H16045048   1.277   2.831   4.775 -2.0784  0.6902 -2.5621
  125MOL   H16145049   1.286   2.808   4.603 -2.5659  0.4038  1.6591
  125MOL   H16245050   1.465   2.973   4.674  0.4896  0.8872 -0.2744
  125MOL   H16345051   1.517   2.857   4.800  0.9467 -0.5581 -0.7387
  125MOL   C16445052   1.666   2.740   4.636  0.4198  0.2707 -0.2697
  125MOL   O16545053   1.707   2.717   4.751 -0.2227 -0.4623  0.1007
  125MOL   C16645054   1.730   2.682   4.514 -0.4436 -0.1848 -0.5556
  125MOL   C16745055   1.809   2.784   4.428 -0.4350 -1.0716 -0.0061
  125MOL   C16845056   1.947   2.834   4.482  0.3832 -1.1199  0.6074
  125MOL   C16945057   2.020   2.915   4.376  0.1415  0.2040  0.3984
  125MOL   C17045058   2.152   2.974   4.428  0.3712  0.4165  0.4042
  125MOL   O17145059   2.222   3.040   4.326 -0.1488 -0.1422 -0.4116
  125MOL   H17245060   1.648   2.639   4.457 -0.6633  1.1001 -1.2301
  125MOL   H17345061   1.789   2.595   4.540 -1.8320 -0.7676  0.7249
  125MOL   H17445062   1.749   2.875   4.422  1.0408  0.0372  1.4632
  125MOL   H17545063   1.822   2.760   4.323 -1.5779 -1.4571 -0.0622
  125MOL   H17645064   2.010   2.748   4.507  1.6103 -0.6858 -0.8834
  125MOL   H17745065   1.944   2.896   4.571 -0.2689  1.7569 -1.3553
  125MOL   H17845066   1.956   2.999   4.354  3.8601  3.0754  0.0486
  125MOL   H17945067   2.022   2.854   4.285  4.1109 -0.4758  0.8398
  125MOL   H18045068   2.143   3.044   4.511  0.1947 -0.2385  0.9393
  125MOL   H18145069   2.226   2.903   4.463  1.5747  1.0840 -0.7387
  125MOL   C18245070   2.343   3.098   4.353  0.9457 -0.8850 -0.0629
  125MOL   O18345071   2.388   3.111   4.464 -0.2712  0.0321  0.0755
  125MOL   C18445072   2.426   3.143   4.231  0.9071  0.1568  0.4675
  125MOL   C18545073   2.380   3.282   4.191 -0.2003  0.3411  0.3218
  125MOL   C18645074   2.452   3.399   4.256  0.7471 -0.2964  0.1930
  125MOL   C18745075   2.388   3.529   4.222  0.8527 -0.2852 -0.0916
  125MOL   C18845076   2.426   3.564   4.075  0.2130 -0.3074 -0.0203
  125MOL   O18945077   2.364   3.692   4.052 -0.1532  0.1903  0.0030
  125MOL   H19045078   2.413   3.074   4.147 -3.0052  0.4162  0.7765
  125MOL   H19145079   2.533   3.147   4.254  1.2193  0.5257 -0.9726
  125MOL   H19245080   2.274   3.292   4.214  0.2449  0.1653  2.5310
  125MOL   H19345081   2.392   3.290   4.083  1.1008 -0.2373  0.4182
  125MOL   H19445082   2.555   3.400   4.223  1.0515 -0.9898  1.1194
  125MOL   H19545083   2.453   3.384   4.364 -0.0267  0.6264  0.3386
  125MOL   H19645084   2.417   3.605   4.294 -0.7046  0.9590 -0.7549
  125MOL   H19745085   2.282   3.520   4.245  1.4817 -0.1186  3.0339
  125MOL   H19845086   2.534   3.575   4.067  0.2274  0.7153  1.4136
  125MOL   H19945087   2.387   3.491   4.004 -0.3744 -1.5501  1.5347
  125MOL   C20045088   2.268   3.698   3.958  0.5085 -0.3803  0.2283
  125MOL   O20145089   2.221   3.605   3.895 -0.3537  0.5240  0.4176
  125MOL   C20245090   2.217   3.838   3.944  0.5553  0.1492 -0.4550
  125MOL   C20345091   2.121   3.862   4.061  0.3270 -0.3164  0.3557
  125MOL   C20445092   2.179   3.911   4.196 -0.8756  0.2670 -0.4924
  125MOL   C20545093   2.240   4.056   4.192 -0.4308 -1.1459 -0.2425
  125MOL   C20645094   2.313   4.095   4.323  0.1077  1.0577  0.9053
  125MOL   O20745095   2.431   4.017   4.345 -0.0949 -0.4980 -0.5705
  125MOL   H20845096   2.177   3.854   3.844 -2.5407  0.7799  0.8372
  125MOL   H20945097   2.303   3.905   3.950 -0.6203  1.7985 -1.3571
  125MOL   H21045098   2.055   3.776   4.074 -0.7229  0.4816  0.3555
  125MOL   H21145099   2.062   3.944   4.022  3.0864  1.2066 -0.8030
  125MOL   H21245100   2.255   3.837   4.223 -0.3754  2.5461  5.1402
  125MOL   H21345101   2.104   3.894   4.273 -1.8479  2.7266 -0.8701
  125MOL   H21445102   2.166   4.134   4.172 -1.6826 -2.1437  0.4615
  125MOL   H21545103   2.309   4.045   4.108  0.2592 -0.6171  0.2435
  125MOL   H21645104   2.341   4.201   4.323  1.1277  0.7949  0.6225
  125MOL   H21745105   2.241   4.073   4.402 -0.7225  1.0800  0.1565
  125MOL   C21845106   2.538   4.036   4.270  0.1913 -0.8305 -1.0901
  125MOL   O21945107   2.552   4.122   4.184  0.0399 -0.0569  0.3435
  125MOL   C22045108   2.646   3.941   4.303 -0.3982  0.1127 -0.5029
  125MOL   C22145109   2.705   3.951   4.445  0.0689  0.6964  0.6313
  125MOL   C22245110   2.788   4.076   4.459 -0.6423  0.0609  0.7240
  125MOL   C22345111   2.862   4.058   4.591 -0.3111  0.5060  0.2405
  125MOL   C22445112   2.933   4.179   4.648 -0.1685  0.2174  0.2329
  125MOL   O22545113   2.843   4.266   4.713 -0.2210 -0.2731  0.1986
  125MOL   H22645114   2.728   3.937   4.231  1.2464  2.7994  1.0894
  125MOL   H22745115   2.591   3.847   4.299 -0.1784 -0.0192 -0.4395
  125MOL   H22845116   2.768   3.862   4.452 -1.2377 -0.2494  0.7535
  125MOL   H22945117   2.627   3.947   4.521  0.0165 -3.0548  0.4852
  125MOL   H23045118   2.711   4.154   4.458 -2.8750 -2.0824 -0.1076
  125MOL   H23145119   2.859   4.081   4.376 -1.3337 -1.3418  0.0272
  125MOL   H23245120   2.945   3.990   4.573 -1.1173  0.0525 -1.9346
  125MOL   H23345121   2.792   4.023   4.667  0.8364 -0.6744  0.7684
  125MOL   H23445122   2.998   4.132   4.722 -1.9720 -1.5294  0.7610
  125MOL   H23545123   2.988   4.236   4.573 -1.4018 -1.3146 -1.8731
  125MOL   C23645124   2.814   4.382   4.650 -0.9566 -0.4912  0.1652
  125MOL   O23745125   2.836   4.410   4.530 -0.5910  0.2399  0.0517
  125MOL   C23845126   2.730   4.484   4.738 -0.1521 -0.4013  0.0006
  125MOL   C23945127   2.802   4.562   4.847 -0.5332  0.2236  0.0470
  125MOL   C24045128   2.736   4.694   4.885 -0.5538 -0.0282  0.8121
  125MOL   C24145129   2.816   4.770   4.994 -0.2943  0.3359  0.2386
  125MOL   C24245130   2.769   4.913   5.009 -0.0362  0.3550  0.7294
  125MOL   O24345131   2.636   4.910   5.057 -0.0628  0.6395 -0.1587
  125MOL   H24445132   2.658   4.414   4.781 -0.3696 -0.2052 -0.0436
  125MOL   H24545133   2.691   4.545   4.657  0.1777  0.4941  0.5198
  125MOL   H24645134   2.903   4.577   4.810 -0.5550 -1.7915 -0.8671
  125MOL   H24745135   2.810   4.496   4.933  0.2226  1.5286  0.9932
  125MOL   H24845136   2.632   4.677   4.915  0.5742 -2.4157  3.5209
  125MOL   H24945137   2.738   4.739   4.785  1.1772 -0.1207  0.8032
  125MOL   H25045138   2.910   4.786   4.942  0.0355  0.4726  0.8714
  125MOL   H25145139   2.840   4.714   5.085  0.8657  1.3748  0.5883
  125MOL   H25245140   2.832   4.981   5.066  2.7294 -0.7892 -0.8569
  125MOL   H25345141   2.771   4.958   4.910  0.5002 -0.3833  0.3922
  125MOL   C25445142   2.599   4.917   5.183  0.0929  0.6190 -0.4219
  125MOL   O25545143   2.659   4.916   5.286  0.7545 -1.1168  0.5909
  125MOL   C25645144   2.447   4.915   5.188 -0.2513 -0.1781  0.2282
  125MOL   C25745145   2.374   5.045   5.206 -1.0964  0.7676 -0.6947
  125MOL   C25845146   2.394   5.115   5.345 -0.6867 -0.3628 -0.1253
  125MOL   C25945147   2.323   5.251   5.350  0.2439  0.1243 -0.0672
  125MOL   C26045148   2.338   5.324   5.496 -0.2773 -0.3433  0.0846
  125MOL   O26145149   2.214   5.312   5.567 -0.2413 -0.7779  0.1833
  125MOL   H26245150   2.416   4.852   5.271 -2.8239 -1.1068 -1.3730
  125MOL   H26345151   2.410   4.876   5.093  0.6114  0.0737 -0.2193
  125MOL   H26445152   2.267   5.026   5.203 -1.1029  0.7831 -0.5896
  125MOL   H26545153   2.408   5.123   5.138 -0.0872  1.3070  0.3953
  125MOL   H26645154   2.498   5.138   5.368 -0.4218 -0.3421 -1.3090
  125MOL   H26745155   2.357   5.041   5.416 -1.0193 -1.6085 -1.5609
  125MOL   H26845156   2.220   5.245   5.316  0.5048 -0.5763 -0.7364
  125MOL   H26945157   2.357   5.317   5.271 -2.2484  1.2076 -0.2793
  125MOL   H27045158   2.422   5.288   5.555  1.1932 -0.1202 -1.8163
  125MOL   H27145159   2.360   5.428   5.473  0.7511 -0.1899  1.6851
  125MOL   C27245160   2.196   5.386   5.682  0.5234 -0.7941  1.3007
  125MOL   O27345161   2.284   5.456   5.735  0.4001 -0.4568 -0.1382
  125MOL   C27445162   2.048   5.381   5.732  0.5515  0.1891  0.0479
  125MOL   C27545163   1.940   5.331   5.630  0.1249 -0.3693  0.3682
  125MOL   C27645164   1.920   5.440   5.524  0.1286  0.2327 -0.5595
  125MOL   C27745165   1.786   5.429   5.454  0.3330  0.0516  0.3698
  125MOL   C27845166   1.741   5.551   5.381  0.4253 -0.3949  0.1782
  125MOL   O27945167   1.836   5.578   5.274  0.4042  0.5442 -0.5776
  125MOL   H28045168   2.017   5.475   5.778  0.0363  1.1111 -2.1105
  125MOL   H28145169   2.064   5.297   5.800  0.7295 -0.0328 -0.2637
  125MOL   H28245170   1.851   5.298   5.682  0.1078  0.5008  0.9048
  125MOL   H28345171   1.969   5.241   5.575  0.8578 -0.3377  0.6846
  125MOL   H28445172   2.003   5.457   5.456 -0.0739  1.3763 -0.5387
  125MOL   H28545173   1.918   5.537   5.574 -1.1781  0.2994 -0.7366
  125MOL   H28645174   1.707   5.414   5.528 -0.4938  2.5122  0.0407
  125MOL   H28745175   1.784   5.346   5.384  0.7762 -0.3099  0.7820
  125MOL   H28845176   1.637   5.536   5.352 -0.0371  1.0469  0.9976
  125MOL   H28945177   1.730   5.635   5.451 -0.8259 -1.6273  1.5028
  125MOL   C29045178   1.822   5.679   5.196 -0.3364  0.0743  0.3790
  125MOL   O29145179   1.718   5.739   5.180 -0.0901  0.5904 -0.3727
  125MOL   C29245180   1.942   5.707   5.117  0.6200  0.6370  0.0911
  125MOL   C29345181   1.929   5.830   5.024 -0.7399 -0.3425  0.9764
  125MOL   C29445182   1.859   5.805   4.894 -0.4263  0.3132 -0.0493
  125MOL   C29545183   1.878   5.920   4.788 -0.8149  0.4282  0.3227
  125MOL   C29645184   1.826   5.885   4.647  0.2732  0.2579  0.4092
  125MOL   O29745185   1.853   5.986   4.556 -0.1019  0.0876  0.2718
  125MOL   H29845186   1.940   5.627   5.044 -0.8486  1.9216 -1.3111
  125MOL   H29945187   2.035   5.702   5.175  0.8243 -1.0557 -0.3583
  125MOL   H30045188   2.033   5.856   5.003 -0.3262 -1.0075  2.1247
  125MOL   H30145189   1.880   5.910   5.079  0.2788 -0.2490  1.7860
  125MOL   H30245190   1.751   5.791   4.894 -0.5959  1.4225  2.5212
  125MOL   H30345191   1.901   5.711   4.859 -0.0894 -0.2860  1.9534
  125MOL   H30445192   1.984   5.944   4.778 -0.6662  0.9386  2.7983
  125MOL   H30545193   1.836   6.017   4.817 -0.4368  0.7837 -0.3047
  125MOL   H30645194   1.856   5.793   4.598 -2.5136  0.1027 -1.0652
  125MOL   H30745195   1.720   5.872   4.665  0.5601 -1.6214  0.7674
  125MOL   C30845196   1.968   5.998   4.490 -0.0769 -0.6031 -0.5780
  125MOL   O30945197   2.055   5.908   4.474  0.1302  0.2929 -0.0910
  125MOL   C31045198   1.979   6.138   4.429  0.0342  0.2498 -0.1556
  125MOL   C31145199   1.932   6.265   4.513  0.4418 -0.1524 -0.3470
  125MOL   C31245200   1.999   6.282   4.646  0.0186  0.3054 -0.4224
  125MOL   C31345201   1.967   6.421   4.714  0.0917  0.2122  0.0789
  125MOL   C31445202   2.026   6.420   4.856  0.2243 -0.4125  0.1186
  125MOL   O31545203   1.972   6.521   4.938  0.2102  1.0404  0.3694
  125MOL   H31645204   1.926   6.151   4.334 -1.2739 -0.0658  0.5189
  125MOL   H31745205   2.085   6.155   4.409 -0.0711 -0.6725 -1.5900
  125MOL   H31845206   1.825   6.253   4.529  0.2985 -0.0674 -1.2390
  125MOL   H31945207   1.949   6.358   4.459  0.6415  0.8497  1.3964
  125MOL   H32045208   2.106   6.262   4.643 -0.0334 -0.3464  1.2864
  125MOL   H32145209   1.965   6.203   4.713  1.3368  0.5389  0.5290
  125MOL   H32245210   1.860   6.438   4.728  0.2103  1.7770 -0.7962
  125MOL   H32345211   1.997   6.507   4.654  0.6531 -0.7623 -1.0534
  125MOL   H32445212   2.006   6.320   4.892 -2.9792 -0.2052 -0.8785
  125MOL   H32545213   2.134   6.427   4.848  0.3457 -0.8820  1.3240
  125MOL   C32645214   2.037   6.641   4.947  0.0295  0.6317 -0.3475
  125MOL   O32745215   2.149   6.666   4.901 -0.0250  0.2194 -0.3176
  125MOL   C32845216   1.961   6.759   5.005  0.2550 -0.5468  0.0940
  125MOL   C32945217   1.870   6.823   4.903  0.9748  0.5491 -0.7100
  125MOL   C33045218   1.769   6.734   4.834 -0.0530 -0.0374  0.5103
  125MOL   C33145219   1.664   6.677   4.939  0.3431  0.0374  0.0786
  125MOL   C33245220   1.557   6.585   4.880  0.7952  0.1112 -0.0950
  125MOL   O33345221   1.447   6.661   4.825  0.1913  0.0958  0.7767
  125MOL   H33445222   2.040   6.826   5.040  0.0749  0.6033 -1.6389
  125MOL   H33545223   1.890   6.731   5.084 -0.7235 -1.6981 -1.1771
  125MOL   H33645224   1.929   6.865   4.822 -0.1944  0.8839 -1.4083
  125MOL   H33745225   1.819   6.898   4.963  0.2207 -1.1543  0.8302
  125MOL   H33845226   1.813   6.646   4.788  0.3652 -0.6261  2.0178
  125MOL   H33945227   1.719   6.792   4.756  3.7154 -0.4096 -2.3245
  125MOL   H34045228   1.619   6.757   4.997  0.5791  1.4057 -1.5805
  125MOL   H34145229   1.725   6.614   5.004  0.4959 -0.2298 -0.3204
  125MOL   H34245230   1.603   6.511   4.814  1.4430 -0.0577  0.5288
  125MOL   H34345231   1.519   6.521   4.959 -0.0516 -1.2952 -1.6096
  125MOL   C34445232   1.347   6.596   4.773  0.3559 -0.3744 -0.4210
  125MOL   O34545233   1.331   6.476   4.773 -0.1147  0.0602 -0.2127
  125MOL   C34645234   1.253   6.687   4.693  0.0108  0.0446 -0.4536
  125MOL   C34745235   1.325   6.744   4.567  0.5714 -0.2011  0.1589
  125MOL   C34845236   1.238   6.845   4.487 -0.2808  0.0599 -0.2814
  125MOL   C34945237   1.300   6.903   4.351  0.1057  0.4227 -0.3506
  125MOL   C35045238   1.197   6.999   4.275 -0.5261 -0.5454  0.1166
  125MOL   O35145239   1.096   6.919   4.225  0.4464 -0.0742 -0.4275
  125MOL   H35245240   1.222   6.773   4.753  1.0538 -1.2058  1.9278
  125MOL   H35345241   1.162   6.635   4.665 -0.7859  1.0590  0.1957
  125MOL   H35445242   1.361   6.664   4.503  0.7714  0.1952 -0.2218
  125MOL   H35545243   1.413   6.801   4.597  1.0207 -0.7521 -0.0994
  125MOL   H35645244   1.213   6.932   4.548 -0.6001 -1.3227  1.6051
  125MOL   H35745245   1.144   6.803   4.451 -0.3718  0.0144  0.0092
  125MOL   H35845246   1.327   6.821   4.285  0.3567 -0.8161  1.2856
  125MOL   H35945247   1.391   6.957   4.376 -0.4828  0.6989  1.2411
  125MOL   H36045248   1.176   7.088   4.335  0.6245 -0.2555  0.1115
  125MOL   H36145249   1.250   7.033   4.186  0.2171 -1.8081  0.0702
  125MOL   H36245250   1.075   6.851   4.287 -0.5830  0.6809  0.0829
  126MOL     C145251   3.038   5.979   4.227 -0.2316 -1.1554  0.2027
  126MOL     O245252   2.979   6.019   4.328 -0.0106 -0.0738  0.0726
  126MOL     C345253   3.189   5.965   4.221  0.0413  0.6319 -0.0798
  126MOL     C445254   3.269   6.067   4.308 -0.0828  0.1096 -0.4053
  126MOL     C545255   3.419   6.013   4.312  0.0567  0.4409  0.1996
  126MOL     C645256   3.506   6.092   4.405 -0.1184 -0.1278  0.4530
  126MOL     C745257   3.616   6.003   4.466 -0.0032 -0.4212 -0.5690
  126MOL     O845258   3.697   6.079   4.558  0.1009  0.0495 -0.8065
  126MOL     H945259   3.220   5.971   4.117  0.7612 -0.8771  0.0330
  126MOL    H1045260   3.215   5.861   4.237 -3.3734 -0.5392 -1.6086
  126MOL    H1145261   3.235   6.071   4.411  2.9117 -0.6418  0.6739
  126MOL    H1245262   3.256   6.169   4.271  0.4694 -0.2294 -1.5656
  126MOL    H1345263   3.452   6.022   4.208 -1.6675  0.1018 -0.3988
  126MOL    H1445264   3.417   5.906   4.333  2.0505  0.7218  1.9899
  126MOL    H1545265   3.445   6.146   4.478 -2.6388 -1.9305 -0.2681
  126MOL    H1645266   3.562   6.168   4.351 -0.0374 -0.4618  0.0650
  126MOL    H1745267   3.580   5.918   4.524 -0.4544  0.0398 -0.1652
  126MOL    H1845268   3.672   5.956   4.385  1.4011 -2.0801  1.2980
  126MOL    H1945269   2.974   5.958   4.141 -1.2801  1.2358  0.3543
  126MOL    C2045270   3.805   6.147   4.513  0.1810 -0.2058  0.0881
  126MOL    O2145271   3.843   6.152   4.393 -0.1310 -0.2604  0.1587
  126MOL    C2245272   3.880   6.216   4.626 -0.6853 -0.7056 -0.1384
  126MOL    C2345273   3.786   6.298   4.721 -0.3360 -0.4937 -0.0408
  126MOL    C2445274   3.681   6.382   4.657 -0.1864 -0.0996  0.4297
  126MOL    C2545275   3.722   6.495   4.570  0.9466  0.1848 -0.7335
  126MOL    C2645276   3.622   6.598   4.520  0.5117 -0.1230 -0.3552
  126MOL    O2745277   3.540   6.525   4.428  0.1344 -0.0917  0.4692
  126MOL    H2845278   3.959   6.277   4.582 -1.7051  0.7650  0.0338
  126MOL    H2945279   3.926   6.138   4.687 -1.3611  0.4558  1.8917
  126MOL    H3045280   3.851   6.352   4.790  0.3870 -2.0049  0.4805
  126MOL    H3145281   3.722   6.229   4.777 -0.5618 -0.2120  0.0505
  126MOL    H3245282   3.612   6.414   4.735 -0.0955  0.5421  0.2518
  126MOL    H3345283   3.628   6.320   4.586 -0.5313  0.7311 -0.0515
  126MOL    H3445284   3.778   6.448   4.489 -0.5784 -3.1610  0.0524
  126MOL    H3545285   3.799   6.552   4.622  2.0260  0.1911 -2.3047
  126MOL    H3645286   3.559   6.641   4.598 -1.9229 -0.7490 -1.9128
  126MOL    H3745287   3.679   6.670   4.460  0.8847  0.1974  0.3760
  126MOL    C3845288   3.410   6.523   4.447  1.3085 -1.1330 -0.3659
  126MOL    O3945289   3.356   6.527   4.559 -0.4091 -0.1289 -0.0648
  126MOL    C4045290   3.325   6.489   4.318  0.2589 -0.0011 -0.3825
  126MOL    C4145291   3.174   6.476   4.328  0.2480  0.3478  0.7984
  126MOL    C4245292   3.123   6.433   4.194 -0.5025  0.0329 -0.3532
  126MOL    C4345293   2.970   6.430   4.190 -0.3972 -0.1850 -0.4794
  126MOL    C4445294   2.906   6.401   4.053  0.2345  0.0064  0.4720
  126MOL    O4545295   2.775   6.455   4.057 -0.1795 -0.3031 -0.3181
  126MOL    H4645296   3.368   6.397   4.280 -2.6818 -1.2897 -0.7457
  126MOL    H4745297   3.345   6.564   4.242 -1.6542  0.2038 -0.7162
  126MOL    H4845298   3.131   6.574   4.347  0.2001  0.4240  0.2760
  126MOL    H4945299   3.129   6.402   4.395  1.3024 -0.6014  0.4841
  126MOL    H5045300   3.151   6.328   4.180  2.6624  0.7218  0.4405
  126MOL    H5145301   3.171   6.502   4.124  0.9365 -0.9300 -0.3452
  126MOL    H5245302   2.927   6.524   4.226  0.4753 -0.2597  0.7900
  126MOL    H5345303   2.927   6.359   4.260 -1.2288  2.5232  1.8789
  126MOL    H5445304   2.961   6.444   3.970 -1.8235 -0.9352 -1.4186
  126MOL    H5545305   2.894   6.293   4.040 -0.0617 -0.0077  0.8346
  126MOL    C5645306   2.748   6.572   4.005 -0.3216  0.3760 -0.2596
  126MOL    O5745307   2.809   6.636   3.920  0.4128 -0.2553 -0.5273
  126MOL    C5845308   2.619   6.626   4.061  0.9224  0.7078 -0.2661
  126MOL    C5945309   2.625   6.691   4.199 -0.2862  0.2030 -0.4723
  126MOL    C6045310   2.695   6.834   4.202 -0.5673  0.3250  0.1654
  126MOL    C6145311   2.707   6.900   4.339 -0.1820  0.3730 -0.1114
  126MOL    C6245312   2.750   7.050   4.326 -0.4159 -0.1480 -0.5442
  126MOL    O6345313   2.792   7.116   4.455  0.0838  0.0124  0.0109
  126MOL    H6445314   2.540   6.552   4.072 -1.3588  3.4409  2.5024
  126MOL    H6545315   2.577   6.702   3.995 -0.8528  0.4001  0.4772
  126MOL    H6645316   2.687   6.625   4.260 -1.6483 -1.4525 -0.8440
  126MOL    H6745317   2.527   6.700   4.246 -0.0564  2.4813 -0.3439
  126MOL    H6845318   2.630   6.900   4.144  0.4368 -0.8683 -2.4003
  126MOL    H6945319   2.786   6.823   4.144 -0.3950  0.8200  0.3458
  126MOL    H7045320   2.779   6.844   4.399 -1.6784  1.0989  2.4263
  126MOL    H7145321   2.613   6.907   4.393  0.0429  1.4201  0.1452
  126MOL    H7245322   2.829   7.061   4.252  0.4385 -0.0401  0.3662
  126MOL    H7345323   2.665   7.110   4.294 -0.9631 -0.6738 -0.0867
  126MOL    C7445324   2.868   7.234   4.451  0.0411  0.0059 -0.5334
  126MOL    O7545325   2.880   7.302   4.349  0.4780  0.2766  0.0750
  126MOL    C7645326   2.944   7.274   4.580  0.5151  0.2569  0.3092
  126MOL    C7745327   2.872   7.383   4.667 -0.6709  0.6530 -0.4842
  126MOL    C7845328   2.802   7.502   4.594  0.0170  0.0518  0.8589
  126MOL    C7945329   2.768   7.611   4.698  0.2751 -0.6515 -0.3822
  126MOL    C8045330   2.656   7.710   4.651 -0.1949  0.4834  0.8336
  126MOL    O8145331   2.698   7.793   4.541 -0.0753  0.2036 -0.1859
  126MOL    H8245332   3.047   7.302   4.559  0.8563 -2.4771 -2.0359
  126MOL    H8345333   2.951   7.181   4.636  0.3301  1.4123  2.3014
  126MOL    H8445334   2.939   7.431   4.738 -0.2938  2.6088 -2.1268
  126MOL    H8545335   2.813   7.322   4.736  0.1570  2.7631  2.1590
  126MOL    H8645336   2.707   7.481   4.545 -0.1494 -2.7191  2.3110
  126MOL    H8745337   2.870   7.543   4.519  0.8847 -2.4569  0.2439
  126MOL    H8845338   2.859   7.659   4.732 -0.7316  2.1061 -1.4601
  126MOL    H8945339   2.720   7.558   4.780 -0.0545 -0.9502 -0.7661
  126MOL    H9045340   2.564   7.654   4.633  0.8817 -1.2360  0.4888
  126MOL    H9145341   2.650   7.771   4.741  1.7911 -0.9004  1.9488
  126MOL    C9245342   2.785   0.047   4.561  0.2976  0.3993 -0.5976
  126MOL    O9345343   2.829   0.076   4.676 -0.4837  0.3278 -0.6466
  126MOL    C9445344   2.842   0.108   4.427 -0.4633 -0.0632 -0.0324
  126MOL    C9545345   2.907   0.005   4.327  0.3683  0.1615  0.2323
  126MOL    C9645346   2.822   7.786   4.221  0.0728  0.0417  0.2637
  126MOL    C9745347   2.768   0.036   4.111 -0.2376  0.3475 -0.4103
  126MOL    C9845348   2.680   7.814   4.017  0.3073  0.0893  0.2053
  126MOL    O9945349   2.573   7.764   4.096 -0.4258 -0.2697  0.2614
  126MOL   H10045350   2.915   0.186   4.452  0.0712 -0.5714  0.0092
  126MOL   H10145351   2.765   0.156   4.367  0.6639  1.0537 -0.6252
  126MOL   H10245352   2.934   7.764   4.390 -3.2784 -1.1694  0.1191
  126MOL   H10345353   3.005   0.043   4.299  1.3952  1.0760  4.7474
  126MOL   H10445354   2.736   7.745   4.274  0.8887 -2.9029 -0.6452
  126MOL   H10545355   2.870   7.699   4.176 -1.2605  0.0308 -1.1999
  126MOL   H10645356   2.858   0.075   4.064 -0.3826  1.0401 -0.1191
  126MOL   H10745357   2.731   0.133   4.147  1.5852  1.0147 -0.2938
  126MOL   H10845358   2.659   0.022   3.923 -2.4010  0.8882  1.2102
  126MOL   H10945359   2.740   7.726   3.994  1.4897  0.7209  0.8258
  126MOL   C11045360   2.454   7.819   4.088  0.0706  0.3083  0.0626
  126MOL   O11145361   2.427   0.056   4.000 -0.0919  0.3108 -0.2768
  126MOL   C11245362   2.353   7.768   4.187 -0.3475 -0.1904  0.2446
  126MOL   C11345363   2.355   7.833   4.320 -0.1753 -0.3405 -0.6137
  126MOL   C11445364   2.275   7.760   4.419 -0.4636 -0.0833 -0.0427
  126MOL   C11545365   2.268   7.841   4.553  0.8305  0.3576  0.6028
  126MOL   C11645366   2.173   7.780   4.649 -0.6432 -0.6738  0.4946
  126MOL   O11745367   2.170   0.019   4.763 -0.0321  0.2017 -0.8251
  126MOL   H11845368   2.379   7.662   4.199  3.8577  0.4473 -2.3744
  126MOL   H11945369   2.255   7.792   4.147  0.1571  1.3850 -0.0902
  126MOL   H12045370   2.305   0.085   4.308 -0.2830 -0.2412  0.5311
  126MOL   H12145371   2.455   0.021   4.350  0.7184 -2.0155 -1.7099
  126MOL   H12245372   2.321   7.664   4.442  0.6018  0.4147 -0.0926
  126MOL   H12345373   2.173   7.743   4.385 -0.6092  0.4903  0.0983
  126MOL   H12445374   2.230   0.098   4.545  0.2799  0.1050 -0.0228
  126MOL   H12545375   2.373   7.840   4.581  0.6400 -0.2803  1.3056
  126MOL   H12645376   2.074   7.769   4.604 -1.9367  3.3178  2.1440
  126MOL   H12745377   2.198   7.677   4.675  0.6771 -0.6587 -0.6607
  126MOL   C12845378   2.053   0.031   4.829 -0.6566  0.2750  0.5297
  126MOL   O12945379   1.950   7.812   4.812 -0.7627 -0.0390  0.3363
  126MOL   C13045380   2.071   0.143   4.932 -0.0179 -0.3974 -0.3033
  126MOL   C13145381   1.968   0.137   5.037 -0.3051 -0.2552  0.0730
  126MOL   C13245382   1.987   0.236   5.146 -0.0401  0.1584  0.4878
  126MOL   C13345383   1.882   0.217   5.257 -0.5591  0.8594 -0.7697
  126MOL   C13445384   1.927   0.278   5.396 -1.3146 -0.1931 -0.1822
  126MOL   O13545385   1.830   0.243   5.495  0.1055 -0.0729 -0.2646
  126MOL   H13645386   2.066   0.238   4.880  1.1859 -0.9559 -1.4736
  126MOL   H13745387   2.173   0.135   4.971  0.7423  2.7760 -1.5128
  126MOL   H13845388   1.970   0.038   5.082 -3.2954 -0.4733 -0.1933
  126MOL   H13945389   1.869   0.166   5.000 -0.6328  0.5700  1.5599
  126MOL   H14045390   1.989   0.341   5.117 -1.2752  0.9150  2.9441
  126MOL   H14145391   2.083   0.208   5.190 -0.6862 -1.6458  0.7771
  126MOL   H14245392   1.864   0.112   5.281  1.4178  0.5439 -0.5643
  126MOL   H14345393   1.792   0.261   5.215  0.3620  1.5812 -2.0000
  126MOL   H14445394   2.024   0.247   5.433 -0.0311  2.1284 -1.4812
  126MOL   H14545395   1.940   0.385   5.378  2.4027 -0.3681  1.1785
  126MOL   C14645396   1.778   0.331   5.583 -0.4827 -0.0318  0.3584
  126MOL   O14745397   1.822   0.452   5.600  0.7512 -0.6627  0.2846
  126MOL   C14845398   1.675   0.260   5.664 -0.3546 -0.1618 -0.2108
  126MOL   C14945399   1.599   0.359   5.756  0.8009  0.0596 -0.0879
  126MOL   C15045400   1.663   0.366   5.897  0.9579  0.1749  0.2260
  126MOL   C15145401   1.598   0.471   5.996 -1.2704 -0.0149  0.4273
  126MOL   C15245402   1.671   0.484   6.127  0.4790 -0.4322  0.2758
  126MOL   O15345403   1.655   0.372   6.210  0.2733  0.1754 -0.0845
  126MOL   H15445404   1.737   0.200   5.731  1.4689 -0.6330 -2.2519
  126MOL   H15545405   1.610   0.199   5.601 -1.9610 -0.9870  2.1749
  126MOL   H15645406   1.498   0.324   5.779  0.9241 -0.2611 -0.0284
  126MOL   H15745407   1.585   0.457   5.709  0.8186  0.6756  1.1838
  126MOL   H15845408   1.765   0.405   5.890  0.8767  0.2306 -0.8078
  126MOL   H15945409   1.663   0.268   5.945 -1.7053 -1.2885 -2.5426
  126MOL   H16045410   1.494   0.439   6.002 -1.1972 -0.8477 -2.0083
  126MOL   H16145411   1.602   0.567   5.944  1.2656 -0.1650  0.2685
  126MOL   H16245412   1.776   0.510   6.110  0.1602 -0.0650 -1.2001
  126MOL   H16345413   1.634   0.576   6.171  0.2399  0.1892 -1.1852
  126MOL   C16445414   1.545   0.369   6.295  0.5184  0.0268  0.5733
  126MOL   O16545415   1.468   0.466   6.307 -0.5636  0.1678  0.0572
  126MOL   C16645416   1.534   0.237   6.369  0.0047 -0.1978  0.8357
  126MOL   C16745417   1.592   0.116   6.292 -0.4206 -0.3992  0.4404
  126MOL   C16845418   1.512   0.056   6.178 -0.5651 -0.4333  0.4576
  126MOL   C16945419   1.578   7.781   6.111 -0.2462  0.6718 -0.2527
  126MOL   C17045420   1.672   7.805   5.989  0.8347  0.2255 -0.5704
  126MOL   O17145421   1.808   7.829   6.030 -0.1919  0.0427 -0.1716
  126MOL   H17245422   1.427   0.226   6.381 -0.4363  2.7754 -0.1590
  126MOL   H17345423   1.584   0.242   6.466  2.3765 -1.5869 -0.2390
  126MOL   H17445424   1.608   0.037   6.366  1.2379 -0.9868 -0.5238
  126MOL   H17545425   1.694   0.138   6.263 -1.2237  1.8842 -0.7079
  126MOL   H17645426   1.514   0.135   6.104 -2.1105 -0.0057  0.8481
  126MOL   H17745427   1.413   0.033   6.219 -0.8838  2.2325  1.2413
  126MOL   H17845428   1.496   7.721   6.071 -1.2060  0.8367  1.4149
  126MOL   H17945429   1.626   7.712   6.181 -1.1798  0.6514  0.3726
  126MOL   H18045430   1.671   7.715   5.928 -2.9098  0.9197 -1.6593
  126MOL   H18145431   1.638   0.038   5.920  0.9749 -0.4654 -1.4223
  126MOL   C18245432   1.912   7.824   5.937 -0.1293 -0.0484 -0.2736
  126MOL   O18345433   1.900   7.799   5.816  0.1348  0.0810 -0.1759
  126MOL   C18445434   2.052   0.008   6.006 -0.1044  0.0341  0.2274
  126MOL   C18545435   2.072   0.147   6.059  0.0588  0.5068  0.1223
  126MOL   C18645436   2.114   0.244   5.944 -1.0215 -0.3719 -0.2541
  126MOL   C18745437   2.106   0.389   5.990  0.1476 -0.8325  0.1454
  126MOL   C18845438   2.224   0.432   6.087  0.0850  0.6490 -0.3446
  126MOL   O18945439   2.180   0.484   6.208 -0.3415 -0.2651 -0.4080
  126MOL   H19045440   2.128   7.835   5.931 -0.4004  0.2896 -0.1324
  126MOL   H19145441   2.058   7.784   6.091  1.6102  2.9267  2.5717
  126MOL   H19245442   2.156   0.141   6.128  0.3729 -2.1718 -0.4326
  126MOL   H19345443   1.987   0.191   6.111  0.2718  1.3929 -0.2685
  126MOL   H19445444   2.036   0.230   5.868  0.0035  0.2851 -1.4438
  126MOL   H19545445   2.213   0.216   5.908 -1.7257 -1.2825 -1.5482
  126MOL   H19645446   2.017   0.402   6.052  0.1164  2.4805 -0.5301
  126MOL   H19745447   2.088   0.459   5.909  2.9958  0.7911  0.8561
  126MOL   H19845448   2.294   0.349   6.100 -1.8733 -0.8878  0.5906
  126MOL   H19945449   2.291   0.510   6.051  1.7834 -0.1427  0.9963
  126MOL   C20045450   2.168   0.400   6.310 -0.1318 -1.2207  0.5778
  126MOL   O20145451   2.220   0.283   6.315 -0.3212  0.1103 -0.2456
  126MOL   C20245452   2.075   0.457   6.418 -0.4739  0.1302  0.7322
  126MOL   C20345453   1.983   0.351   6.474  1.1472 -0.4453  0.5166
  126MOL   C20445454   1.850   0.415   6.525  0.3214  0.8527  0.4729
  126MOL   C20545455   1.860   0.484   6.658 -0.1364  0.1816 -0.3590
  126MOL   C20645456   1.721   0.494   6.726  0.1107  0.0982 -0.1115
  126MOL   O20745457   1.636   0.563   6.634  0.1545  0.9380 -0.2681
  126MOL   H20845458   2.008   0.536   6.386  0.1663  0.5265  0.3749
  126MOL   H20945459   2.127   0.485   6.509 -1.1033  2.3971  0.4316
  126MOL   H21045460   2.029   0.297   6.556  1.1895  0.0399  0.8135
  126MOL   H21145461   1.944   0.280   6.401 -0.3539  1.0730 -0.2038
  126MOL   H21245462   1.782   0.332   6.544  0.0786  0.7707 -0.7036
  126MOL   H21345463   1.795   0.467   6.447 -0.7071 -0.4539  0.3122
  126MOL   H21445464   1.894   0.588   6.658 -0.4854  0.2968  0.1739
  126MOL   H21545465   1.924   0.424   6.723 -1.0996 -2.3664 -1.7115
  126MOL   H21645466   1.679   0.401   6.762 -0.0130 -0.0442 -0.6123
  126MOL   H21745467   1.724   0.558   6.814  1.6643 -0.2589  0.1078
  126MOL   C21845468   1.519   0.604   6.676 -0.3264 -0.1192  0.1632
  126MOL   O21945469   1.463   0.564   6.778  0.5845  0.7223  0.4450
  126MOL   C22045470   1.440   0.702   6.575 -0.4118  0.8071  0.0586
  126MOL   C22145471   1.290   0.709   6.586  0.5068 -0.6597 -0.1018
  126MOL   C22245472   1.243   0.780   6.715 -0.6249 -0.2392 -0.6032
  126MOL   C22345473   1.089   0.805   6.718  0.2355 -0.6572 -0.2078
  126MOL   C22445474   1.031   0.843   6.850 -0.1126  0.2286 -0.0451
  126MOL   O22545475   1.072   0.765   6.956 -0.0315 -0.1587  0.2946
  126MOL   H22645476   1.460   0.676   6.471  2.6819 -0.5304  0.9026
  126MOL   H22745477   1.475   0.803   6.595 -1.4248  0.7034  2.5059
  126MOL   H22845478   1.249   0.608   6.582  1.1140 -0.8802 -0.7551
  126MOL   H22945479   1.264   0.768   6.499  3.2902  0.4509 -0.2390
  126MOL   H23045480   1.285   0.881   6.717  0.2752 -0.6530  1.8290
  126MOL   H23145481   1.268   0.722   6.803 -5.5323 -2.8262 -0.7746
  126MOL   H23245482   1.045   0.714   6.678 -2.1662  1.0243 -1.4898
  126MOL   H23345483   1.060   0.887   6.652  1.5175 -0.7812 -0.9586
  126MOL   H23445484   1.060   0.946   6.867 -2.1605  0.4658  2.3760
  126MOL   H23545485   0.923   0.832   6.841 -0.2144  0.8539  0.4531
  126MOL   C23645486   1.077   0.810   7.081  0.1123 -0.0910 -0.2763
  126MOL   O23745487   1.046   0.923   7.119 -0.0704  0.6862  0.6150
  126MOL   C23845488   1.128   0.715   7.187  0.4609 -0.1844 -0.1869
  126MOL   C23945489   1.276   0.678   7.174  0.3279  0.8170  0.0885
  126MOL   C24045490   1.360   0.799   7.149 -0.5659  0.5662  0.4172
  126MOL   C24145491   1.512   0.770   7.133 -0.0304  0.5096  0.3764
  126MOL   C24245492   1.600   0.891   7.100 -0.5142  0.3182  0.2902
  126MOL   O24345493   1.742   0.858   7.099  0.4847 -0.3431  0.3686
  126MOL   H24445494   1.058   0.632   7.188  1.4172 -1.0018  0.0613
  126MOL   H24545495   1.117   0.757   7.287  3.2898  0.8907 -0.2672
  126MOL   H24645496   1.286   0.606   7.093 -0.5344  0.7044  0.0707
  126MOL   H24745497   1.308   0.625   7.263  1.5384 -0.9241 -1.3456
  126MOL   H24845498   1.347   0.864   7.236  1.3778  0.7485  0.5911
  126MOL   H24945499   1.336   0.859   7.061 -0.7223 -0.2622 -0.1136
  126MOL   H25045500   1.517   0.695   7.054  0.2424 -1.0131  1.8291
  126MOL   H25145501   1.541   0.710   7.218 -0.6992 -1.3784 -0.7103
  126MOL   H25245502   1.566   0.941   7.010 -0.9747 -0.0709  0.2408
  126MOL   H25345503   1.575   0.967   7.175 -0.2924 -0.4479  1.1577
  126MOL   C25445504   1.796   0.836   6.985 -0.1028  0.4300  0.0218
  126MOL   O25545505   1.749   0.850   6.873  0.3294 -0.3641  0.2267
  126MOL   C25645506   1.930   0.776   7.011 -0.6319  0.2746 -0.1466
  126MOL   C25745507   2.038   0.872   7.057 -0.9465  0.3630 -0.4718
  126MOL   C25845508   2.174   0.813   7.081 -1.0662 -0.1716 -0.2816
  126MOL   C25945509   2.188   0.731   7.207  0.2823  0.4318  0.4476
  126MOL   C26045510   2.340   0.703   7.227 -0.0973  0.0446 -0.3639
  126MOL   O26145511   2.409   0.825   7.253  0.1865  0.0071 -0.2750
  126MOL   H26245512   1.954   0.731   6.914 -0.3723  0.6818 -0.2744
  126MOL   H26345513   1.914   0.688   7.073  0.0381  0.7681  0.7282
  126MOL   H26445514   2.002   0.923   7.146 -1.0946  0.1007 -0.3810
  126MOL   H26545515   2.055   0.953   6.987 -1.9192  0.0136 -1.1290
  126MOL   H26645516   2.237   0.900   7.065 -2.4348  1.0211  0.6412
  126MOL   H26745517   2.207   0.745   7.003  1.7895  0.4199  0.3462
  126MOL   H26845518   2.123   0.644   7.196 -0.4589  1.2524 -1.9023
  126MOL   H26945519   2.160   0.791   7.294  0.5192  2.3354 -0.7517
  126MOL   H27045520   2.345   0.628   7.305  2.4158 -0.5931 -1.0876
  126MOL   H27145521   2.373   0.648   7.139 -0.7781 -0.5024 -0.2874
  126MOL   C27245522   2.448   0.859   7.375 -0.6164  0.6432  0.1036
  126MOL   O27345523   2.427   0.794   7.478  0.2822  0.3077  0.3397
  126MOL   C27445524   2.517   0.990   7.374  0.1973 -0.2637  0.4484
  126MOL   C27545525   2.573   1.054   7.502 -0.5622 -0.5815 -0.2394
  126MOL   C27645526   2.666   0.970   7.575  0.6779 -0.3978 -0.3868
  126MOL   C27745527   2.803   0.975   7.507 -0.0315  0.6543 -0.6400
  126MOL   C27845528   2.915   0.906   7.591  0.2121  1.0543  0.5457
  126MOL   O27945529   2.952   0.986   7.703 -0.2709 -0.2493 -0.8268
  126MOL   H28045530   2.456   1.068   7.329  1.3347  1.3227  1.6130
  126MOL   H28145531   2.604   0.981   7.310 -0.7952 -0.9947 -0.8242
  126MOL   H28245532   2.486   1.086   7.559 -1.2706 -0.2860 -1.4692
  126MOL   H28345533   2.620   1.149   7.475 -0.5015  0.2875  2.7815
  126MOL   H28445534   2.638   0.865   7.577 -1.8376  0.2299 -0.6887
  126MOL   H28545535   2.668   1.008   7.678 -1.8905  1.0979 -0.8431
  126MOL   H28645536   2.827   1.081   7.497  2.4038  0.0964 -1.0154
  126MOL   H28745537   2.792   0.927   7.410  0.3416  1.2420 -0.9757
  126MOL   H28845538   2.890   0.805   7.625 -0.3643  0.2707 -2.0799
  126MOL   H28945539   3.005   0.890   7.533  0.3831  1.7087  0.6260
  126MOL   C29045540   3.073   0.973   7.762  0.1611  0.8559 -0.2302
  126MOL   O29145541   3.154   0.889   7.728  0.4379 -0.2993 -0.4772
  126MOL   C29245542   3.093   1.068   0.035  0.2070  0.8560  0.6951
  126MOL   C29345543   3.148   1.011   0.159  0.2961 -0.8835  0.0097
  126MOL   C29445544   3.128   1.113   0.274 -0.2284 -0.6422 -0.4565
  126MOL   C29545545   3.180   1.065   0.415 -0.1403  0.3549 -0.0078
  126MOL   C29645546   3.178   1.173   0.522  0.1854  0.4700  0.0581
  126MOL   O29745547   3.276   1.271   0.494  0.0431  0.3214  0.0839
  126MOL   H29845548   2.996   1.110   0.062 -0.8016 -1.4547  0.7824
  126MOL   H29945549   3.156   1.153   0.008  1.2581  0.5491  2.1138
  126MOL   H30045550   3.254   0.990   0.142 -0.1914 -1.4485 -2.5239
  126MOL   H30145551   3.110   0.911   0.180  0.4963 -1.1369 -0.8251
  126MOL   H30245552   3.024   1.134   0.299 -0.5003 -1.2853 -1.0255
  126MOL   H30345553   3.183   1.203   0.247 -0.1255 -0.5587  0.0189
  126MOL   H30445554   3.285   1.037   0.410 -0.7310 -2.2195  1.3520
  126MOL   H30545555   3.125   0.976   0.442  0.4023  0.6521  2.2088
  126MOL   H30645556   3.083   1.226   0.516  0.3476  0.8480  0.7285
  126MOL   H30745557   3.178   1.120   0.617 -1.3629 -0.6061 -0.5336
  126MOL   C30845558   3.265   1.390   0.555  0.0521  0.6017 -0.2488
  126MOL   O30945559   3.176   1.419   0.635  0.8025 -0.0008 -0.5754
  126MOL   C31045560   3.378   1.487   0.538  0.3529 -0.0081  0.8654
  126MOL   C31145561   3.476   1.494   0.653 -0.0145 -0.1961  0.1321
  126MOL   C31245562   3.566   1.621   0.646  0.7336  0.8921  0.5108
  126MOL   C31345563   3.664   1.621   0.526  0.0579 -0.4841  0.3312
  126MOL   C31445564   3.761   1.743   0.539 -0.6494 -0.4427 -0.1316
  126MOL   O31545565   3.839   1.723   0.651  0.0682 -0.1089 -0.3018
  126MOL   H31645566   3.336   1.585   0.516 -2.9319 -0.7305  3.6486
  126MOL   H31745567   3.440   1.465   0.451 -1.3766 -0.1132 -0.3583
  126MOL   H31845568   3.531   1.403   0.630  1.3410  0.5602  0.3251
  126MOL   H31945569   3.429   1.491   0.752  0.4900  0.7885  0.4176
  126MOL   H32045570   3.618   1.615   0.741 -1.1947  1.0493  1.5927
  126MOL   H32145571   3.504   1.711   0.648 -0.5026  0.0368  1.0140
  126MOL   H32245572   3.616   1.614   0.428  2.1215 -3.9260 -0.5325
  126MOL   H32345573   3.722   1.528   0.521  2.9190  1.2433  0.3392
  126MOL   H32445574   3.828   1.757   0.453 -0.6340  0.2234 -0.0088
  126MOL   H32545575   3.707   1.836   0.549  0.8973  0.3031  1.5126
  126MOL   C32645576   3.964   1.673   0.643 -1.2775  0.2859 -0.4598
  126MOL   O32745577   4.017   1.631   0.539  0.0127 -0.2794  0.6122
  126MOL   C32845578   4.027   1.668   0.780  0.4950  0.0599 -0.0674
  126MOL   C32945579   4.015   1.519   0.830 -0.3427 -0.8502  0.8171
  126MOL   C33045580   4.132   1.440   0.775 -0.1403 -0.0354 -0.3998
  126MOL   C33145581   4.133   1.285   0.814  0.1216 -1.0315 -0.3974
  126MOL   C33245582   4.253   1.200   0.774  0.0337 -0.8549  0.4317
  126MOL   O33345583   4.376   1.268   0.816  0.0914 -0.2716  0.4139
  126MOL   H33445584   3.962   1.729   0.842 -0.5314  0.0329 -1.0985
  126MOL   H33545585   4.131   1.703   0.780  0.9198 -1.1557  1.0046
  126MOL   H33645586   3.918   1.472   0.816 -0.6491 -0.0059  0.1307
  126MOL   H33745587   4.035   1.507   0.936  0.2616 -0.1654  0.7792
  126MOL   H33845588   4.225   1.479   0.815 -1.1379  0.9213  0.9963
  126MOL   H33945589   4.138   1.443   0.666  0.6214  0.6611 -0.3423
  126MOL   H34045590   4.050   1.238   0.761 -0.5462 -1.1533  0.7419
  126MOL   H34145591   4.114   1.275   0.921 -0.1616  0.9478 -0.2419
  126MOL   H34245592   4.255   1.104   0.825  0.1978 -0.2218  1.6143
  126MOL   H34345593   4.247   1.174   0.668 -2.4993 -1.7468  0.7742
  126MOL   C34445594   4.469   1.299   0.717  0.3205 -0.4122 -0.0090
  126MOL   O34545595   4.470   1.261   0.603  0.5646  0.1042  0.4614
  126MOL   C34645596   4.580   1.388   0.765 -0.3894 -0.6631 -0.6817
  126MOL   C34745597   4.536   1.521   0.826 -0.0364 -0.8066 -0.0449
  126MOL   C34845598   4.474   1.618   0.716  0.2514 -0.4986 -0.8789
  126MOL   C34945599   4.465   1.759   0.787  0.2939  0.4093 -1.1752
  126MOL   C35045600   4.367   1.851   0.713  0.1577  0.7907  0.2731
  126MOL   O35145601   4.280   1.926   0.791  0.3912 -0.0658  0.3228
  126MOL   H35245602   4.651   1.417   0.688  0.6245  1.0236  0.8464
  126MOL   H35345603   4.648   1.334   0.831  1.1108  1.4311 -0.4581
  126MOL   H35445604   4.621   1.573   0.870 -0.4736 -1.8541  2.0973
  126MOL   H35545605   4.467   1.492   0.905  0.9693 -0.4867  0.9662
  126MOL   H35645606   4.375   1.586   0.684 -0.4976 -0.8510  1.6427
  126MOL   H35745607   4.543   1.636   0.633 -0.4900  0.4812 -1.3034
  126MOL   H35845608   4.562   1.807   0.792  0.2600  0.6831 -2.9286
  126MOL   H35945609   4.434   1.747   0.891  3.3646  2.3523 -0.0062
  126MOL   H36045610   4.422   1.917   0.647  0.6264  1.1585  1.0275
  126MOL   H36145611   4.303   1.804   0.638 -1.2298  1.7210  0.8578
  126MOL   H36245612   4.228   1.967   0.724 -0.6612  0.2744  1.3322
  127MOL     C145613   4.096   4.891   3.803  0.0060  0.0835  0.2347
  127MOL     O245614   4.063   4.788   3.745  0.6003 -0.5616  0.5562
  127MOL     C345615   4.000   4.935   3.914  0.0265 -0.5319 -0.0832
  127MOL     C445616   3.888   5.029   3.850  0.3110 -0.0738 -0.4652
  127MOL     C545617   3.773   5.085   3.941 -0.1713 -0.0178 -0.7160
  127MOL     C645618   3.689   5.188   3.869 -0.3589 -0.3505  0.1831
  127MOL     C745619   3.574   5.247   3.944  0.4946 -0.4442 -0.5536
  127MOL     O845620   3.615   5.313   4.068  0.0345 -0.0856 -0.3307
  127MOL     H945621   4.053   4.989   3.993  0.4425 -4.6895  2.6024
  127MOL    H1045622   3.952   4.851   3.963 -1.4583 -0.2240 -0.9647
  127MOL    H1145623   3.830   4.980   3.772 -2.2979  1.3060  0.5607
  127MOL    H1245624   3.937   5.113   3.801  0.4377  0.7737  1.0901
  127MOL    H1345625   3.800   5.130   4.036  0.4450 -1.3447 -0.2482
  127MOL    H1445626   3.700   5.008   3.967  0.8632 -1.1784 -1.1778
  127MOL    H1545627   3.653   5.143   3.776  0.0400 -0.5731  0.1353
  127MOL    H1645628   3.748   5.277   3.844 -1.3840  0.3945  0.3826
  127MOL    H1745629   3.513   5.305   3.874 -1.8301 -3.6043 -1.2284
  127MOL    H1845630   3.521   5.155   3.966 -0.8880  0.0880 -1.5949
  127MOL    H1945631   4.185   4.946   3.772 -0.3919  0.2749 -0.5758
  127MOL    C2045632   3.520   5.361   4.157  0.8320  0.1145  0.6973
  127MOL    O2145633   3.401   5.360   4.131  0.5640 -0.0237  0.3222
  127MOL    C2245634   3.583   5.410   4.286  0.0227 -0.4672 -0.5946
  127MOL    C2345635   3.677   5.530   4.261  0.2354 -0.2097  0.0176
  127MOL    C2445636   3.756   5.574   4.380 -0.1285 -0.1608 -0.0751
  127MOL    C2545637   3.853   5.699   4.358  0.3339  0.3225  0.1237
  127MOL    C2645638   3.927   5.745   4.484 -0.4904 -0.2655  0.7160
  127MOL    O2745639   4.010   5.858   4.465  0.7082 -0.0396  0.3026
  127MOL    H2845640   3.631   5.335   4.349 -2.1489 -1.5997 -0.2453
  127MOL    H2945641   3.502   5.443   4.350 -0.2113  0.9248 -1.6030
  127MOL    H3045642   3.630   5.611   4.206 -0.2713 -2.1440 -2.4608
  127MOL    H3145643   3.748   5.501   4.184 -0.7593 -2.5068 -0.0855
  127MOL    H3245644   3.824   5.494   4.409  1.4915  1.2439  0.1244
  127MOL    H3345645   3.684   5.594   4.459 -0.0705  0.8774 -0.2824
  127MOL    H3445646   3.798   5.781   4.311 -1.1883  0.8849  2.8043
  127MOL    H3545647   3.917   5.664   4.276 -1.2705 -0.7875 -0.6960
  127MOL    H3645648   3.851   5.760   4.561  0.6734  0.4603  1.7541
  127MOL    H3745649   3.988   5.666   4.527 -0.0449 -0.3724 -0.1156
  127MOL    C3845650   4.091   5.900   4.563  0.0777 -0.1469 -0.2635
  127MOL    O3945651   4.096   5.851   4.681 -0.1226 -0.0474 -0.0094
  127MOL    C4045652   4.161   6.029   4.527 -0.2021  0.3311  0.1322
  127MOL    C4145653   4.265   6.001   4.418 -0.6212  0.0796 -0.0312
  127MOL    C4245654   4.350   6.130   4.374 -0.6149  0.4291  0.1200
  127MOL    C4345655   4.433   6.199   4.479 -0.0927  0.1472 -0.1992
  127MOL    C4445656   4.514   6.311   4.416 -0.4089  0.0177 -0.3369
  127MOL    O4545657   4.604   6.256   4.322 -0.5172 -0.4455  0.1754
  127MOL    H4645658   4.214   6.067   4.615  0.9015  1.8247 -1.1617
  127MOL    H4745659   4.085   6.104   4.507 -1.3696 -0.1086  2.6688
  127MOL    H4845660   4.211   5.961   4.332 -0.7084 -1.5431  0.7567
  127MOL    H4945661   4.327   5.919   4.454 -2.6878 -1.5080 -0.0438
  127MOL    H5045662   4.273   6.196   4.333 -0.8414  0.0395 -0.0942
  127MOL    H5145663   4.411   6.104   4.288 -1.4042  0.9489 -0.6065
  127MOL    H5245664   4.489   6.131   4.543 -2.1489 -0.3278  1.1518
  127MOL    H5345665   4.364   6.242   4.552  0.6793 -2.1629  1.9853
  127MOL    H5445666   4.447   6.387   4.377 -1.5389  0.1047  1.6871
  127MOL    H5545667   4.565   6.358   4.500 -1.0604  2.0033 -1.0312
  127MOL    C5645668   4.728   6.219   4.369  0.2761 -0.0875 -0.1608
  127MOL    O5745669   4.775   6.240   4.482  0.5756  0.8228  0.0276
  127MOL    C5845670   4.808   6.128   4.273  0.0134 -0.1794  1.2529
  127MOL    C5945671   4.829   6.195   4.134 -0.0701  0.3268  0.5495
  127MOL    C6045672   4.951   6.292   4.130  0.1249  0.0846 -0.1437
  127MOL    C6145673   4.965   6.353   3.994 -0.4331 -0.3523  0.8526
  127MOL    C6245674   5.109   6.388   3.964  0.4325  0.1065 -0.6082
  127MOL    O6345675   5.120   6.470   3.844 -0.2417 -0.3595 -0.3604
  127MOL    H6445676   4.746   6.042   4.246 -0.3426  0.1049  1.1596
  127MOL    H6545677   4.905   6.098   4.313  1.6783  2.5106 -0.6195
  127MOL    H6645678   4.740   6.246   4.098 -0.4429 -0.0824  0.8871
  127MOL    H6745679   4.836   6.110   4.066 -1.7287  0.4277  0.2323
  127MOL    H6845680   5.041   6.233   4.151 -0.1076 -0.4336 -0.5642
  127MOL    H6945681   4.934   6.370   4.203 -0.1758  0.3650 -0.5128
  127MOL    H7045682   4.898   6.439   3.998  1.8406  1.4999  0.4215
  127MOL    H7145683   4.929   6.290   3.913  0.9006 -0.6340  0.4758
  127MOL    H7245684   5.150   6.434   4.054 -0.6258  0.2101 -0.1698
  127MOL    H7345685   5.155   6.292   3.937 -0.4440 -0.2933 -0.6914
  127MOL    C7445686   5.093   6.596   3.848  0.3032  0.0039 -0.3408
  127MOL    O7545687   5.053   6.663   3.947 -0.1245  0.3676 -0.1010
  127MOL    C7645688   5.137   6.664   3.713 -0.1111  0.0123 -0.0526
  127MOL    C7745689   5.128   6.820   3.723 -0.4881  0.1716  0.1437
  127MOL    C7845690   5.243   6.880   3.803  0.0843  0.4640  0.0705
  127MOL    C7945691   5.264   7.026   3.759  0.1706 -0.4079 -0.1233
  127MOL    C8045692   5.409   7.088   3.780  0.2034 -0.3584 -0.5625
  127MOL    O8145693   5.506   7.014   3.703 -0.1055  0.2506 -0.0297
  127MOL    H8245694   5.070   6.621   3.639  1.0554 -1.3864 -0.3214
  127MOL    H8345695   5.234   6.622   3.685  0.1048  0.1365  0.5078
  127MOL    H8445696   5.031   6.848   3.766  0.6762  0.5608  2.6349
  127MOL    H8545697   5.117   6.862   3.623 -1.4450 -1.6857 -0.5569
  127MOL    H8645698   5.332   6.818   3.791 -1.3576 -1.2455 -2.4088
  127MOL    H8745699   5.215   6.877   3.908 -4.4580  0.2866 -1.0366
  127MOL    H8845700   5.185   7.085   3.805  0.6204  1.1717 -1.3232
  127MOL    H8945701   5.247   7.039   3.652  0.8296 -2.8110 -0.5511
  127MOL    H9045702   5.409   7.192   3.745  2.6350 -0.6748 -1.6289
  127MOL    H9145703   5.431   7.083   3.886  1.8202  1.8469 -0.7698
  127MOL    C9245704   5.513   7.025   3.572  0.2216 -0.9849  0.4336
  127MOL    O9345705   5.440   7.102   3.513 -0.1616  0.3056 -0.4413
  127MOL    C9445706   5.603   6.925   3.499  0.1143 -0.1119 -0.1731
  127MOL    C9545707   5.525   6.801   3.456  0.2683 -0.0857  0.0531
  127MOL    C9645708   5.502   6.689   3.558 -0.7785 -0.5738  0.0681
  127MOL    C9745709   5.446   6.555   3.512  0.5697 -0.7945  0.0219
  127MOL    C9845710   5.464   6.437   3.616 -0.0845  0.4741 -0.1421
  127MOL    O9945711   5.390   6.328   3.576  0.5800 -0.0520  0.2175
  127MOL   H10045712   5.679   6.880   3.564  0.8866 -1.8884 -2.2324
  127MOL   H10145713   5.656   6.967   3.414  1.0717 -0.6336  0.1491
  127MOL   H10245714   5.566   6.760   3.364 -0.0456  2.0201 -1.0437
  127MOL   H10345715   5.426   6.833   3.422  0.6535 -1.2828 -2.2978
  127MOL   H10445716   5.424   6.726   3.625 -0.7023 -0.1002 -0.0965
  127MOL   H10545717   5.588   6.666   3.620 -1.6615 -1.9923  0.7872
  127MOL   H10645718   5.487   6.516   3.419  0.6268  1.4033 -0.8950
  127MOL   H10745719   5.341   6.557   3.482  0.3114  2.4383  0.9597
  127MOL   H10845720   5.567   6.404   3.616 -0.5508 -1.0199 -1.1315
  127MOL   H10945721   5.450   6.465   3.720  0.1521  3.0825 -0.7758
  127MOL   C11045722   5.355   6.228   3.657 -0.0392 -0.5384 -0.8571
  127MOL   O11145723   5.387   6.224   3.774  0.2413 -0.3036 -0.1519
  127MOL   C11245724   5.276   6.119   3.589  0.2570  0.3526 -0.4459
  127MOL   C11345725   5.126   6.134   3.634  0.8559  0.4108 -0.2155
  127MOL   C11445726   5.067   6.006   3.691 -0.5012 -1.3287 -0.6517
  127MOL   C11545727   4.922   6.029   3.746 -0.3850  0.4676  0.3832
  127MOL   C11645728   4.851   5.899   3.789 -0.4463  0.5751 -0.1406
  127MOL   O11745729   4.840   5.805   3.684  0.1981 -0.3516 -0.6080
  127MOL   H11845730   5.319   6.021   3.609 -2.6385 -0.5486  1.6663
  127MOL   H11945731   5.288   6.135   3.482 -1.0087  1.2816 -0.4652
  127MOL   H12045732   5.071   6.155   3.542  0.6697 -1.4811 -0.5620
  127MOL   H12145733   5.096   6.216   3.699 -1.0362  1.7482 -2.7059
  127MOL   H12245734   5.130   5.959   3.766 -0.3322 -0.2751 -0.1203
  127MOL   H12345735   5.067   5.924   3.619  0.7486 -0.2547 -1.9046
  127MOL   H12445736   4.871   6.080   3.665 -0.0826  0.4570  0.1853
  127MOL   H12545737   4.915   6.098   3.831 -1.2406 -0.2117  0.8670
  127MOL   H12645738   4.886   5.850   3.880 -0.9367  0.7161  0.1236
  127MOL   H12745739   4.747   5.922   3.813 -0.0628  0.9157  1.2443
  127MOL   C12845740   4.722   5.776   3.621  0.2159  0.0983 -0.4851
  127MOL   O12945741   4.608   5.809   3.651  0.6062  0.1811  0.1659
  127MOL   C13045742   4.741   5.684   3.500 -0.2809  0.0166  0.0932
  127MOL   C13145743   4.843   5.730   3.395 -0.3985 -0.0860  0.2883
  127MOL   C13245744   4.849   5.646   3.265  0.1540  0.2068  0.2357
  127MOL   C13345745   4.953   5.683   3.166 -0.0678  0.1233  0.1489
  127MOL   C13445746   4.966   5.580   3.057  0.1291 -0.5850  0.4080
  127MOL   O13545747   5.080   5.617   2.977 -0.0486  0.3881  0.2922
  127MOL   H13645748   4.654   5.662   3.438  1.6079 -2.5067 -1.7608
  127MOL   H13745749   4.776   5.587   3.535  1.5118  0.6112 -0.0400
  127MOL   H13845750   4.941   5.737   3.442 -0.5540 -1.2403  0.8109
  127MOL   H13945751   4.829   5.834   3.366 -2.8120 -0.9416 -1.8880
  127MOL   H14045752   4.749   5.641   3.221 -0.8749  2.0306  2.2858
  127MOL   H14145753   4.878   5.545   3.292  1.7238  0.6365  0.1658
  127MOL   H14245754   5.047   5.695   3.219 -0.4850  4.1180  0.1604
  127MOL   H14345755   4.923   5.780   3.125  2.1420  1.0944  0.7556
  127MOL   H14445756   4.992   5.490   3.113  0.5541  1.2663  3.2624
  127MOL   H14545757   4.880   5.545   2.999 -0.1908 -0.4712  0.8140
  127MOL   C14645758   5.122   5.542   2.873  0.2404 -0.5916 -0.0029
  127MOL   O14745759   5.064   5.441   2.833  0.4503  0.5631  0.2338
  127MOL   C14845760   5.254   5.595   2.815 -0.1515  0.2736 -0.2629
  127MOL   C14945761   5.379   5.557   2.906 -0.9229 -0.1713 -1.0284
  127MOL   C15045762   5.516   5.629   2.864  0.4979  0.2889 -1.2013
  127MOL   C15145763   5.639   5.599   2.952  0.6631  0.7397  0.2249
  127MOL   C15245764   5.761   5.682   2.921 -0.4357 -0.0997  0.4293
  127MOL   O15345765   5.871   5.628   2.995 -0.0224  0.0693  0.1940
  127MOL   H15445766   5.240   5.701   2.794  0.5578  0.4356  0.0713
  127MOL   H15545767   5.263   5.559   2.713  1.3013 -1.1010  0.3317
  127MOL   H15645768   5.384   5.449   2.896 -0.0005 -0.2412  0.2132
  127MOL   H15745769   5.357   5.570   3.012  2.3519  1.6763 -0.5084
  127MOL   H15845770   5.511   5.738   2.861  3.4632  0.4632 -2.0992
  127MOL   H15945771   5.547   5.597   2.764  1.0323  1.1768 -1.3261
  127MOL   H16045772   5.668   5.495   2.957  1.9313  0.9409 -2.2979
  127MOL   H16145773   5.626   5.627   3.056  1.6364  0.5219  0.4125
  127MOL   H16245774   5.779   5.670   2.814 -2.8546  1.2266 -0.1622
  127MOL   H16345775   5.747   5.790   2.934  1.2342  0.2550 -0.5431
  127MOL   C16445776   5.991   5.689   2.982 -0.4361  0.5075 -0.3466
  127MOL   O16545777   6.006   5.802   2.939  0.5566  0.0075 -0.0614
  127MOL   C16645778   6.112   5.604   3.019  0.1477 -0.4178 -0.6015
  127MOL   C16745779   6.102   5.458   2.998  0.4400  0.6018 -0.3960
  127MOL   C16845780   6.228   5.376   3.024 -0.6022  0.6872 -0.0533
  127MOL   C16945781   6.201   5.227   3.023  0.1871 -0.0969  0.3101
  127MOL   C17045782   6.328   5.150   3.068 -0.4523  0.8252 -0.6618
  127MOL   O17145783   6.310   5.147   3.206  0.3563 -0.0403 -0.6444
  127MOL   H17245784   6.145   5.618   3.122  2.7812 -1.9445 -1.1950
  127MOL   H17345785   6.192   5.654   2.963  0.4099  1.7240  1.5775
  127MOL   H17445786   6.064   5.432   2.899 -0.9358  0.0933  0.2484
  127MOL   H17545787   6.025   5.428   3.070 -1.0994  0.2871 -2.1325
  127MOL   H17645788   6.259   5.418   3.120 -1.5146  0.1920  0.4627
  127MOL   H17745789   6.311   5.397   2.956 -0.0668  1.3534  0.7856
  127MOL   H17845790   6.170   5.199   2.922  0.9743  1.8437 -0.4917
  127MOL   H17945791   6.117   5.208   3.090 -1.2535 -0.2442 -1.5231
  127MOL   H18045792   6.327   5.051   3.023 -1.8206  0.6077 -0.1520
  127MOL   H18145793   6.423   5.196   3.037 -0.4338  0.5759 -0.9744
  127MOL   C18245794   6.375   5.060   3.283 -0.2995  0.0263  0.3503
  127MOL   O18345795   6.463   4.978   3.247  0.6479  0.2652  0.1148
  127MOL   C18445796   6.315   5.062   3.423 -0.1138 -0.1415 -0.0345
  127MOL   C18545797   6.373   4.953   3.506  0.1912 -0.0061  0.2233
  127MOL   C18645798   6.315   4.818   3.494  0.3123  0.3933 -0.0977
  127MOL   C18745799   6.201   4.783   3.592  1.0495  0.5630 -0.1335
  127MOL   C18845800   6.155   4.636   3.585  0.5947  0.9385  0.0354
  127MOL   O18945801   6.023   4.617   3.641 -0.0695 -0.5703 -0.2486
  127MOL   H19045802   6.207   5.055   3.407  0.4199 -0.3126 -4.0390
  127MOL   H19145803   6.343   5.157   3.469  0.1417 -0.3462  0.2325
  127MOL   H19245804   6.369   4.988   3.609  1.7370  1.3241 -0.1379
  127MOL   H19345805   6.480   4.956   3.484  0.0213  0.7782 -0.5480
  127MOL   H19445806   6.398   4.749   3.506  0.3620 -0.1005 -2.9407
  127MOL   H19545807   6.273   4.810   3.393 -1.6569 -1.1667  0.8137
  127MOL   H19645808   6.116   4.843   3.559  0.4941 -0.8982 -1.4151
  127MOL   H19745809   6.241   4.815   3.688 -0.9515  0.8087  0.6563
  127MOL   H19845810   6.147   4.593   3.485 -0.2508 -0.3273  0.6370
  127MOL   H19945811   6.238   4.576   3.622 -0.5286 -1.8522 -1.8329
  127MOL   C20045812   6.018   4.565   3.763  0.6937  0.2174  0.1199
  127MOL   O20145813   6.116   4.536   3.835  0.0980  0.5885  0.7706
  127MOL   C20245814   5.876   4.549   3.802  0.0554 -0.3380  0.3620
  127MOL   C20345815   5.771   4.533   3.694 -0.0812  0.7450  0.2360
  127MOL   C20445816   5.778   4.388   3.641 -0.6443 -0.1668 -0.3536
  127MOL   C20545817   5.661   4.346   3.542  0.3444 -0.1492  0.5605
  127MOL   C20645818   5.516   4.365   3.579 -0.1211  0.3900 -0.6094
  127MOL   O20745819   5.444   4.286   3.490 -0.0840  0.3048  0.5880
  127MOL   H20845820   5.849   4.641   3.854  0.8486  1.1453 -1.7903
  127MOL   H20945821   5.863   4.479   3.885 -0.2857 -1.8305 -0.9336
  127MOL   H21045822   5.797   4.592   3.605 -0.6188 -1.5866 -1.5071
  127MOL   H21145823   5.677   4.560   3.741 -0.6817 -2.8570  1.1899
  127MOL   H21245824   5.786   4.314   3.721  0.3304 -0.2527 -0.5173
  127MOL   H21345825   5.863   4.380   3.573 -0.4046  0.0761 -0.0836
  127MOL   H21445826   5.683   4.242   3.518 -0.0344  0.0240 -0.5393
  127MOL   H21545827   5.676   4.399   3.448  1.0659  0.8792  1.2351
  127MOL   H21645828   5.487   4.315   3.671 -0.9947  0.8269 -0.6441
  127MOL   H21745829   5.502   4.473   3.589 -0.1227  0.4148 -0.8587
  127MOL   C21845830   5.372   4.340   3.388  0.7549  0.4465 -0.1106
  127MOL   O21945831   5.364   4.461   3.374 -0.1553 -0.0271  0.2476
  127MOL   C22045832   5.317   4.238   3.295 -0.0594  1.0532  0.1084
  127MOL   C22145833   5.292   4.291   3.154 -0.0165 -0.1564  0.1920
  127MOL   C22245834   5.163   4.365   3.129 -0.6026  0.0758  1.1474
  127MOL   C22345835   5.044   4.274   3.108 -0.1898 -0.4116  0.0799
  127MOL   C22445836   4.958   4.303   2.979  0.5608  0.4758  0.8415
  127MOL   O22545837   5.035   4.284   2.858  0.0400 -0.3526  0.3544
  127MOL   H22645838   5.227   4.187   3.330 -0.2806  1.2394 -0.1850
  127MOL   H22745839   5.400   4.167   3.289  1.4169  2.7825 -0.3481
  127MOL   H22845840   5.289   4.202   3.091 -0.2837  1.4668 -2.1621
  127MOL   H22945841   5.374   4.341   3.102  1.2898  0.4358  2.7390
  127MOL   H23045842   5.174   4.434   3.045  2.5363 -0.3431  1.1437
  127MOL   H23145843   5.132   4.428   3.212 -1.2858  0.1791  0.8171
  127MOL   H23245844   4.991   4.284   3.203  0.3645 -1.1619  0.4739
  127MOL   H23345845   5.079   4.171   3.103  0.4732 -0.2221  0.8080
  127MOL   H23445846   4.868   4.242   2.981  1.5291 -0.9598  1.4419
  127MOL   H23545847   4.918   4.405   2.978  3.1845  1.5512  0.9911
  127MOL   C23645848   5.018   4.176   2.779 -0.1054  0.5109 -0.3901
  127MOL   O23745849   4.926   4.098   2.786 -0.1288  0.2841 -0.0735
  127MOL   C23845850   5.138   4.166   2.679 -0.5282  0.4722  0.6594
  127MOL   C23945851   5.149   4.033   2.598  0.2199 -0.2884  0.4811
  127MOL   C24045852   5.050   4.011   2.477 -0.3734 -0.3243 -0.4213
  127MOL   C24145853   5.104   3.917   2.365  0.0053 -0.2849  0.7087
  127MOL   C24245854   5.115   3.775   2.410  0.5211 -0.3531  0.1337
  127MOL   O24345855   4.982   3.716   2.427  0.3433  0.3312 -0.6287
  127MOL   H24445856   5.228   4.191   2.734  0.9047 -0.5143 -1.1997
  127MOL   H24545857   5.131   4.248   2.608  0.2231 -0.1515 -0.1355
  127MOL   H24645858   5.145   3.945   2.661  2.0191 -2.0571 -1.7951
  127MOL   H24745859   5.244   4.049   2.548 -0.9189 -0.9041 -1.9618
  127MOL   H24845860   5.031   4.103   2.421  1.5104  0.1428 -0.3235
  127MOL   H24945861   4.950   3.983   2.511 -0.8208 -2.1026 -3.0296
  127MOL   H25045862   5.200   3.956   2.329 -0.8326  0.2136 -1.0622
  127MOL   H25145863   5.032   3.932   2.285 -1.8708 -0.9227  2.2437
  127MOL   H25245864   5.156   3.715   2.329  0.7743  0.0373 -0.0241
  127MOL   H25345865   5.193   3.777   2.486 -1.3658  0.5036  2.0998
  127MOL   C25445866   4.939   3.624   2.338  0.1907 -0.4104 -0.8392
  127MOL   O25545867   4.985   3.597   2.228 -0.2402 -0.3497  0.2799
  127MOL   C25645868   4.820   3.549   2.392 -0.5304 -0.5948 -0.0672
  127MOL   C25745869   4.849   3.436   2.483 -0.2802  0.2835  0.0366
  127MOL   C25845870   4.855   3.470   2.634  0.5207  0.0111  0.3402
  127MOL   C25945871   4.868   3.348   2.727 -0.4766 -0.3986  0.2845
  127MOL   C26045872   4.875   3.385   2.878 -0.3071  0.7742  0.0330
  127MOL   O26145873   4.863   3.271   2.966 -0.1688 -0.5523  0.0861
  127MOL   H26245874   4.765   3.511   2.306  1.2688  0.9725 -1.9496
  127MOL   H26345875   4.757   3.624   2.442 -2.1717 -1.2058 -1.1805
  127MOL   H26445876   4.944   3.395   2.450 -1.1457  0.6658 -3.1078
  127MOL   H26545877   4.770   3.362   2.471  1.1954 -1.4458  0.8023
  127MOL   H26645878   4.754   3.507   2.653  0.6695  0.8766 -0.5388
  127MOL   H26745879   4.919   3.556   2.655  1.3030 -0.1692 -1.2525
  127MOL   H26845880   4.954   3.282   2.719 -0.2988 -0.3866  1.8342
  127MOL   H26945881   4.780   3.288   2.703  0.9989 -2.9883  1.1047
  127MOL   H27045882   4.962   3.448   2.898 -0.8463  1.7908 -0.7460
  127MOL   H27145883   4.799   3.462   2.894  0.5246  1.8136 -0.9488
  127MOL   C27245884   4.841   3.289   3.098 -0.0922  0.1904  0.1487
  127MOL   O27345885   4.849   3.398   3.156  0.0196  0.2006  0.0449
  127MOL   C27445886   4.790   3.163   3.172  0.2873 -0.8405 -0.1549
  127MOL   C27545887   4.647   3.128   3.133 -0.2916 -0.4170  0.2039
  127MOL   C27645888   4.599   2.988   3.189 -0.2341 -0.9504  0.6859
  127MOL   C27745889   4.483   2.918   3.103 -0.4903 -0.1118  0.4899
  127MOL   C27845890   4.446   2.777   3.152  0.0931  0.6435 -0.2034
  127MOL   O27945891   4.392   2.777   3.286 -0.5452 -0.1008 -0.1054
  127MOL   H28045892   4.806   3.157   3.280  1.6430  2.9939 -0.0363
  127MOL   H28145893   4.856   3.083   3.138  0.6898 -1.1227  1.2538
  127MOL   H28245894   4.640   3.140   3.025 -1.8972  0.8122  0.4278
  127MOL   H28345895   4.587   3.204   3.183  0.1610  0.4013 -0.4777
  127MOL   H28445896   4.568   3.006   3.292 -0.0517  2.6108  0.1845
  127MOL   H28545897   4.680   2.916   3.188 -0.3100 -1.0289 -0.7456
  127MOL   H28645898   4.501   2.906   2.996 -0.6557  0.9755  0.3415
  127MOL   H28745899   4.396   2.983   3.098 -1.0802 -0.8878  0.5742
  127MOL   H28845900   4.372   2.741   3.080  0.3866  0.3811 -0.3760
  127MOL   H28945901   4.525   2.701   3.151 -0.5113 -0.0405  1.4331
  127MOL   C29045902   4.264   2.804   3.319 -0.5073 -0.1707 -0.0446
  127MOL   O29145903   4.171   2.810   3.236 -0.2420  0.3823  0.0784
  127MOL   C29245904   4.245   2.835   3.467  0.1406 -0.7975  0.5562
  127MOL   C29345905   4.235   2.994   3.480 -0.0218  0.3344 -0.2927
  127MOL   C29445906   4.093   3.049   3.436 -0.4692 -0.2874  0.0699
  127MOL   C29545907   4.064   3.189   3.491  0.0075 -0.5454 -0.4906
  127MOL   C29645908   3.921   3.229   3.450 -0.0305 -0.5565  0.7133
  127MOL   O29745909   3.911   3.232   3.309 -0.0007  0.2064  0.0566
  127MOL   H29845910   4.318   2.779   3.525  0.7371 -0.1211  0.4671
  127MOL   H29945911   4.150   2.794   3.502 -1.1265  2.6335  1.3366
  127MOL   H30045912   4.303   3.044   3.411  0.7388  0.8952  0.8526
  127MOL   H30145913   4.257   3.015   3.585  1.7183  0.4546 -0.6713
  127MOL   H30245914   4.022   2.981   3.485  2.0688 -2.0866  1.3484
  127MOL   H30345915   4.079   3.045   3.328 -0.9942  2.2692 -0.0031
  127MOL   H30445916   4.147   3.243   3.446 -0.1036  0.0180 -0.0086
  127MOL   H30545917   4.077   3.182   3.599  1.4300  0.7856 -0.5628
  127MOL   H30645918   3.843   3.159   3.481 -0.9722 -0.5457 -1.4864
  127MOL   H30745919   3.887   3.323   3.493  1.0104  1.4908 -2.7132
  127MOL   C30845920   3.825   3.153   3.244  0.4105  0.1759  0.0664
  127MOL   O30945921   3.740   3.077   3.296 -0.6690  0.3504 -0.2135
  127MOL   C31045922   3.820   3.172   3.095 -0.1378  0.5358  0.9935
  127MOL   C31145923   3.767   3.044   3.024 -0.1859 -0.0356 -0.4577
  127MOL   C31245924   3.869   2.924   3.046 -0.3298  0.5287  0.9357
  127MOL   C31345925   3.822   2.782   3.009  0.4322  0.3308 -0.2740
  127MOL   C31445926   3.939   2.685   3.021  0.1741  0.3338 -0.8440
  127MOL   O31545927   4.033   2.693   2.910 -0.9139  0.0870 -0.7218
  127MOL   H31645928   3.922   3.200   3.072 -0.3845  0.4820 -0.2308
  127MOL   H31745929   3.748   3.249   3.070 -0.5116 -0.3131 -0.6202
  127MOL   H31845930   3.760   3.073   2.920  1.1786  1.0457 -0.2701
  127MOL   H31945931   3.667   3.010   3.051  0.4120 -1.0567  0.5251
  127MOL   H32045932   3.909   2.914   3.147  1.2904  0.1073  0.2647
  127MOL   H32145933   3.961   2.949   2.992 -1.1710  0.9085 -0.3409
  127MOL   H32245934   3.798   2.775   2.903  2.5681 -0.3683 -0.7254
  127MOL   H32345935   3.738   2.747   3.069  0.0843 -1.5771 -1.8375
  127MOL   H32445936   3.998   2.687   3.113 -0.3318  0.5748 -0.5261
  127MOL   H32545937   3.894   2.587   3.031  1.4660 -0.1401  0.4601
  127MOL   C32645938   4.090   2.581   2.880  0.1533  0.4729  0.1760
  127MOL   O32745939   4.073   2.473   2.929 -0.2240 -0.0931  0.0495
  127MOL   C32845940   4.208   2.600   2.774  0.1010 -0.6748 -0.5229
  127MOL   C32945941   4.159   2.612   2.632 -0.1014 -0.2746 -0.2093
  127MOL   C33045942   4.091   2.483   2.573 -0.2145 -0.4741 -0.5095
  127MOL   C33145943   4.053   2.517   2.428  0.3478 -0.2956 -0.3937
  127MOL   C33245944   3.992   2.403   2.347 -0.8137 -0.1715 -0.0616
  127MOL   O33345945   3.859   2.398   2.388 -0.3069  0.2356  0.7691
  127MOL   H33445946   4.278   2.517   2.789  1.0556  0.1035 -0.6042
  127MOL   H33545947   4.261   2.690   2.806 -2.4893  0.8716 -0.4695
  127MOL   H33645948   4.245   2.619   2.566 -0.0722  0.1863 -0.1243
  127MOL   H33745949   4.089   2.695   2.620  0.2916  0.4276  2.1005
  127MOL   H33845950   4.009   2.440   2.630  0.2813  1.2856  1.6212
  127MOL   H33945951   4.161   2.400   2.573 -0.2634 -0.5452 -2.7367
  127MOL   H34045952   4.141   2.543   2.369 -0.2281  0.4247 -0.9559
  127MOL   H34145953   3.987   2.604   2.431 -0.3656 -0.8733  1.6500
  127MOL   H34245954   3.988   2.427   2.241 -0.2993 -0.3879 -0.1307
  127MOL   H34345955   4.040   2.307   2.364  0.0544  0.0225 -1.3583
  127MOL   C34445956   3.797   2.278   2.420  0.1500  0.2802  0.2935
  127MOL   O34545957   3.850   2.169   2.419 -0.2786 -0.6287 -0.6038
  127MOL   C34645958   3.656   2.305   2.457 -0.3366  0.2500  0.4502
  127MOL   C34745959   3.542   2.317   2.353  0.7766 -0.9182  0.0648
  127MOL   C34845960   3.558   2.441   2.267  0.1478  0.0818 -1.3453
  127MOL   C34945961   3.555   2.563   2.365 -0.1836  0.3545  0.4670
  127MOL   C35045962   3.570   2.693   2.290  0.6066  0.3525 -0.5474
  127MOL   O35145963   3.454   2.722   2.209 -0.3588  0.5135 -1.1279
  127MOL   H35245964   3.643   2.388   2.526  0.6383  0.3186  0.5450
  127MOL   H35345965   3.615   2.219   2.511 -0.0537  0.0886  0.4061
  127MOL   H35445966   3.446   2.326   2.404  1.4242 -0.9892  1.3291
  127MOL   H35545967   3.532   2.229   2.291  4.6353 -0.4298 -1.3915
  127MOL   H35645968   3.477   2.449   2.195  0.0487 -0.4925 -1.2995
  127MOL   H35745969   3.659   2.432   2.225  0.6964 -2.2186  0.3956
  127MOL   H35845970   3.646   2.564   2.425  0.8068 -1.0866 -0.9343
  127MOL   H35945971   3.465   2.571   2.425  1.5505 -0.1622  3.2032
  127MOL   H36045972   3.574   2.775   2.361 -1.1480 -0.8461  0.9786
  127MOL   H36145973   3.660   2.701   2.229 -0.5704 -0.2197 -2.3983
  127MOL   H36245974   3.484   2.768   2.132  0.5020  1.7955 -0.0489
  128MOL     C145975   0.322   4.917   1.978 -0.1387  0.1227 -0.3095
  128MOL     O245976   0.300   4.867   2.093 -0.4654  0.4771  0.0416
  128MOL     C345977   0.456   4.956   1.929 -0.2392  1.0482  0.0385
  128MOL     C445978   0.559   4.964   2.044  0.5560  0.6089  0.8101
  128MOL     C545979   0.546   5.095   2.122  0.2770  0.3228 -0.8615
  128MOL     C645980   0.652   5.128   2.231  0.4097  0.4494 -1.1409
  128MOL     C745981   0.620   5.241   2.329  0.2338 -0.1425  0.5027
  128MOL     O845982   0.566   5.350   2.268 -0.4983 -0.3109 -0.0616
  128MOL     H945983   0.442   5.057   1.891 -1.2213  0.7655 -0.3625
  128MOL    H1045984   0.490   4.885   1.854 -0.4978  0.3781  0.5518
  128MOL    H1145985   0.658   4.978   1.999  0.5805  2.7046  1.4633
  128MOL    H1245986   0.566   4.873   2.103 -3.1287 -0.5707 -0.4449
  128MOL    H1345987   0.446   5.098   2.165 -0.2036 -1.9407 -1.7633
  128MOL    H1445988   0.547   5.180   2.054  2.2250  0.7391 -0.3304
  128MOL    H1545989   0.742   5.150   2.172 -0.2252  2.7661 -1.2937
  128MOL    H1645990   0.664   5.035   2.286  0.7802  2.9779  3.3471
  128MOL    H1745991   0.555   5.193   2.402 -1.2256  0.5646 -0.2937
  128MOL    H1845992   0.716   5.271   2.370  0.7378  0.4562 -1.0978
  128MOL    H1945993   0.243   4.926   1.903  1.1269 -1.7870 -1.9347
  128MOL    C2045994   0.527   5.452   2.354  0.0741  0.6680  0.0252
  128MOL    O2145995   0.557   5.459   2.474 -0.1058  0.5313  0.2792
  128MOL    C2245996   0.453   5.567   2.285 -0.7167  0.5561 -0.3408
  128MOL    C2345997   0.305   5.534   2.291  0.5083 -0.7210  0.3751
  128MOL    C2445998   0.200   5.644   2.238 -0.0450 -0.4147  0.1478
  128MOL    C2545999   0.051   5.603   2.254  0.2788 -0.4059 -0.1969
  128MOL    C2646000   7.793   5.689   2.180  0.2868 -0.4112 -0.4455
  128MOL    O2746001   7.748   5.628   2.060 -0.0941 -0.4807 -0.2120
  128MOL    H2846002   0.488   5.575   2.182 -2.8930  0.6914 -1.0955
  128MOL    H2946003   0.485   5.651   2.348  0.7197 -0.1967 -0.0474
  128MOL    H3046004   0.278   5.507   2.393  2.1825 -3.3035  0.1786
  128MOL    H3146005   0.290   5.442   2.235 -0.2697 -0.2713 -0.1555
  128MOL    H3246006   0.223   5.658   2.132  3.0729 -2.2238  0.5009
  128MOL    H3346007   0.223   5.736   2.292  0.1439 -2.7291  4.2214
  128MOL    H3446008   0.025   5.590   2.359  0.0751 -0.5700 -0.2663
  128MOL    H3546009   0.032   5.502   2.217 -1.7266 -0.0725 -0.1449
  128MOL    H3646010   7.704   5.697   2.242 -0.3897  1.9514 -1.6599
  128MOL    H3746011   7.831   5.791   2.172  0.3606 -0.2793  1.3958
  128MOL    C3846012   7.649   5.683   1.990 -0.9377  0.3171  0.2408
  128MOL    O3946013   7.570   5.769   2.022  0.4588 -0.1670  0.3294
  128MOL    C4046014   7.637   5.609   1.852  0.1259  0.0136  0.9733
  128MOL    C4146015   7.600   5.457   1.849  0.7745  0.1045  0.0665
  128MOL    C4246016   7.461   5.416   1.913 -0.5522  0.1325  0.4039
  128MOL    C4346017   7.396   5.281   1.868  0.0464  0.0829 -0.1612
  128MOL    C4446018   7.347   5.283   1.721  0.1297  0.6813 -0.4175
  128MOL    O4546019   7.254   5.391   1.696  0.2508 -0.2158 -0.2654
  128MOL    H4646020   7.732   5.624   1.800 -0.0542 -0.2931  0.5570
  128MOL    H4746021   7.564   5.662   1.791 -1.0204 -0.8612  1.5722
  128MOL    H4846022   7.676   5.393   1.892  2.0983 -0.0071 -2.3949
  128MOL    H4946023   7.605   5.432   1.743  0.5611  0.2750  0.0156
  128MOL    H5046024   7.386   5.495   1.900 -1.7081 -0.5581  2.6290
  128MOL    H5146025   7.473   5.410   2.021  0.4761  0.9532  0.3434
  128MOL    H5246026   7.303   5.282   1.927  1.0527  0.7427  1.4627
  128MOL    H5346027   7.456   5.196   1.899  0.4018  0.6889  0.8518
  128MOL    H5446028   7.426   5.288   1.646  0.3742 -1.9452 -0.3533
  128MOL    H5546029   7.295   5.188   1.710 -0.1007  0.5130  1.8515
  128MOL    C5646030   7.288   5.509   1.652 -0.4998 -0.4165  0.5755
  128MOL    O5746031   7.403   5.546   1.619 -0.1374  0.0170  0.1964
  128MOL    C5846032   7.177   5.612   1.648  0.4543 -0.0693 -0.2896
  128MOL    C5946033   7.170   5.716   1.765  0.2920  0.0478  1.0907
  128MOL    C6046034   7.292   5.795   1.806  0.6926 -0.3100 -0.8709
  128MOL    C6146035   7.262   5.907   1.908 -0.5599  0.2892 -0.0378
  128MOL    C6246036   7.196   6.032   1.850 -0.5889 -0.2122  0.7596
  128MOL    O6346037   7.269   6.092   1.747 -0.1077  0.4433  0.2405
  128MOL    H6446038   7.075   5.576   1.639  0.3549  0.0421  0.3359
  128MOL    H6546039   7.192   5.660   1.551 -0.6766  0.3890 -0.2514
  128MOL    H6646040   7.125   5.666   1.851  1.5194 -1.9990  0.5828
  128MOL    H6746041   7.100   5.797   1.747 -0.9447 -0.7866  2.0420
  128MOL    H6846042   7.328   5.844   1.716  0.2388 -1.5581 -1.7328
  128MOL    H6946043   7.360   5.722   1.850  0.4790 -0.5906 -1.0109
  128MOL    H7046044   7.352   5.947   1.953 -0.2153 -2.5128  1.8942
  128MOL    H7146045   7.209   5.860   1.991  3.7427  0.8890  3.1709
  128MOL    H7246046   7.093   6.017   1.816 -0.3143  1.2234 -0.7761
  128MOL    H7346047   7.185   6.110   1.925 -1.4861  0.2191  0.1818
  128MOL    C7446048   7.381   6.171   1.776  0.9199  1.1191  0.4273
  128MOL    O7546049   7.424   6.201   1.888 -0.1453  0.6162  0.2776
  128MOL    C7646050   7.460   6.201   1.645 -0.2480  0.1899  0.0053
  128MOL    C7746051   7.529   6.072   1.587  0.0461  0.2308 -0.5689
  128MOL    C7846052   7.658   6.024   1.660  0.1603 -0.2466  0.4998
  128MOL    C7946053   7.712   5.894   1.608  0.1692  0.3514 -0.3884
  128MOL    C8046054   7.833   5.840   1.689  0.3243 -0.0180 -0.2845
  128MOL    O8146055   0.100   5.923   1.674  0.4582  0.2745  0.7193
  128MOL    H8246056   7.533   6.282   1.652 -0.2730  0.2810 -0.7588
  128MOL    H8346057   7.399   6.230   1.559 -0.2352  3.4377  1.0239
  128MOL    H8446058   7.561   6.089   1.484 -1.6651  1.7588 -0.8671
  128MOL    H8546059   7.459   5.989   1.577  0.4915 -0.3931  1.3897
  128MOL    H8646060   7.636   6.024   1.766  0.2553  1.1579  0.5395
  128MOL    H8746061   7.734   6.099   1.638  2.9451 -3.1394 -0.1040
  128MOL    H8846062   7.746   5.902   1.505  0.6996 -0.7918 -0.3103
  128MOL    H8946063   7.629   5.824   1.620 -0.6887  1.5037  0.5860
  128MOL    H9046064   7.809   5.824   1.794 -1.8629  0.5500 -0.6677
  128MOL    H9146065   0.023   5.745   1.648 -0.6041  0.2023 -1.6112
  128MOL    C9246066   0.215   5.891   1.724  0.2689 -0.0373  0.0238
  128MOL    O9346067   0.239   5.796   1.796 -0.2564  0.2479 -0.2444
  128MOL    C9446068   0.314   5.993   1.671  0.0242  0.2305  0.1902
  128MOL    C9546069   0.399   5.936   1.556 -0.4887 -0.4939 -0.1921
  128MOL    C9646070   0.467   5.797   1.579 -0.0900  0.9243 -0.3672
  128MOL    C9746071   0.565   5.754   1.474 -0.1553 -0.3484  0.0813
  128MOL    C9846072   0.642   5.627   1.522 -0.1687  0.0369  0.0214
  128MOL    O9946073   0.740   5.596   1.421 -0.2671  0.0619  0.4190
  128MOL   H10046074   0.376   6.022   1.756  1.1563  3.4960 -1.6443
  128MOL   H10146075   0.271   6.084   1.629 -0.1727 -0.6313 -1.4818
  128MOL   H10246076   0.479   6.001   1.523 -1.4990 -0.3056 -2.3078
  128MOL   H10346077   0.335   5.926   1.468  2.2871 -0.5456 -2.2415
  128MOL   H10446078   0.393   5.719   1.565  0.3320  0.3766  0.3628
  128MOL   H10546079   0.506   5.790   1.681 -1.1203  0.6561  0.0151
  128MOL   H10646080   0.639   5.833   1.462  0.0747 -0.6324 -0.3598
  128MOL   H10746081   0.513   5.728   1.382  0.6336  0.0553 -0.4780
  128MOL   H10846082   0.696   5.655   1.613  2.3629  2.3038 -2.1248
  128MOL   H10946083   0.566   5.549   1.528 -1.4014  1.2007 -0.2259
  128MOL   C11046084   0.767   5.463   1.400 -0.3339  0.6785  0.2977
  128MOL   O11146085   0.712   5.373   1.462  0.2008 -0.4050 -0.3431
  128MOL   C11246086   0.873   5.437   1.302  1.2919 -0.7283  0.2327
  128MOL   C11346087   0.967   5.316   1.333  0.1136 -0.1755  0.4893
  128MOL   C11446088   1.114   5.347   1.281  1.1000  0.4905 -0.2996
  128MOL   C11546089   1.136   5.386   1.134 -0.8031  0.4087 -0.6565
  128MOL   C11646090   1.267   5.466   1.103  0.7306 -0.0994 -0.6967
  128MOL   O11746091   1.256   5.603   1.134  0.1315 -0.1624 -0.6587
  128MOL   H11846092   0.926   5.532   1.300  0.0895  0.0345  2.4436
  128MOL   H11946093   0.826   5.428   1.204 -1.1217 -0.0097  1.3009
  128MOL   H12046094   0.930   5.229   1.279 -0.8752 -0.0928  1.0370
  128MOL   H12146095   0.966   5.286   1.438 -0.4390 -0.4141  0.4152
  128MOL   H12246096   1.184   5.267   1.309  0.8549  0.0768 -0.8740
  128MOL   H12346097   1.136   5.436   1.340  0.3674 -0.2052  1.0541
  128MOL   H12446098   1.044   5.430   1.094 -2.1933 -1.1030  0.7934
  128MOL   H12546099   1.136   5.293   1.078 -2.2534 -0.5078  0.8151
  128MOL   H12646100   1.346   5.420   1.162 -0.5973 -0.8719  0.4953
  128MOL   H12746101   1.296   5.455   0.998  0.6944  2.8278 -1.0606
  128MOL   C12846102   1.239   5.697   1.043  0.9413  0.6667 -0.4093
  128MOL   O12946103   1.246   5.670   0.922 -0.4064 -0.3818 -0.1271
  128MOL   C13046104   1.210   5.830   1.097  0.5253 -0.3086 -0.0914
  128MOL   C13146105   1.332   5.891   1.157  0.2435  0.2137  0.3354
  128MOL   C13246106   1.454   5.919   1.070  0.5222  0.3697 -0.4474
  128MOL   C13346107   1.570   5.984   1.150 -0.1719 -0.2191 -0.3351
  128MOL   C13446108   1.697   6.002   1.056 -0.4947  0.2671  0.5593
  128MOL   O13546109   1.658   6.105   0.961  0.3899  0.2303  0.1813
  128MOL   H13646110   1.140   5.816   1.179 -0.4888  2.1039 -0.5099
  128MOL   H13746111   1.166   5.891   1.018 -0.3447 -1.1972 -0.3017
  128MOL   H13846112   1.367   5.821   1.233 -0.2598 -0.0128  0.3639
  128MOL   H13946113   1.299   5.982   1.208  2.8205  2.2480 -1.5150
  128MOL   H14046114   1.413   5.979   0.989 -0.7497  0.0948 -0.0173
  128MOL   H14146115   1.490   5.825   1.028 -0.5178 -1.2084  2.0719
  128MOL   H14246116   1.599   5.927   1.238  0.9136  2.5404  1.1546
  128MOL   H14346117   1.533   6.070   1.205 -0.7977 -0.9048  0.3087
  128MOL   H14446118   1.779   6.031   1.122  2.1563 -3.3855 -0.9962
  128MOL   H14546119   1.717   5.909   1.003 -2.8380  0.1079 -0.1133
  128MOL   C14646120   1.679   6.231   0.983  0.0137  0.1553  0.2600
  128MOL   O14746121   1.729   6.285   1.076  0.7001 -0.7749  0.2677
  128MOL   C14846122   1.626   6.312   0.862  0.1809  0.3386 -0.2461
  128MOL   C14946123   1.732   6.373   0.763 -0.2384  0.0941 -0.7393
  128MOL   C15046124   1.833   6.272   0.711  0.2093 -0.0164  0.4623
  128MOL   C15146125   1.926   6.339   0.612 -0.0575 -0.0722  0.0912
  128MOL   C15246126   2.020   6.244   0.546 -0.1652  0.6127 -0.0193
  128MOL   O15346127   2.109   6.301   0.446 -0.2485  0.5547  0.7663
  128MOL   H15446128   1.572   6.396   0.904 -1.1889 -0.8852  0.4746
  128MOL   H15546129   1.553   6.247   0.813  0.0452 -1.3677  2.1234
  128MOL   H15646130   1.782   6.442   0.831 -0.3525  0.2753 -0.8394
  128MOL   H15746131   1.685   6.435   0.687 -2.8840 -0.7287  0.1623
  128MOL   H15846132   1.765   6.207   0.656  1.5322 -1.5378  0.6006
  128MOL   H15946133   1.877   6.231   0.801  0.4835 -1.3623 -0.2651
  128MOL   H16046134   1.977   6.413   0.674  0.8132  1.0101 -1.8662
  128MOL   H16146135   1.876   6.395   0.534  0.5409  2.0534  1.1836
  128MOL   H16246136   2.072   6.184   0.621  0.8206 -0.7869 -1.7755
  128MOL   H16346137   1.964   6.170   0.488  0.2591 -0.2907  0.7009
  128MOL   C16446138   2.226   6.351   0.484 -0.0635 -0.3355  0.3576
  128MOL   O16546139   2.265   6.356   0.601  0.0349 -0.3232  0.1624
  128MOL   C16646140   2.306   6.424   0.369  0.3319 -0.6037 -0.0598
  128MOL   C16746141   2.271   6.571   0.358  0.6852  0.1169 -0.6074
  128MOL   C16846142   2.127   6.613   0.328  0.3089  0.4880 -1.1618
  128MOL   C16946143   2.063   6.550   0.208  0.2806 -0.0855 -0.2196
  128MOL   C17046144   2.140   6.572   0.075  0.1908  0.5987 -0.8487
  128MOL   O17146145   2.079   6.493   7.819 -0.0919 -0.4301 -0.3914
  128MOL   H17246146   2.286   6.368   0.277  0.9014 -2.4214  0.8871
  128MOL   H17346147   2.415   6.421   0.373  0.3068 -1.4345  0.1935
  128MOL   H17446148   2.339   6.613   0.284  1.1609  1.0558  0.3494
  128MOL   H17546149   2.291   6.623   0.452 -0.8181  0.0309 -0.2252
  128MOL   H17646150   2.127   6.721   0.313  0.2106  0.3484 -2.1937
  128MOL   H17746151   2.055   6.591   0.407 -0.2873  1.6852 -1.3504
  128MOL   H17846152   1.966   6.596   0.191  0.3033 -0.2609 -0.8457
  128MOL   H17946153   2.041   6.447   0.236 -0.1803  0.5087  1.6451
  128MOL   H18046154   2.151   6.679   0.054  0.2320  0.8620  0.4863
  128MOL   H18146155   2.244   6.540   0.080  1.1838  3.6485 -0.8673
  128MOL   C18246156   2.108   6.365   7.803 -0.4026 -0.2141 -0.4677
  128MOL   O18346157   2.210   6.315   7.841  0.0735  0.1711 -0.3792
  128MOL   C18446158   2.013   6.285   7.711  0.2505  0.3483  0.6321
  128MOL   C18546159   1.863   6.320   7.697  0.2205  0.1679 -0.9465
  128MOL   C18646160   1.831   6.457   7.639  0.3852 -0.5945 -0.0063
  128MOL   C18746161   1.675   6.488   7.629 -0.8055 -0.4631  0.0577
  128MOL   C18846162   1.672   6.614   7.541 -0.4055 -0.1102 -0.7599
  128MOL   O18946163   1.536   6.647   7.518 -0.4095  0.2700 -0.6179
  128MOL   H19046164   2.028   6.183   7.746  2.4333  0.8356  1.2544
  128MOL   H19146165   2.058   6.298   7.613  1.6368  0.1050  1.2202
  128MOL   H19246166   1.824   6.321   7.799  1.6609  1.8962 -0.3958
  128MOL   H19346167   1.812   6.245   7.637 -0.8065  1.1466 -1.2934
  128MOL   H19446168   1.865   6.463   7.536  0.5355  1.1611  0.1283
  128MOL   H19546169   1.883   6.537   7.693 -3.4004  0.2236  2.6126
  128MOL   H19646170   1.642   6.502   7.732 -0.9675  2.0779 -0.3110
  128MOL   H19746171   1.625   6.402   7.584 -0.8382 -0.6504  0.4491
  128MOL   H19846172   1.738   6.685   7.592  0.2670 -1.5134  0.3576
  128MOL   H19946173   1.716   6.583   7.447 -0.3319 -1.0838 -0.4045
  128MOL   C20046174   1.507   6.766   7.457  1.2773  0.2513  0.1472
  128MOL   O20146175   1.585   6.842   7.412 -0.1396 -0.1450 -0.8001
  128MOL   C20246176   1.352   6.793   7.445 -0.0471  0.3069  0.4413
  128MOL   C20346177   1.311   6.902   7.355  0.0027 -0.1552  0.2142
  128MOL   C20446178   1.277   7.024   7.430  0.5679  0.0647 -0.3681
  128MOL   C20546179   1.234   7.137   7.330  0.3634  0.0180 -0.0829
  128MOL   C20646180   1.184   7.266   7.402  0.7102 -0.2356  0.1849
  128MOL   O20746181   1.303   7.310   7.470  0.1031 -0.4840  0.4454
  128MOL   H20846182   1.339   6.831   7.547 -1.4719 -0.9553  0.7461
  128MOL   H20946183   1.286   6.709   7.425  1.5994 -0.4983 -1.8796
  128MOL   H21046184   1.222   6.872   7.299 -0.0942 -1.2332  0.9320
  128MOL   H21146185   1.383   6.916   7.275 -1.6529 -1.6860 -1.5986
  128MOL   H21246186   1.366   7.053   7.487  2.0597  1.5210 -3.3122
  128MOL   H21346187   1.204   6.999   7.507 -0.7418 -1.2519 -2.0004
  128MOL   H21446188   1.140   7.104   7.286  0.1284 -0.4512  0.7456
  128MOL   H21546189   1.301   7.144   7.245  0.1959 -3.6253 -0.6009
  128MOL   H21646190   1.154   7.346   7.335  3.7013  1.4702  0.8131
  128MOL   H21746191   1.107   7.235   7.473  1.3519  1.8875  1.8816
  128MOL   C21846192   1.293   7.393   7.578  0.1066  0.4942 -0.0252
  128MOL   O21946193   1.189   7.449   7.617  0.5414  0.3519 -0.2789
  128MOL   C22046194   1.423   7.423   7.641  0.0488 -0.1534 -0.1690
  128MOL   C22146195   1.525   7.521   7.571  0.0434 -0.0317 -0.1043
  128MOL   C22246196   1.590   7.461   7.445 -0.8879 -0.5103  0.1824
  128MOL   C22346197   1.654   7.323   7.458  0.0228  0.0829  0.2307
  128MOL   C22446198   1.755   7.310   7.577 -0.6000 -0.6371  0.2084
  128MOL   O22546199   1.797   7.178   7.586 -0.2647 -0.0357  0.2320
  128MOL   H22646200   1.468   7.327   7.665  0.5882 -0.2995 -1.7042
  128MOL   H22746201   1.408   7.461   7.742  0.9526 -1.4091  0.4490
  128MOL   H22846202   1.594   7.552   7.649  0.3214 -0.8212 -0.0346
  128MOL   H22946203   1.468   7.609   7.541 -1.1318 -1.5270 -2.4424
  128MOL   H23046204   1.663   7.530   7.402 -1.5317 -0.3979 -0.7625
  128MOL   H23146205   1.518   7.436   7.367  0.6675 -4.0540 -0.2349
  128MOL   H23246206   1.705   7.293   7.366  0.1038 -0.5954  0.4987
  128MOL   H23346207   1.573   7.252   7.469 -0.7971  0.8079 -0.9685
  128MOL   H23446208   1.848   7.366   7.564 -1.3914  0.6938  0.1459
  128MOL   H23546209   1.704   7.344   7.667 -0.2607  3.8540 -1.1308
  128MOL   C23646210   1.731   7.086   7.652 -0.4674 -0.6189  0.0805
  128MOL   O23746211   1.621   7.102   7.702  0.0762  0.0216 -0.6160
  128MOL   C23846212   1.809   6.960   7.666  0.0279 -0.5884 -0.4007
  128MOL   C23946213   1.888   6.954   7.803 -0.2193  0.2299 -0.5294
  128MOL   C24046214   2.010   7.042   7.799  0.1031  0.4228  0.5832
  128MOL   C24146215   2.087   7.036   0.079  0.0499 -0.2550 -0.4992
  128MOL   C24246216   2.222   7.110   0.085 -0.2011 -0.7015 -0.7852
  128MOL   O24346217   2.281   7.118   0.209 -0.0828 -0.1259 -0.3980
  128MOL   H24446218   1.881   6.952   7.585 -0.7410 -0.8314 -1.0648
  128MOL   H24546219   1.739   6.878   7.646  0.0399 -0.5137 -0.7509
  128MOL   H24646220   1.910   6.851   7.834  0.9290 -0.3799 -3.2398
  128MOL   H24746221   1.825   6.985   0.042 -0.5907 -0.0592 -0.7040
  128MOL   H24846222   1.987   7.146   7.774  1.7606  0.4529 -0.8849
  128MOL   H24946223   2.079   7.011   7.721  0.8992  1.8538  0.7045
  128MOL   H25046224   2.090   6.932   0.112  0.7290  0.4352  1.7059
  128MOL   H25146225   2.018   7.079   0.152  2.4241  3.2370 -0.1929
  128MOL   H25246226   2.302   7.074   0.021  2.8069  0.5019  2.1610
  128MOL   H25346227   2.209   7.214   0.054 -2.0492 -1.0533 -1.2947
  128MOL   C25446228   2.356   7.011   0.258  0.0586  0.1228  0.3883
  128MOL   O25546229   2.359   6.905   0.197  0.1404 -0.6811 -0.0622
  128MOL   C25646230   2.423   7.023   0.393 -0.1051 -0.4941  0.4558
  128MOL   C25746231   2.339   6.961   0.508  0.0095 -0.1554 -0.3296
  128MOL   C25846232   2.210   7.041   0.553  0.6733  0.3514  0.1253
  128MOL   C25946233   2.093   7.032   0.449  0.7338  0.0408 -0.3676
  128MOL   C26046234   1.957   7.068   0.518 -0.1300  0.2551 -0.1329
  128MOL   O26146235   1.977   7.200   0.559 -0.5660  0.7396 -0.3849
  128MOL   H26246236   2.434   7.128   0.421 -1.1465 -0.4815  0.8531
  128MOL   H26346237   2.518   6.973   0.374  0.5131  0.0643  1.9715
  128MOL   H26446238   2.410   6.952   0.590  0.7398 -1.0604 -1.0330
  128MOL   H26546239   2.316   6.860   0.473 -0.3923 -0.2749  0.2750
  128MOL   H26646240   2.228   7.140   0.596  2.6022 -1.0321  2.6162
  128MOL   H26746241   2.178   6.987   0.642 -0.2233 -0.9509 -0.9650
  128MOL   H26846242   2.077   6.934   0.403 -0.3440  1.0363 -2.1992
  128MOL   H26946243   2.111   7.097   0.363 -0.8866  1.5980  0.4376
  128MOL   H27046244   1.876   7.060   0.445 -0.6105  0.2028  0.4051
  128MOL   H27146245   1.920   7.011   0.603 -0.4093  1.1001  0.3234
  128MOL   C27246246   1.890   7.261   0.627 -0.7783  0.4954 -0.7755
  128MOL   O27346247   1.783   7.224   0.665  0.6494 -0.1145  0.4380
  128MOL   C27446248   1.934   7.399   0.670 -0.2866 -0.4640 -0.5827
  128MOL   C27546249   2.055   7.395   0.766  0.1657  0.1066 -0.1868
  128MOL   C27646250   2.120   7.535   0.786 -1.1582 -0.2428  1.1108
  128MOL   C27746251   2.244   7.528   0.883 -0.0395 -0.1956 -0.7964
  128MOL   C27846252   2.193   7.488   1.026 -0.1345 -0.7471 -0.1190
  128MOL   O27946253   2.286   7.523   1.131 -0.2965 -0.4388  0.1647
  128MOL   H28046254   1.851   7.462   0.704  1.2638 -0.2285  2.9164
  128MOL   H28146255   1.965   7.444   0.576 -0.3406  0.1700 -0.2977
  128MOL   H28246256   2.142   7.347   0.720  1.0240  1.7077 -0.2420
  128MOL   H28346257   2.020   7.347   0.858 -1.3407  0.2029 -0.6971
  128MOL   H28446258   2.048   7.609   0.822 -1.1004  1.4161 -2.0169
  128MOL   H28546259   2.152   7.569   0.687 -1.8340 -1.7908  0.3521
  128MOL   H28646260   2.302   7.621   0.884 -1.2880  0.6037 -0.7791
  128MOL   H28746261   2.304   7.447   0.842  2.0232  0.5946  0.5522
  128MOL   H28846262   2.093   7.517   1.056  0.8088  0.5859  1.8856
  128MOL   H28946263   2.184   7.380   1.028  3.5565 -1.1344  0.3106
  128MOL   C29046264   2.313   7.434   1.233 -0.6239 -0.2464  0.0979
  128MOL   O29146265   2.256   7.324   1.253  0.0364  0.1168 -0.6189
  128MOL   C29246266   2.426   7.484   1.322  0.2284 -0.3078 -0.1326
  128MOL   C29346267   2.362   7.587   1.406  0.1553  0.2243 -0.7016
  128MOL   C29446268   2.464   7.663   1.494  0.6144  0.2527  0.2403
  128MOL   C29546269   2.556   7.758   1.416 -0.1883 -0.3544 -0.3361
  128MOL   C29646270   2.650   7.842   1.501 -0.5893 -0.0917 -0.1175
  128MOL   O29746271   2.746   0.057   1.416 -0.0267  0.0335  0.5261
  128MOL   H29846272   2.505   7.535   1.267  0.6081 -0.1778  0.5301
  128MOL   H29946273   2.467   7.402   1.381 -2.2100 -1.0120  0.6192
  128MOL   H30046274   2.293   7.532   1.470 -0.5968 -0.5041 -2.1259
  128MOL   H30146275   2.310   7.664   1.349  0.9825 -0.0999 -1.9078
  128MOL   H30246276   2.525   7.595   1.554  2.3117  0.3693 -1.2843
  128MOL   H30346277   2.402   7.723   1.561 -0.7625  0.9737 -1.6386
  128MOL   H30446278   2.491   7.833   1.369  0.4396  1.9077  2.2494
  128MOL   H30546279   2.616   7.715   1.336  0.0049 -2.8234  1.1059
  128MOL   H30646280   2.598   0.084   1.542 -2.2604 -1.3130  0.3652
  128MOL   H30746281   2.692   7.782   1.582  0.9010  0.6567 -0.3111
  128MOL   C30846282   2.860   0.093   1.469 -0.1040 -0.4966 -0.6859
  128MOL   O30946283   2.899   0.057   1.576  0.4673  0.5277 -0.1961
  128MOL   C31046284   2.957   0.168   1.377  0.3082 -0.3176  0.0387
  128MOL   C31146285   3.090   0.096   1.367  0.0227  0.0764  0.8387
  128MOL   C31246286   3.194   0.174   1.283  0.1067 -0.8133  0.1520
  128MOL   C31346287   3.158   0.190   1.133  0.1465 -0.6173  0.1227
  128MOL   C31446288   3.271   0.271   1.070  0.8243 -0.2169 -0.1005
  128MOL   O31546289   3.261   0.285   0.930  0.5159  0.3462 -0.0634
  128MOL   H31646290   2.974   0.269   1.413 -0.9441 -0.1077  0.0722
  128MOL   H31746291   2.905   0.180   1.282 -2.2093  0.6460  1.4781
  128MOL   H31846292   3.083   7.837   1.333  0.2281  0.0688  0.8194
  128MOL   H31946293   3.136   0.082   1.465  0.8092 -1.7598  0.2352
  128MOL   H32046294   3.292   0.125   1.287  0.4586 -0.0800  0.7701
  128MOL   H32146295   3.219   0.271   1.327 -4.3220  0.7549 -0.6147
  128MOL   H32246296   3.061   0.236   1.114 -0.8619 -3.1695 -1.0033
  128MOL   H32346297   3.157   0.090   1.090 -1.0433 -0.7868  0.5233
  128MOL   H32446298   3.280   0.375   1.102 -2.0281 -0.5924  2.1655
  128MOL   H32546299   3.362   0.214   1.086  0.9406  0.0859  0.3154
  128MOL   C32646300   3.312   0.195   0.857 -0.5553  0.2783 -0.2598
  128MOL   O32746301   3.342   0.084   0.892  0.5983  0.3104 -0.0673
  128MOL   C32846302   3.328   0.242   0.717 -0.6539  0.3207  0.3192
  128MOL   C32946303   3.440   0.177   0.631  0.3283  0.1427 -0.1182
  128MOL   C33046304   3.421   0.025   0.598  0.3183  0.1653  0.1927
  128MOL   C33146305   3.534   7.815   0.509  0.2869 -0.5394  0.1633
  128MOL   C33246306   3.508   7.818   0.359 -0.0907 -0.0398  0.1677
  128MOL   O33346307   3.479   0.111   0.317  0.0198  0.4686  0.3311
  128MOL   H33446308   3.359   0.347   0.717  2.4670 -0.5366  0.3170
  128MOL   H33546309   3.225   0.237   0.682 -0.8904 -0.4944  1.1284
  128MOL   H33646310   3.536   0.189   0.681 -0.8291  0.4258  2.0703
  128MOL   H33746311   3.451   0.234   0.538 -3.9419  1.8826  0.3441
  128MOL   H33846312   3.327   0.006   0.547  0.1241  0.8933  0.2816
  128MOL   H33946313   3.419   7.807   0.687  0.2619  0.6836  0.5557
  128MOL   H34046314   3.548   7.711   0.539  0.3502 -0.1609  1.4839
  128MOL   H34146315   3.623   0.027   0.536  0.6739 -1.7279  1.4284
  128MOL   H34246316   3.586   7.765   0.303  1.0753  2.1201 -0.3226
  128MOL   H34346317   3.426   7.751   0.334  1.8681 -2.0172 -1.1814
  128MOL   C34446318   3.584   0.188   0.288 -0.1997 -0.4204 -0.2356
  128MOL   O34546319   3.700   0.150   0.302 -0.3551 -0.2950 -0.3289
  128MOL   C34646320   3.553   0.327   0.239 -0.0145 -0.3181  0.3590
  128MOL   C34746321   3.465   0.326   0.114  0.0044  0.2379  0.1533
  128MOL   C34846322   3.436   0.467   0.050 -0.2199  0.1665 -0.4845
  128MOL   C34946323   3.554   0.493   7.801  0.1766  0.3476 -0.0682
  128MOL   C35046324   3.526   0.629   7.725 -0.0894  0.4771  0.3008
  128MOL   O35146325   3.639   0.662   7.647  0.1749 -0.2861 -0.4566
  128MOL   H35246326   3.654   0.365   0.220 -0.9483  1.3870 -1.3846
  128MOL   H35346327   3.507   0.389   0.315 -1.2592  0.2865 -0.8666
  128MOL   H35446328   3.365   0.287   0.131 -0.0686 -0.0383 -0.8822
  128MOL   H35546329   3.506   0.263   0.035  1.3726 -0.1466  1.1496
  128MOL   H35646330   3.419   0.548   0.122 -1.1948 -1.4393  1.1569
  128MOL   H35746331   3.350   0.465   7.828 -1.3373  0.3370  0.9157
  128MOL   H35846332   3.574   0.418   7.724  0.7645  0.5760 -0.1434
  128MOL   H35946333   3.637   0.496   0.027 -1.0616  0.0800  1.4443
  128MOL   H36046334   3.440   0.630   7.659  0.1816 -0.5267 -0.0761
  128MOL   H36146335   3.498   0.709   7.794 -1.3709 -1.2709  1.8826
  128MOL   H36246336   3.643   0.596   7.580  0.5548 -1.9135  1.1292
  129MOL     C146337   1.897   0.187   2.451  0.0165  0.6966  0.1586
  129MOL     O246338   1.868   0.299   2.405  0.1097 -0.9936 -0.6051
  129MOL     C346339   1.950   0.073   2.356 -0.2854 -1.0160 -0.0551
  129MOL     C446340   2.028   0.127   2.235 -0.3452 -0.1145  0.2957
  129MOL     C546341   2.158   0.201   2.267 -0.4991 -0.1298  0.3360
  129MOL     C646342   2.240   0.194   2.139  0.5915  0.1387  0.0712
  129MOL     C746343   2.365   0.277   2.145 -0.5576  0.3016 -0.1169
  129MOL     O846344   2.339   0.417   2.158  0.5171  0.4216 -0.2305
  129MOL     H946345   1.867   0.008   2.329  0.2303 -1.1394 -1.3673
  129MOL    H1046346   2.018   0.010   2.414  0.1253  0.2741  0.8892
  129MOL    H1146347   1.969   0.185   2.163 -1.9762 -0.8241  1.0580
  129MOL    H1246348   2.047   0.039   2.174 -0.4784 -0.4177  0.6921
  129MOL    H1346349   2.202   0.148   2.352 -0.7999 -1.0768 -0.0840
  129MOL    H1446350   2.138   0.304   2.297  1.7495 -0.2449  2.3790
  129MOL    H1546351   2.171   0.228   2.062  0.0854 -0.3811  0.2947
  129MOL    H1646352   2.261   0.090   2.114  0.3025 -0.1330  0.9566
  129MOL    H1746353   2.415   0.234   2.231  0.0234  0.6564 -0.2724
  129MOL    H1846354   2.440   0.267   2.066  0.6881 -0.4923  1.1575
  129MOL    H1946355   1.877   0.149   2.551 -2.1771  1.4911  0.0443
  129MOL    C2046356   2.353   0.482   2.278  0.1422 -0.3774  0.2712
  129MOL    O2146357   2.370   0.426   2.386 -0.3999  0.4208 -0.7872
  129MOL    C2246358   2.337   0.631   2.274  0.5191  0.4946  0.3777
  129MOL    C2346359   2.452   0.704   2.206  0.2173  0.3788 -0.6165
  129MOL    C2446360   2.451   0.719   2.056 -0.1302 -0.3329  0.5555
  129MOL    C2546361   2.585   0.760   1.990 -0.0457  0.1657 -0.7706
  129MOL    C2646362   2.558   0.802   1.843  0.0141 -0.1805 -1.3248
  129MOL    O2746363   2.520   0.691   1.763  0.4537  0.3559  0.0767
  129MOL    H2846364   2.312   0.673   2.372  1.4266 -0.2287  0.9319
  129MOL    H2946365   2.248   0.652   2.214 -0.4059  0.2787  1.6490
  129MOL    H3046366   2.548   0.659   2.232  0.5801 -0.4129 -3.2652
  129MOL    H3146367   2.444   0.807   2.240  1.9035 -0.4304  2.4791
  129MOL    H3246368   2.383   0.801   2.033 -2.4199 -2.3197  0.0556
  129MOL    H3346369   2.418   0.627   2.007 -0.4892  0.8842 -1.5399
  129MOL    H3446370   2.649   0.672   1.993 -0.0887  0.0429 -2.6081
  129MOL    H3546371   2.632   0.830   2.058  0.2150  1.3389 -2.1338
  129MOL    H3646372   2.483   0.881   1.844 -0.7939 -0.9441 -0.2160
  129MOL    H3746373   2.643   0.854   1.798 -1.3262  2.4712 -0.8815
  129MOL    C3846374   2.452   0.717   1.652 -1.1294  0.1060  0.4932
  129MOL    O3946375   2.411   0.831   1.616 -0.2500  0.0383 -0.0686
  129MOL    C4046376   2.430   0.590   1.566 -0.0321 -0.4406  0.1516
  129MOL    C4146377   2.340   0.609   1.437  0.7739 -0.3804 -0.1118
  129MOL    C4246378   2.401   0.684   1.313  0.0910 -0.0805 -0.0506
  129MOL    C4346379   2.291   0.702   1.208 -0.5896  0.2391 -0.1370
  129MOL    C4446380   2.329   0.796   1.099 -0.1825  0.0345 -0.4783
  129MOL    O4546381   2.415   0.720   1.016 -0.0998  0.5433  0.4672
  129MOL    H4646382   2.386   0.512   1.628  1.3656 -0.6276  0.9438
  129MOL    H4746383   2.530   0.557   1.536 -0.0101 -0.5710  0.3611
  129MOL    H4846384   2.244   0.652   1.465 -0.1307 -2.9481  0.9554
  129MOL    H4946385   2.318   0.504   1.415 -1.0245  0.0927 -0.6423
  129MOL    H5046386   2.480   0.624   1.269  0.8419  2.1687 -1.8949
  129MOL    H5146387   2.441   0.781   1.342  0.7731  0.3067 -2.1802
  129MOL    H5246388   2.216   0.753   1.269 -1.1073 -0.4617 -0.1776
  129MOL    H5346389   2.249   0.608   1.171 -0.0694 -0.4504  0.9918
  129MOL    H5446390   2.248   0.817   1.029  1.4158  0.3854 -2.2543
  129MOL    H5546391   2.372   0.883   1.149 -3.0904 -0.1204  2.4482
  129MOL    C5646392   2.473   0.778   0.917  0.0498 -0.1775  0.0420
  129MOL    O5746393   2.441   0.885   0.865 -0.1578  0.1094  0.0376
  129MOL    C5846394   2.578   0.687   0.862  0.6074 -0.5830  0.9162
  129MOL    C5946395   2.718   0.737   0.903  0.2372  0.0321 -0.7533
  129MOL    C6046396   2.829   0.640   0.857 -0.5237  0.1482 -0.3905
  129MOL    C6146397   2.974   0.660   0.924  0.9561 -0.2543 -0.0637
  129MOL    C6246398   3.077   0.556   0.887  0.1431 -0.0186  0.5654
  129MOL    O6346399   3.085   0.572   0.746  0.2872 -0.4284  0.0840
  129MOL    H6446400   2.582   0.700   0.754  2.0956  1.2783  1.1869
  129MOL    H6546401   2.558   0.584   0.892 -0.9829 -1.3429 -2.5603
  129MOL    H6646402   2.719   0.762   1.009  0.6391 -1.5648 -0.3708
  129MOL    H6746403   2.735   0.832   0.853  2.4374  0.7194  1.2264
  129MOL    H6846404   2.835   0.636   0.749  0.2410  0.3821 -0.3646
  129MOL    H6946405   2.796   0.538   0.878 -0.0913 -0.0901 -0.8691
  129MOL    H7046406   2.967   0.679   1.031  2.2274  1.1615 -0.2091
  129MOL    H7146407   3.021   0.754   0.897 -0.5000  0.0728 -1.5063
  129MOL    H7246408   3.165   0.564   0.950 -0.2729  0.2924  1.1192
  129MOL    H7346409   3.036   0.455   0.892 -1.3331  0.5850  1.0279
  129MOL    C7446410   3.201   0.622   0.691  0.5962  0.4759  0.9299
  129MOL    O7546411   3.286   0.687   0.746 -0.0717  0.1106 -0.0194
  129MOL    C7646412   3.200   0.602   0.542  0.1141 -0.2065 -0.5583
  129MOL    C7746413   3.327   0.609   0.454  0.1600  0.0789  0.5366
  129MOL    C7846414   3.379   0.757   0.441  0.2911 -0.0187  0.2828
  129MOL    C7946415   3.475   0.776   0.330 -0.6219 -0.1127 -0.7457
  129MOL    C8046416   3.611   0.702   0.342  0.8046  0.0810 -0.3320
  129MOL    O8146417   3.680   0.725   0.220  0.6553  0.1112 -0.1643
  129MOL    H8246418   3.123   0.665   0.498  0.6203  0.3084 -0.7106
  129MOL    H8346419   3.153   0.505   0.528 -2.2132  0.7551  0.2033
  129MOL    H8446420   3.299   0.578   0.354  0.1798 -0.3117  0.6482
  129MOL    H8546421   3.400   0.540   0.497 -1.1396 -2.3203 -0.9787
  129MOL    H8646422   3.431   0.797   0.528  0.7327  1.5821 -0.6859
  129MOL    H8746423   3.294   0.825   0.427  0.7335  0.9389  2.0699
  129MOL    H8846424   3.511   0.879   0.337  1.3856 -0.8605 -0.1080
  129MOL    H8946425   3.423   0.767   0.234 -1.9880  1.6303 -0.2017
  129MOL    H9046426   3.659   0.729   0.436  1.0276  0.3388 -0.5193
  129MOL    H9146427   3.575   0.599   0.349 -0.6466  0.6119  0.1766
  129MOL    C9246428   3.765   0.830   0.211  0.0051  0.4326  0.2943
  129MOL    O9346429   3.808   0.891   0.305  0.7130  0.3551 -0.0509
  129MOL    C9446430   3.814   0.844   0.066  0.1920  0.2281  0.5044
  129MOL    C9546431   3.945   0.926   0.054 -0.1464  1.5310 -0.0122
  129MOL    C9646432   3.986   0.952   7.758  0.5773 -0.5096  0.9257
  129MOL    C9746433   4.105   1.043   7.731 -0.9610 -0.6005  0.4215
  129MOL    C9846434   4.234   0.989   7.793 -0.4925  0.2024 -0.2283
  129MOL    O9946435   4.237   1.005   0.084 -0.2007  0.1398 -0.5250
  129MOL   H10046436   3.737   0.874   7.839  0.6801 -0.7862 -0.4672
  129MOL   H10146437   3.847   0.744   0.038  1.3075  0.4145  1.1425
  129MOL   H10246438   4.028   0.868   0.094  1.4616  2.6319 -1.6795
  129MOL   H10346439   3.944   1.024   0.101  0.1749  1.0610  0.9707
  129MOL   H10446440   3.898   1.002   7.718  1.6119 -0.1984 -1.0094
  129MOL   H10546441   3.999   0.857   7.707  1.7662  0.9894 -1.6478
  129MOL   H10646442   4.096   1.142   7.777 -1.7037 -0.8554  0.8236
  129MOL   H10746443   4.102   1.055   7.622 -0.1025  1.1349  0.5619
  129MOL   H10846444   4.248   0.884   7.769  0.9663 -0.5549  3.6507
  129MOL   H10946445   4.320   1.045   7.755  0.3782 -1.7417 -1.2195
  129MOL   C11046446   4.352   1.029   0.151 -1.1940 -0.2169  0.2110
  129MOL   O11146447   4.466   1.031   0.103  0.5379  0.2050  0.0322
  129MOL   C11246448   4.330   1.024   0.303 -0.2095 -1.2479 -0.0598
  129MOL   C11346449   4.278   1.159   0.345  0.7407 -0.1231 -0.0608
  129MOL   C11446450   4.137   1.192   0.302 -0.5829  0.1025  0.2852
  129MOL   C11546451   4.068   1.305   0.377  0.0616  0.3551 -0.6355
  129MOL   C11646452   3.935   1.350   0.322  0.1032 -0.1481  0.3449
  129MOL   O11746453   3.950   1.392   0.185 -0.0555 -0.1049 -0.0762
  129MOL   H11846454   4.424   0.998   0.353  1.3935  0.6468 -1.9839
  129MOL   H11946455   4.265   0.939   0.325  0.2695 -1.7181 -0.4669
  129MOL   H12046456   4.348   1.240   0.322  0.8291  0.1259  1.0302
  129MOL   H12146457   4.269   1.161   0.454 -0.0477  1.0429 -0.1391
  129MOL   H12246458   4.069   1.108   0.319 -0.8051  0.0494 -0.8206
  129MOL   H12346459   4.134   1.195   0.193 -1.9461 -0.2344  0.2962
  129MOL   H12446460   4.132   1.392   0.396  0.0169  0.4854 -1.0637
  129MOL   H12546461   4.041   1.268   0.475 -1.5035  0.8026 -0.8908
  129MOL   H12646462   3.864   1.271   0.342 -1.2609  0.6344 -1.2963
  129MOL   H12746463   3.900   1.429   0.388 -0.8323  1.5520 -2.0837
  129MOL   C12846464   3.842   1.443   0.121 -0.0014  0.1210  0.1427
  129MOL   O12946465   3.732   1.452   0.175 -0.5281 -0.8565  0.0265
  129MOL   C13046466   3.858   1.484   7.821  0.1713  0.0967 -0.5003
  129MOL   C13146467   3.987   1.569   7.803  0.1470 -0.0753  0.6064
  129MOL   C13246468   3.960   1.710   0.018  0.2717  0.2161  0.7046
  129MOL   C13346469   4.058   1.805   7.801  0.2043  0.0324 -0.1046
  129MOL   C13446470   4.057   1.945   0.013  0.7318  0.4308 -0.0065
  129MOL   O13546471   4.161   2.019   7.807  0.1567  0.5579  0.5411
  129MOL   H13646472   3.762   1.525   7.789 -0.1480 -0.2142  0.0497
  129MOL   H13746473   3.872   1.392   7.763  0.4139 -0.2626  0.1251
  129MOL   H13846474   4.007   1.588   7.697 -1.8425  0.4085  0.2953
  129MOL   H13946475   4.072   1.515   7.844 -1.3842 -0.9497  2.7060
  129MOL   H14046476   3.956   1.710   0.127  1.0491  2.6540  0.7620
  129MOL   H14146477   3.860   1.744   7.834  0.0560  0.5746  1.8781
  129MOL   H14246478   4.045   1.803   7.693  0.1738 -1.0976 -0.0905
  129MOL   H14346479   4.152   1.758   7.829  0.0701  0.3848  0.9886
  129MOL   H14446480   3.971   2.008   7.835  0.0547 -0.6603 -0.4862
  129MOL   H14546481   4.061   1.932   0.121  0.3095 -3.7400 -0.4428
  129MOL   C14646482   4.150   2.147   7.759  0.1856 -0.0920 -0.0931
  129MOL   O14746483   4.046   2.209   7.766  0.1501  0.3047  0.5150
  129MOL   C14846484   4.279   2.196   7.699 -0.0936  0.1313 -0.2368
  129MOL   C14946485   4.295   2.347   7.708  0.0392  0.3199 -0.1517
  129MOL   C15046486   4.433   2.404   7.736 -0.1882  0.3291 -0.7789
  129MOL   C15146487   4.524   2.385   7.612  0.2363 -0.0078 -0.6313
  129MOL   C15246488   4.669   2.425   7.624  0.0447 -0.2120  0.7504
  129MOL   O15346489   4.728   2.334   7.708  0.0106  0.9002 -0.1208
  129MOL   H15446490   4.285   2.163   7.595  2.1403 -0.0865 -0.0673
  129MOL   H15546491   4.359   2.143   7.750 -0.7353 -0.1325  0.5153
  129MOL   H15646492   4.229   2.389   7.783 -0.5107 -1.5223  0.4136
  129MOL   H15746493   4.264   2.395   7.615  0.2115 -1.1184 -0.9701
  129MOL   H15846494   4.471   2.352   7.824 -1.8164  0.8087  0.2366
  129MOL   H15946495   4.405   2.507   7.760  0.7107  0.2181  0.8213
  129MOL   H16046496   4.489   2.448   7.530 -0.9748  0.4417  0.2096
  129MOL   H16146497   4.513   2.284   7.574  1.9653 -0.1046 -0.8766
  129MOL   H16246498   4.721   2.422   7.529 -0.9435 -2.2346  0.2602
  129MOL   H16346499   4.692   2.527   7.657 -0.1790 -0.1394  0.6863
  129MOL   C16446500   4.847   2.368   7.770 -0.4401  0.7557 -0.1715
  129MOL   O16546501   4.914   2.471   7.749  0.7203 -0.1373  0.3467
  129MOL   C16646502   4.895   2.250   0.018  0.5466 -0.1559 -0.1234
  129MOL   C16746503   4.787   2.179   0.102 -0.1264  0.1863  0.4131
  129MOL   C16846504   4.851   2.128   0.236  0.0576  0.2677  0.1419
  129MOL   C16946505   4.943   2.005   0.207  0.0518 -0.6673  0.1512
  129MOL   C17046506   5.009   1.939   0.332  0.3106  0.1722  0.1530
  129MOL   O17146507   4.911   1.875   0.406  0.4666 -0.2234  0.3396
  129MOL   H17246508   4.972   2.291   0.083  0.1547 -0.9198  0.8186
  129MOL   H17346509   4.944   2.187   7.788  0.2840  1.1172 -1.3980
  129MOL   H17446510   4.753   2.099   0.036 -0.4924  0.1771  0.6133
  129MOL   H17546511   4.694   2.234   0.111 -0.3920 -0.0315 -0.7960
  129MOL   H17646512   4.773   2.092   0.304 -0.9141 -0.6724 -1.4276
  129MOL   H17746513   4.908   2.207   0.283 -1.3470 -0.5223  3.3438
  129MOL   H17846514   5.023   2.047   0.146  0.2844 -0.5021  0.5605
  129MOL   H17946515   4.894   1.935   0.139  0.8438 -2.4678  1.3856
  129MOL   H18046516   5.079   1.865   0.294 -0.0256  1.0406 -2.2786
  129MOL   H18146517   5.062   2.020   0.382 -1.7753  1.6603  0.0491
  129MOL   C18246518   4.942   1.825   0.521 -0.3146 -0.4997 -0.5440
  129MOL   O18346519   5.045   1.852   0.577 -0.3452  0.1646  0.1668
  129MOL   C18446520   4.837   1.736   0.582  0.1774 -0.2674 -0.5850
  129MOL   C18546521   4.874   1.679   0.723  0.4272 -0.3182 -0.1593
  129MOL   C18646522   4.876   1.786   0.837 -0.3614  0.6704 -0.1994
  129MOL   C18746523   4.936   1.754   0.971 -0.1829  0.8508  0.0837
  129MOL   C18846524   4.844   1.653   1.055  0.1595 -0.3651 -0.1481
  129MOL   O18946525   4.721   1.711   1.093  0.0876  0.6056  0.4505
  129MOL   H19046526   4.830   1.662   0.502 -2.4738  2.0186 -2.5847
  129MOL   H19146527   4.741   1.787   0.592  1.5146  1.9189  1.5322
  129MOL   H19246528   4.975   1.638   0.724  0.2704 -0.6937  0.1207
  129MOL   H19346529   4.812   1.595   0.752  1.5503  0.1311  3.8611
  129MOL   H19446530   4.775   1.821   0.856 -0.5968 -0.1136 -0.0057
  129MOL   H19546531   4.926   1.870   0.787 -0.3363  1.0708  0.4889
  129MOL   H19646532   4.950   1.837   1.040 -0.0874  0.4725  0.5215
  129MOL   H19746533   5.030   1.705   0.946 -0.3167  1.0228 -0.7806
  129MOL   H19846534   4.823   1.566   0.992  2.5445 -0.5647 -0.7246
  129MOL   H19946535   4.896   1.623   1.146  1.3416 -0.1934 -0.7564
  129MOL   C20046536   4.635   1.630   1.153 -0.1295  0.8293 -0.2996
  129MOL   O20146537   4.641   1.505   1.165  0.3697 -0.3149  0.4054
  129MOL   C20246538   4.516   1.701   1.212 -0.1760 -0.3022 -0.5278
  129MOL   C20346539   4.394   1.611   1.242 -0.4408  0.9452 -0.5567
  129MOL   C20446540   4.384   1.539   1.374 -0.0632 -0.0078 -0.2283
  129MOL   C20546541   4.283   1.428   1.364 -0.4019 -0.1072  0.2109
  129MOL   C20646542   4.199   1.413   1.497 -0.1414  0.7651 -0.2575
  129MOL   O20746543   4.112   1.520   1.527  0.0563  0.3199 -0.3141
  129MOL   H20846544   4.494   1.786   1.148  0.8016 -0.0796 -0.5695
  129MOL   H20946545   4.550   1.761   1.297 -0.2943  1.7912 -1.9234
  129MOL   H21046546   4.370   1.548   1.156 -0.1939  1.2247 -0.8336
  129MOL   H21146547   4.305   1.674   1.241 -0.4752  0.9126  0.4708
  129MOL   H21246548   4.353   1.609   1.452 -0.3283 -0.8290  0.4152
  129MOL   H21346549   4.475   1.495   1.413 -0.4793  0.5089  1.3873
  129MOL   H21446550   4.332   1.331   1.354 -0.7785 -0.3289  0.5178
  129MOL   H21546551   4.222   1.433   1.274  1.2288 -1.6895 -1.0276
  129MOL   H21646552   4.125   1.334   1.478 -0.8230  1.6635 -1.3442
  129MOL   H21746553   4.277   1.387   1.569  0.2871  1.3737 -0.5003
  129MOL   C21846554   4.081   1.534   1.659 -0.3021 -0.0250 -0.3224
  129MOL   O21946555   4.127   1.473   1.753  0.3226 -0.1918  0.2922
  129MOL   C22046556   3.998   1.659   1.688 -0.1407  0.5995 -0.4136
  129MOL   C22146557   4.084   1.786   1.688 -0.3468 -0.3178 -0.2114
  129MOL   C22246558   4.008   1.919   1.717  0.6754  0.8271  0.1902
  129MOL   C22346559   3.914   1.970   1.608 -0.1961  1.1439 -0.1585
  129MOL   C22446560   3.826   2.077   1.665  0.5982 -0.3734  0.4016
  129MOL   O22546561   3.705   2.098   1.588 -0.0652 -0.2974  0.6850
  129MOL   H22646562   3.958   1.632   1.785  1.3626  0.3460  0.1530
  129MOL   H22746563   3.910   1.659   1.624  0.6495 -2.1348 -1.6097
  129MOL   H22846564   4.139   1.787   1.593 -0.2302  1.6297 -0.1367
  129MOL   H22946565   4.167   1.772   1.758 -0.1490 -2.5367 -0.8518
  129MOL   H23046566   4.079   1.995   1.748 -0.3629  1.9367 -0.0980
  129MOL   H23146567   3.943   1.897   1.801  0.3892 -1.4479 -0.5814
  129MOL   H23246568   3.858   1.882   1.578  1.6991 -0.4040  0.7418
  129MOL   H23346569   3.962   2.013   1.521  0.0303  0.7037 -0.2504
  129MOL   H23446570   3.801   2.072   1.771 -2.7947 -0.6440 -0.3567
  129MOL   H23546571   3.892   2.164   1.656 -0.4105  0.2304 -1.3850
  129MOL   C23646572   3.575   2.063   1.630  0.4049  0.0823  1.1383
  129MOL   O23746573   3.554   2.002   1.732  0.0057  0.0342 -0.3078
  129MOL   C23846574   3.474   2.137   1.545 -0.5032  0.5246 -0.3989
  129MOL   C23946575   3.380   2.026   1.493 -0.5351  0.3395  1.4470
  129MOL   C24046576   3.291   2.058   1.371  0.3246  0.4990  0.0326
  129MOL   C24146577   3.180   2.161   1.389  0.4023 -0.3046 -0.4711
  129MOL   C24246578   3.047   2.112   1.447 -0.6505 -1.0959  0.1007
  129MOL   O24346579   2.980   2.216   1.512  0.1922  1.1193  0.7439
  129MOL   H24446580   3.527   2.180   1.459  1.7021 -1.1296  0.0913
  129MOL   H24546581   3.423   2.222   1.589  0.0177  1.7713 -2.1322
  129MOL   H24646582   3.321   1.986   1.575 -0.0740 -0.2760  1.4838
  129MOL   H24746583   3.445   1.944   1.459 -2.2747 -1.1955  1.7593
  129MOL   H24846584   3.239   1.969   1.338  1.2646 -0.6055  1.4890
  129MOL   H24946585   3.356   2.101   1.295  1.7402  1.2206  1.6233
  129MOL   H25046586   3.147   2.220   1.303 -0.8944  1.7698  1.4090
  129MOL   H25146587   3.224   2.223   1.467 -1.0128 -1.2016  1.0739
  129MOL   H25246588   2.988   2.065   1.368 -0.3337  0.5141 -1.1340
  129MOL   H25346589   3.077   2.024   1.504  1.8165  0.0280  0.6210
  129MOL   C25446590   3.010   2.238   1.639  0.3662 -0.2058 -0.5743
  129MOL   O25546591   3.078   2.171   1.709 -0.6301 -0.3561 -0.3363
  129MOL   C25646592   2.952   2.366   1.687 -0.8859 -0.1716  0.2518
  129MOL   C25746593   3.023   2.496   1.635  0.3250 -0.5279  0.0166
  129MOL   C25846594   3.149   2.515   1.728 -0.2086  0.9441 -0.4619
  129MOL   C25946595   3.207   2.653   1.706  1.2076  0.6506 -0.2674
  129MOL   C26046596   3.344   2.697   1.768  0.0421  0.0216  0.7935
  129MOL   O26146597   3.454   2.662   1.692 -0.2657  0.5080  0.1347
  129MOL   H26246598   2.932   2.370   1.794  2.4371  3.0040  0.8320
  129MOL   H26346599   2.851   2.367   1.648 -1.4384 -0.5108  1.6275
  129MOL   H26446600   2.963   2.585   1.652  0.2918 -0.7285  0.9977
  129MOL   H26546601   3.060   2.498   1.533  2.5050 -0.0390  0.8094
  129MOL   H26646602   3.230   2.444   1.715 -0.5377  0.1865  1.4161
  129MOL   H26746603   3.136   2.488   1.833  1.2450 -2.4857 -1.0993
  129MOL   H26846604   3.137   2.725   1.749  1.7711  0.1028  1.6107
  129MOL   H26946605   3.216   2.678   1.600 -0.3921  0.8088 -0.3800
  129MOL   H27046606   3.351   2.805   1.782 -0.2108  0.0621  0.6043
  129MOL   H27146607   3.364   2.646   1.863  2.6051 -1.1971 -0.3583
  129MOL   C27246608   3.502   2.723   1.588  0.5341  1.0085 -0.1613
  129MOL   O27346609   3.454   2.821   1.529 -0.1415 -0.5114  0.3735
  129MOL   C27446610   3.614   2.640   1.516  0.2646  0.0229 -0.0739
  129MOL   C27546611   3.686   2.715   1.409  0.2490 -0.1742  0.1161
  129MOL   C27646612   3.635   2.718   1.269 -0.6096  0.0711  0.0835
  129MOL   C27746613   3.735   2.783   1.164 -0.1757 -0.5344  0.1458
  129MOL   C27846614   3.669   2.798   1.022  0.3689 -0.5234  0.2181
  129MOL   O27946615   3.680   2.692   0.937  0.2655  0.7254  0.2238
  129MOL   H28046616   3.576   2.544   1.481  0.4831 -0.5943  1.3292
  129MOL   H28146617   3.681   2.618   1.599 -0.8017 -1.5513  0.4074
  129MOL   H28246618   3.777   2.657   1.390  1.0257  1.0115  0.0980
  129MOL   H28346619   3.711   2.816   1.443 -0.2883  0.5339 -1.5274
  129MOL   H28446620   3.540   2.771   1.274 -0.0707  1.1085 -0.5099
  129MOL   H28546621   3.614   2.619   1.231 -1.5029  0.4149 -0.3326
  129MOL   H28646622   3.824   2.720   1.160  1.0305  1.1586 -0.0506
  129MOL   H28746623   3.770   2.878   1.202 -1.7824  0.2421 -0.2723
  129MOL   H28846624   3.564   2.822   1.034  0.0930 -1.7364  0.3214
  129MOL   H28946625   3.716   2.880   0.967  0.3582 -0.9588 -0.4490
  129MOL   C29046626   3.701   2.703   0.808  0.5381 -0.3325  0.0159
  129MOL   O29146627   3.692   2.812   0.748  0.4728 -0.6700 -0.2096
  129MOL   C29246628   3.716   2.565   0.732  0.3659 -1.0118 -0.3975
  129MOL   C29346629   3.833   2.468   0.763  0.4134  0.5643  0.0726
  129MOL   C29446630   3.822   2.322   0.726  0.6614 -0.3168 -0.1792
  129MOL   C29546631   3.945   2.236   0.743  0.4008 -0.4701 -0.2059
  129MOL   C29646632   4.056   2.244   0.639  0.2297 -0.4949  0.2520
  129MOL   O29746633   4.013   2.179   0.517 -0.2956  0.0153 -0.3644
  129MOL   H29846634   3.712   2.599   0.629  0.6537  0.2206 -0.0013
  129MOL   H29946635   3.629   2.500   0.744 -2.7850  2.6640 -2.2781
  129MOL   H30046636   3.847   2.469   0.871 -2.7412 -2.4972  0.5892
  129MOL   H30146637   3.918   2.521   0.720  1.8298 -2.2399 -0.6556
  129MOL   H30246638   3.792   2.323   0.621 -2.4900  1.5114  0.6989
  129MOL   H30346639   3.733   2.280   0.771  0.7736 -3.0123 -2.3073
  129MOL   H30446640   3.914   2.132   0.753 -0.4466 -0.4041 -1.9203
  129MOL   H30546641   3.987   2.275   0.836  3.8650  0.3271 -1.9968
  129MOL   H30646642   4.081   2.348   0.621 -2.2485 -0.2310 -1.8514
  129MOL   H30746643   4.153   2.213   0.678  0.2319 -1.9979 -0.9168
  129MOL   C30846644   4.043   2.052   0.494 -0.3182 -0.1333 -0.1356
  129MOL   O30946645   4.115   1.976   0.559  0.2906 -0.2587 -0.0285
  129MOL   C31046646   3.977   2.004   0.367  0.0294  0.6920  0.4099
  129MOL   C31146647   3.824   2.037   0.350 -0.4430 -0.5287  0.0415
  129MOL   C31246648   3.760   1.951   0.241  0.0267 -0.2679  0.1996
  129MOL   C31346649   3.635   2.015   0.183 -0.0565 -0.4955  0.2444
  129MOL   C31446650   3.560   1.951   0.070  1.1542  0.0147  0.1617
  129MOL   O31546651   3.523   1.817   0.103  0.6912  0.0475 -0.2232
  129MOL   H31646652   4.002   1.898   0.364 -1.9660  0.2090 -0.0221
  129MOL   H31746653   4.035   2.044   0.284  0.3273 -0.8755 -0.1472
  129MOL   H31846654   3.819   2.136   0.306 -1.0371 -1.0427 -1.0619
  129MOL   H31946655   3.771   2.058   0.443  0.5334 -0.7632  0.6623
  129MOL   H32046656   3.742   1.853   0.285 -0.3471 -0.2982 -0.0244
  129MOL   H32146657   3.832   1.941   0.161  0.1950  0.2080  0.2893
  129MOL   H32246658   3.644   2.121   0.158 -3.1134 -0.3552 -0.5454
  129MOL   H32346659   3.570   2.009   0.271 -0.2297  0.1031  0.1609
  129MOL   H32446660   3.466   2.002   0.050  1.4217  1.2657  1.9782
  129MOL   H32546661   3.627   1.945   7.828 -1.2131 -0.6561 -1.6961
  129MOL   C32646662   3.520   1.719   0.007  0.4320 -0.1310  0.5498
  129MOL   O32746663   3.545   1.736   7.730  0.1446 -0.2757  0.0695
  129MOL   C32846664   3.454   1.589   0.056 -0.1951 -0.2388  0.9175
  129MOL   C32946665   3.314   1.611   0.115  0.4431 -0.1102 -0.0850
  129MOL   C33046666   3.250   1.478   0.172 -0.8979  0.4066  0.3073
  129MOL   C33146667   3.121   1.517   0.242  0.2275  0.2966  0.8223
  129MOL   C33246668   3.012   1.569   0.146  0.1744 -1.1208  0.4208
  129MOL   O33346669   2.959   1.471   0.060  0.5842 -0.4943 -0.5909
  129MOL   H33446670   3.524   1.549   0.129  0.4697 -1.1991 -0.2247
  129MOL   H33546671   3.441   1.513   7.823  0.4236 -1.7429  2.2600
  129MOL   H33646672   3.248   1.643   0.035  0.3879  3.6362  1.3761
  129MOL   H33746673   3.317   1.698   0.181 -0.4649  0.4680 -0.8013
  129MOL   H33846674   3.304   1.417   0.244 -0.9040  2.1605  1.8568
  129MOL   H33946675   3.224   1.417   0.086  0.1791 -1.4026  1.2508
  129MOL   H34046676   3.145   1.587   0.321  0.0938 -0.0833  1.2004
  129MOL   H34146677   3.074   1.434   0.296 -0.5753  0.7641  0.8600
  129MOL   H34246678   2.934   1.625   0.197  0.9643  1.7579 -1.4462
  129MOL   H34346679   3.053   1.649   0.086  0.3628  0.2437  2.3241
  129MOL   C34446680   2.848   1.417   0.096  0.0317  0.4337 -0.7043
  129MOL   O34546681   2.791   1.438   0.204 -0.2832  0.8710 -0.3117
  129MOL   C34646682   2.775   1.348   7.827 -0.5955 -0.2573  0.0317
  129MOL   C34746683   2.622   1.333   0.003  0.4598  0.4824  0.0775
  129MOL   C34846684   2.586   1.205   0.087 -0.0819 -0.5296 -0.1339
  129MOL   C34946685   2.438   1.178   0.109 -0.0885 -0.5959  0.4411
  129MOL   C35046686   2.423   1.050   0.197  1.2170 -0.3050 -0.0716
  129MOL   O35146687   2.282   1.028   0.210  0.7854 -0.0394 -0.3677
  129MOL   H35246688   2.838   1.262   7.804 -2.6911 -1.5688 -0.9254
  129MOL   H35346689   2.804   1.400   7.736  0.7466  0.1586  0.6796
  129MOL   H35446690   2.583   1.321   7.747  3.0537  2.1346 -1.1895
  129MOL   H35546691   2.585   1.423   0.051 -1.8080 -1.3085  1.7817
  129MOL   H35646692   2.628   1.230   0.185  1.2114  0.3698 -0.9111
  129MOL   H35746693   2.638   1.115   0.054  1.2535  1.0263 -2.3855
  129MOL   H35846694   2.401   1.152   0.010  0.4257 -1.3470  0.4455
  129MOL   H35946695   2.393   1.271   0.145 -1.6872 -0.6516 -1.3643
  129MOL   H36046696   2.468   0.964   0.148  0.5991  0.8594 -2.7422
  129MOL   H36146697   2.470   1.065   0.295  2.3045 -0.1727 -0.6016
  129MOL   H36246698   2.244   1.103   0.252 -0.1036 -0.3384 -0.6090
  130MOL     C146699   5.820   3.647   3.926 -0.1606 -0.2754 -0.7699
  130MOL     O246700   5.706   3.632   3.960  0.3382 -0.2996 -0.0322
  130MOL     C346701   5.934   3.694   4.012  0.3535  0.1996 -0.0270
  130MOL     C446702   5.928   3.612   4.143  0.3552 -0.0820  0.1296
  130MOL     C546703   6.016   3.668   4.258  0.2209 -0.2646  0.4948
  130MOL     C646704   6.025   3.576   4.380  0.2731  0.2344  0.3593
  130MOL     C746705   6.092   3.641   4.504 -0.0377 -0.2394  0.4853
  130MOL     O846706   6.073   3.588   4.630  0.1350  0.1995 -0.7526
  130MOL     H946707   5.921   3.799   4.037 -1.7702 -0.5062  1.9938
  130MOL    H1046708   6.023   3.682   3.951 -0.4953  1.8752 -1.6403
  130MOL    H1146709   5.967   3.513   4.118  0.2830 -0.9972  3.3576
  130MOL    H1246710   5.828   3.588   4.178  1.0673 -3.0865  0.2173
  130MOL    H1346711   5.972   3.764   4.286 -2.5984 -1.1001 -0.8775
  130MOL    H1446712   6.115   3.680   4.216 -0.1024 -1.0229 -0.5131
  130MOL    H1546713   6.081   3.486   4.354 -0.5564  0.0020 -0.6317
  130MOL    H1646714   5.925   3.538   4.400 -0.1976  0.5775 -1.3168
  130MOL    H1746715   6.200   3.650   4.490  0.0535 -0.9503  0.6935
  130MOL    H1846716   6.063   3.745   4.518  0.1087 -0.4151  2.3052
  130MOL    H1946717   5.847   3.629   3.821 -1.2191 -1.6480 -0.8318
  130MOL    C2046718   6.153   3.487   4.678  0.1875  0.2276 -0.5710
  130MOL    O2146719   6.228   3.420   4.608 -0.1569  1.2679 -0.0162
  130MOL    C2246720   6.151   3.474   4.830 -0.4944  1.0258  0.4850
  130MOL    C2346721   6.290   3.533   4.886 -0.1530  0.2919  0.2092
  130MOL    C2446722   6.272   3.553   5.034 -0.2454 -0.5335  0.1676
  130MOL    C2546723   6.405   3.571   5.122 -0.3613 -1.4013  0.1107
  130MOL    C2646724   6.392   3.557   5.271  0.3600 -0.4073  0.2099
  130MOL    O2746725   6.377   3.421   5.305  0.7895  0.1049  0.0311
  130MOL    H2846726   6.128   3.369   4.851 -1.2501  0.9435 -0.7094
  130MOL    H2946727   6.065   3.529   4.869 -2.2579  0.5317 -2.5025
  130MOL    H3046728   6.317   3.630   4.843 -1.4620  0.0739 -1.1547
  130MOL    H3146729   6.370   3.465   4.858  0.6467  0.6986  1.4861
  130MOL    H3246730   6.213   3.470   5.073 -0.2829  0.3866  2.1595
  130MOL    H3346731   6.213   3.642   5.055  0.8786  0.4674 -0.8362
  130MOL    H3446732   6.452   3.666   5.099 -0.1228 -1.9312 -1.7234
  130MOL    H3546733   6.475   3.494   5.089  0.7334 -0.8314  1.0982
  130MOL    H3646734   6.473   3.595   5.332  1.5272 -0.7176 -1.1162
  130MOL    H3746735   6.302   3.610   5.301  1.6265  1.2997  1.0764
  130MOL    C3846736   6.373   3.391   5.433  0.0481  0.5204  0.1921
  130MOL    O3946737   6.400   3.466   5.522  0.2744  0.2415  0.1356
  130MOL    C4046738   6.327   3.249   5.455 -0.6601 -0.2573 -0.0569
  130MOL    C4146739   6.442   3.160   5.426 -0.5424 -0.0423  0.5850
  130MOL    C4246740   6.558   3.183   5.530  0.2559 -0.0963 -0.1621
  130MOL    C4346741   6.514   3.136   5.673 -0.1021  0.4297  0.6275
  130MOL    C4446742   6.632   3.131   5.771 -0.0281 -0.0231 -0.9490
  130MOL    O4546743   6.696   3.256   5.786 -0.1168  0.6377  0.5930
  130MOL    H4646744   6.239   3.228   5.394 -1.1136 -1.7511  1.0770
  130MOL    H4746745   6.300   3.229   5.559 -0.2791 -0.1953  0.0532
  130MOL    H4846746   6.497   3.174   5.333  0.4818  1.2617  1.3646
  130MOL    H4946747   6.417   3.054   5.418 -1.8842  0.3774 -1.0487
  130MOL    H5046748   6.605   3.278   5.506 -0.7580  0.1272 -1.3552
  130MOL    H5146749   6.628   3.104   5.502  2.6945  1.0711  2.4220
  130MOL    H5246750   6.476   3.033   5.669  3.0163 -0.7219 -0.5277
  130MOL    H5346751   6.430   3.189   5.718 -0.0697  0.3749  0.7498
  130MOL    H5446752   6.586   3.105   5.865  0.5688  1.6647 -0.1630
  130MOL    H5546753   6.703   3.056   5.737  0.2632 -1.0846  1.9364
  130MOL    C5646754   6.642   3.343   5.859 -0.6252 -0.5261  0.1181
  130MOL    O5746755   6.544   3.330   5.932  0.2197 -0.3503 -0.0540
  130MOL    C5846756   6.718   3.472   5.848  0.4783  0.1006  0.3143
  130MOL    C5946757   6.852   3.488   5.928 -0.3536 -0.5364 -0.1682
  130MOL    C6046758   6.862   3.407   6.064  0.3854  0.1612  0.3968
  130MOL    C6146759   7.001   3.418   6.129  0.1676  0.0883 -0.0263
  130MOL    C6246760   7.007   3.326   6.250  0.0477  0.1162 -0.5262
  130MOL    O6346761   7.131   3.341   6.316 -0.0541 -0.5964 -0.0216
  130MOL    H6446762   6.650   3.551   5.882 -1.0058 -1.4622  1.0876
  130MOL    H6546763   6.737   3.494   5.743 -1.8981  0.6384 -0.0379
  130MOL    H6646764   6.856   3.595   5.950 -0.2519 -1.1680  3.1347
  130MOL    H6746765   6.925   3.477   5.848  0.7537  1.4890  0.5439
  130MOL    H6846766   6.844   3.306   6.026 -2.2390  0.7127  0.0994
  130MOL    H6946767   6.792   3.431   6.144 -0.5641 -0.6607 -0.1819
  130MOL    H7046768   7.028   3.521   6.150 -0.6228  0.6480 -1.6886
  130MOL    H7146769   7.074   3.372   6.062 -0.8968 -0.3967 -0.8642
  130MOL    H7246770   6.922   3.337   6.318  1.4801 -1.1035  1.5194
  130MOL    H7346771   6.994   3.227   6.206 -1.3723 -0.0526  0.2311
  130MOL    C7446772   7.140   3.358   6.455 -0.0751  0.2924  0.4115
  130MOL    O7546773   7.038   3.339   6.522 -0.0447  0.1161 -0.0925
  130MOL    C7646774   7.267   3.420   6.497 -0.6716  0.0699 -0.0158
  130MOL    C7746775   7.305   3.553   6.429 -0.1017  0.1923 -0.0315
  130MOL    C7846776   7.200   3.661   6.468 -0.0201  0.2708  0.0478
  130MOL    C7946777   7.244   3.806   6.439 -1.0375 -0.1237 -0.6523
  130MOL    C8046778   7.127   3.896   6.449  0.4687 -0.5068 -0.0019
  130MOL    O8146779   7.071   3.888   6.583  0.4588 -0.3689  0.2385
  130MOL    H8246780   7.335   3.336   6.483  0.3689  0.5001  2.3169
  130MOL    H8346781   7.255   3.444   6.602 -0.7869 -1.1661  0.2503
  130MOL    H8446782   7.316   3.551   6.321  0.3576 -1.8601  0.0328
  130MOL    H8546783   7.403   3.587   6.460  0.5708 -0.7752 -1.0675
  130MOL    H8646784   7.181   3.645   6.574  0.7666  1.1960  0.3257
  130MOL    H8746785   7.108   3.637   6.414  0.7619 -0.0154 -1.1782
  130MOL    H8846786   7.303   3.818   6.348  0.9668  0.2225  0.6507
  130MOL    H8946787   7.323   3.815   6.514  0.4181  3.0257 -2.4606
  130MOL    H9046788   7.157   3.997   6.420  0.0379 -0.0362  1.1435
  130MOL    H9146789   7.052   3.853   6.383  1.1874  1.1529 -1.9361
  130MOL    C9246790   7.006   3.994   6.623  0.1410 -0.6490  0.2030
  130MOL    O9346791   6.988   4.094   6.560 -0.4345 -0.5219 -0.4566
  130MOL    C9446792   6.930   3.972   6.757  0.1724 -0.0165  0.1821
  130MOL    C9546793   6.983   4.052   6.878  0.3080 -0.8450 -0.0024
  130MOL    C9646794   6.870   4.043   6.979 -0.5623  0.1155 -0.4978
  130MOL    C9746795   6.915   4.086   7.125  0.8088 -0.0415  0.3518
  130MOL    C9846796   6.951   4.236   7.122  0.3460  0.0480 -0.1010
  130MOL    O9946797   6.986   4.287   7.250  1.1122 -0.3728  0.5574
  130MOL   H10046798   6.928   3.867   6.785  0.8451 -0.1734 -0.3522
  130MOL   H10146799   6.830   4.013   6.744 -0.0207  0.2428  2.3408
  130MOL   H10246800   6.996   4.157   6.849 -0.5100 -0.4185  1.1221
  130MOL   H10346801   7.075   4.001   6.903  0.8403  0.2841  0.3916
  130MOL   H10446802   6.847   3.936   6.981  2.1456 -0.5019 -0.6189
  130MOL   H10546803   6.771   4.084   6.958 -0.6417 -0.7414 -1.8149
  130MOL   H10646804   7.001   4.032   7.164  0.5405  0.0654  1.0888
  130MOL   H10746805   6.830   4.057   7.186 -1.1930  0.0453 -2.2891
  130MOL   H10846806   7.045   4.244   7.067  1.5058  0.3481  1.8839
  130MOL   H10946807   6.877   4.287   7.059  1.0072  1.4568  0.2397
  130MOL   C11046808   7.080   4.392   7.263  0.2393 -0.4292 -0.0236
  130MOL   O11146809   7.121   4.467   7.174  0.3387 -0.1985 -0.9915
  130MOL   C11246810   7.124   4.403   7.405 -0.1306 -0.4099 -0.0714
  130MOL   C11346811   7.053   4.509   7.499  0.8635  0.5134 -0.1535
  130MOL   C11446812   7.022   4.645   7.434 -0.6258 -0.2024 -0.0669
  130MOL   C11546813   6.980   4.746   7.537 -0.0824 -0.7603  0.7601
  130MOL   C11646814   7.012   4.889   7.488 -0.2181  0.1366  0.3619
  130MOL   O11746815   6.942   4.925   7.368 -0.1148  0.8184 -0.7681
  130MOL   H11846816   7.227   4.439   7.398  1.0924 -3.3461  2.0503
  130MOL   H11946817   7.129   4.308   7.458 -0.3103 -0.0613  0.5707
  130MOL   H12046818   7.113   4.522   7.588 -0.7911  0.0738  1.0560
  130MOL   H12146819   6.954   4.473   7.528  0.1557  0.4286 -2.5035
  130MOL   H12246820   6.951   4.634   7.351  0.1912  0.0704 -0.8083
  130MOL   H12346821   7.112   4.686   7.389 -0.4762 -1.9944 -1.4440
  130MOL   H12446822   7.048   4.731   7.621 -0.9677  0.2250  1.6672
  130MOL   H12546823   6.875   4.731   7.562 -0.7321  0.9137 -0.8800
  130MOL   H12646824   6.990   4.954   7.572  2.6523  0.6073  0.8280
  130MOL   H12746825   7.117   4.905   7.464 -0.5453  2.2631  0.2933
  130MOL   C12846826   6.811   4.952   7.379  0.2471  0.4790  0.5534
  130MOL   O12946827   6.745   4.961   7.480  0.4127  0.4500 -0.3102
  130MOL   C13046828   6.740   4.972   7.243  0.8950 -0.0486 -0.2635
  130MOL   C13146829   6.767   4.860   7.142 -0.0882  0.1122 -0.6052
  130MOL   C13246830   6.904   4.864   7.063 -0.4500  1.0130 -0.2363
  130MOL   C13346831   6.963   4.736   6.995  0.8797  0.5152  0.0908
  130MOL   C13446832   6.853   4.667   6.911  0.6785 -0.2874  0.2142
  130MOL   O13546833   6.928   4.590   6.830 -0.5046  0.4190  0.4709
  130MOL   H13646834   6.783   5.067   7.212  0.5927 -0.1032 -0.8599
  130MOL   H13746835   6.637   4.973   7.280  1.6134 -1.0927  1.8947
  130MOL   H13846836   6.685   4.859   7.071 -0.3141  1.3542 -0.3714
  130MOL   H13946837   6.767   4.765   7.195  0.2706  0.5104  0.1236
  130MOL   H14046838   6.983   4.904   7.126 -0.8258  1.0782  0.1987
  130MOL   H14146839   6.893   4.935   6.982 -0.4872  1.0915 -0.1624
  130MOL   H14246840   7.020   4.670   7.060  1.2914  0.8391  0.0639
  130MOL   H14346841   7.040   4.779   6.930  1.0488 -1.4140 -1.0087
  130MOL   H14446842   6.792   4.605   6.978  0.6568 -1.4179 -0.8420
  130MOL   H14546843   6.796   4.748   6.864 -0.1136  0.0757  1.7431
  130MOL   C14646844   6.895   4.459   6.804 -0.4433  0.2147  0.7154
  130MOL   O14746845   6.811   4.393   6.858 -0.6331  0.1295  0.0353
  130MOL   C14846846   6.988   4.393   6.695  0.2255 -0.0165 -0.2316
  130MOL   C14946847   7.138   4.375   6.736 -0.2943  0.1522  0.0999
  130MOL   C15046848   7.228   4.495   6.689 -0.4257  0.0283  0.0879
  130MOL   C15146849   7.282   4.577   6.808 -0.0330  0.0751 -0.0598
  130MOL   C15246850   7.354   4.700   6.756 -0.3433 -0.3418 -0.4797
  130MOL   O15346851   7.399   4.780   6.868 -0.1896  0.1763  0.4138
  130MOL   H15446852   6.972   4.441   6.598 -0.6759 -0.2621 -0.2091
  130MOL   H15546853   6.943   4.297   6.670 -0.2503  0.1518 -0.0154
  130MOL   H15646854   7.184   4.291   6.683 -2.3394 -0.5756 -0.5518
  130MOL   H15746855   7.146   4.351   6.842  0.2522 -1.0669 -0.2116
  130MOL   H15846856   7.176   4.555   6.615 -2.6385 -0.0570  1.5359
  130MOL   H15946857   7.314   4.456   6.635 -0.3953  0.1530  0.0469
  130MOL   H16046858   7.342   4.512   6.871 -1.8791  0.2164  1.9154
  130MOL   H16146859   7.201   4.611   6.872  0.1746 -0.3397  0.4249
  130MOL   H16246860   7.437   4.661   6.698 -0.2743 -0.4483 -0.3095
  130MOL   H16346861   7.301   4.752   6.677 -1.0138 -1.6572 -0.9096
  130MOL   C16446862   7.523   4.832   6.853  0.1170  0.6060 -0.0873
  130MOL   O16546863   7.598   4.820   6.755  0.0751 -0.1000  0.4098
  130MOL   C16646864   7.573   4.898   6.983 -0.0640 -0.3520  0.1498
  130MOL   C16746865   7.722   4.947   6.968 -0.8782  0.0244  0.1152
  130MOL   C16846866   7.779   4.999   7.100 -0.1606 -0.0758  0.1635
  130MOL   C16946867   0.079   5.033   7.091  0.0417 -0.0402 -0.1657
  130MOL   C17046868   0.152   4.995   7.217 -0.2402  0.3556  0.0189
  130MOL   O17146869   0.111   5.071   7.327  0.2136  0.5325  0.0326
  130MOL   H17246870   7.560   4.845   7.077  1.6719  0.5933  0.9415
  130MOL   H17346871   7.512   4.987   6.997  0.9588  0.0426  2.2523
  130MOL   H17446872   7.733   5.038   6.908  0.9550  0.6551  1.3579
  130MOL   H17546873   7.783   4.871   6.919 -0.3520  0.2415  0.4210
  130MOL   H17646874   7.769   4.918   7.173 -0.0696 -0.5713 -0.3636
  130MOL   H17746875   7.725   5.081   7.148  0.2367  1.4599 -1.9430
  130MOL   H17846876   0.078   5.141   7.071 -0.3011 -0.0334 -0.0977
  130MOL   H17946877   0.133   4.993   7.005 -0.3066 -0.9038  0.0203
  130MOL   H18046878   0.126   4.893   7.244 -1.2102  0.2731 -1.1705
  130MOL   H18146879   0.259   4.981   7.200 -0.5418 -2.0263 -0.0134
  130MOL   C18246880   0.191   5.150   7.399  0.1155  0.1470  0.5793
  130MOL   O18346881   0.297   5.191   7.359 -0.2225 -0.2522  0.3268
  130MOL   C18446882   0.141   5.162   7.545  0.2225 -0.6194 -0.9914
  130MOL   C18546883   0.169   5.048   7.643  0.1912  0.6680 -0.6150
  130MOL   C18646884   0.156   4.900   7.594 -0.4637 -0.1367 -0.0189
  130MOL   C18746885   0.170   4.799   7.711  0.3837  0.1267  0.0588
  130MOL   C18846886   0.185   4.655   7.662  0.3258  0.3709 -0.5232
  130MOL   O18946887   0.216   4.550   7.755 -0.2582  0.4051  1.0691
  130MOL   H19046888   0.035   5.189   7.548  0.2021 -0.6490 -1.4196
  130MOL   H19146889   0.194   5.247   7.589 -1.8106  0.1248  0.1273
  130MOL   H19246890   0.124   5.049   7.743  1.3975 -0.4617 -0.0418
  130MOL   H19346891   0.277   5.052   7.660  0.1064 -0.2139  0.1489
  130MOL   H19446892   0.236   4.893   7.521  1.0407  0.3309  1.5518
  130MOL   H19546893   0.057   4.885   7.550 -1.4968 -0.9065  2.4351
  130MOL   H19646894   0.093   4.814   7.786  0.1304 -0.0507 -0.1645
  130MOL   H19746895   0.265   4.823   7.759 -0.1172 -0.1592  1.2038
  130MOL   H19846896   0.102   4.623   7.599 -1.0032  1.1821  0.8057
  130MOL   H19946897   0.275   4.654   7.599  0.6852 -1.8151 -0.0385
  130MOL   C20046898   0.180   4.435   7.735  1.1261 -0.0132  0.2685
  130MOL   O20146899   0.112   4.398   7.640  0.8607 -0.3280  0.5772
  130MOL   C20246900   0.219   4.342   0.008 -0.3226  0.0851 -0.1530
  130MOL   C20346901   0.288   4.210   7.820 -0.4926  0.5238 -0.1278
  130MOL   C20446902   0.430   4.214   7.775 -0.9092 -0.0841  0.4656
  130MOL   C20546903   0.507   4.082   7.761  0.1058  0.2359 -0.1501
  130MOL   C20646904   0.658   4.095   7.729 -0.0749  0.8168  0.1180
  130MOL   O20746905   0.672   4.188   7.624 -0.2680 -0.0205 -0.4875
  130MOL   H20846906   0.122   4.319   0.051 -1.0748  0.8231 -1.4395
  130MOL   H20946907   0.259   4.394   0.096 -0.6073  0.7212 -0.3949
  130MOL   H21046908   0.231   4.164   7.739 -2.2585  1.4390  0.5654
  130MOL   H21146909   0.285   4.152   0.067 -1.0902 -0.3103 -0.6762
  130MOL   H21246910   0.483   4.282   7.841 -3.1336  1.3340  0.8395
  130MOL   H21346911   0.435   4.272   7.683  2.4847  1.6220  1.6463
  130MOL   H21446912   0.464   4.007   7.695 -2.6024  0.2577  1.5054
  130MOL   H21546913   0.502   4.050   0.021 -0.2814  2.0986  0.4191
  130MOL   H21646914   0.692   4.143   7.821 -0.2947 -0.2172  0.7523
  130MOL   H21746915   0.703   3.997   7.719  0.6067  1.2372 -1.0516
  130MOL   C21846916   0.795   4.231   7.599  0.0778 -1.0363 -0.5875
  130MOL   O21946917   0.901   4.211   7.658 -0.7118 -0.2641  0.9317
  130MOL   C22046918   0.809   4.328   7.485  0.6672 -0.0406 -0.0324
  130MOL   C22146919   0.719   4.449   7.485  0.4899 -0.1217 -0.0723
  130MOL   C22246920   0.739   4.548   7.601  0.0262  0.1569  0.1616
  130MOL   C22346921   0.616   4.642   7.618 -0.2615 -0.0390  0.2253
  130MOL   C22446922   0.602   4.718   7.752 -0.4594  0.2160 -0.1095
  130MOL   O22546923   0.526   4.650   0.012 -0.2144  0.0365 -0.1628
  130MOL   H22646924   0.789   4.268   7.395  4.1171 -0.4056 -0.6610
  130MOL   H22746925   0.911   4.364   7.471  0.5155 -0.2050 -1.7641
  130MOL   H22846926   0.616   4.413   7.482  0.5824 -0.3552 -0.6314
  130MOL   H22946927   0.735   4.505   7.392  2.3492 -0.8416 -0.2151
  130MOL   H23046928   0.832   4.600   7.579  0.1398  0.1218  0.5533
  130MOL   H23146929   0.751   4.491   7.692 -2.8280 -1.7413 -0.5787
  130MOL   H23246930   0.529   4.578   7.600 -2.1472  2.6806 -0.7117
  130MOL   H23346931   0.609   4.713   7.536 -0.6733 -0.9263 -0.5178
  130MOL   H23446932   0.702   4.743   7.786 -0.3637 -1.0391  0.5618
  130MOL   H23546933   0.556   4.817   7.746  3.4345  2.0628 -1.0025
  130MOL   C23646934   0.558   4.686   0.137  0.6357 -0.2860  0.7162
  130MOL   O23746935   0.647   4.760   0.176 -0.0953 -0.3560  0.1493
  130MOL   C23846936   0.465   4.622   0.240 -0.1039  0.5430 -0.0789
  130MOL   C23946937   0.508   4.487   0.296 -0.8564 -0.4431 -0.1084
  130MOL   C24046938   0.639   4.478   0.382  1.1461  0.1809  0.0729
  130MOL   C24146939   0.681   4.350   0.454 -0.1788  0.0335  0.1954
  130MOL   C24246940   0.820   4.356   0.519 -0.2304 -0.3043  0.4382
  130MOL   O24346941   0.846   4.228   0.581  0.7413 -0.2057  0.0287
  130MOL   H24446942   0.364   4.612   0.201  0.5444  0.6433 -1.8067
  130MOL   H24546943   0.461   4.688   0.327 -3.2879 -0.7099  0.8209
  130MOL   H24646944   0.514   4.417   0.213  0.9117  0.7875 -1.0498
  130MOL   H24746945   0.429   4.448   0.360 -1.6197  1.7204  0.2898
  130MOL   H24846946   0.643   4.561   0.453 -0.5936  0.9739 -0.7264
  130MOL   H24946947   0.726   4.505   0.323  0.9789  1.2532  0.3025
  130MOL   H25046948   0.696   4.274   0.378  1.6881  1.3895 -0.8457
  130MOL   H25146949   0.598   4.315   0.515 -0.1258 -0.0874  0.1976
  130MOL   H25246950   0.902   4.361   0.448  0.4657 -1.7301  1.1267
  130MOL   H25346951   0.823   4.437   0.592 -0.4181  1.2794 -1.2787
  130MOL   C25446952   0.971   4.207   0.623 -0.3002  0.6715  0.0226
  130MOL   O25546953   1.068   4.267   0.582  0.0163  0.0546 -0.3556
  130MOL   C25646954   0.977   4.082   0.711  0.3913  0.2570 -0.4785
  130MOL   C25746955   1.118   4.021   0.731  0.4474 -0.7514  0.5560
  130MOL   C25846956   1.104   3.909   0.831  0.4580 -1.2775 -0.2881
  130MOL   C25946957   1.222   3.821   0.853  0.4376  0.5536 -0.1663
  130MOL   C26046958   1.193   3.708   0.949 -1.1255  0.0767  0.4375
  130MOL   O26146959   1.197   3.750   1.085  0.2983 -0.1395  0.0483
  130MOL   H26246960   0.900   4.012   0.679  0.3961 -0.3726  0.8626
  130MOL   H26346961   0.941   4.123   0.805 -0.7719 -0.8651 -0.4182
  130MOL   H26446962   1.194   4.089   0.768  1.4482 -1.7138  0.2866
  130MOL   H26546963   1.163   3.979   0.641  0.7190 -0.2753  0.4694
  130MOL   H26646964   1.031   3.835   0.797 -2.9980  1.6781  0.5314
  130MOL   H26746965   1.072   3.964   0.919 -2.6998  1.0413 -2.7727
  130MOL   H26846966   1.300   3.885   0.895 -0.3227 -0.5208  2.9863
  130MOL   H26946967   1.254   3.776   0.759  0.6815 -0.5573  0.4436
  130MOL   H27046968   1.104   3.653   0.918 -1.3105  0.7060 -0.1785
  130MOL   H27146969   1.279   3.642   0.937  0.4492  2.4317 -1.7169
  130MOL   C27246970   1.207   3.666   1.187  0.6541 -0.6137 -0.5360
  130MOL   O27346971   1.188   3.544   1.178  0.1397  0.0491  0.2545
  130MOL   C27446972   1.219   3.730   1.328  0.2128 -0.3876 -0.3038
  130MOL   C27546973   1.347   3.803   1.348 -0.2439 -0.1016 -0.1844
  130MOL   C27646974   1.346   3.875   1.485 -0.4013  0.9213 -0.1062
  130MOL   C27746975   1.481   3.871   1.555  0.0797 -0.3319 -0.3140
  130MOL   C27846976   1.503   3.944   1.690 -0.1735  0.6743  0.2346
  130MOL   O27946977   1.495   4.088   1.679  0.0476 -0.0682  0.3347
  130MOL   H28046978   1.186   3.663   1.407 -0.8030  1.6286  1.0465
  130MOL   H28146979   1.144   3.810   1.326  2.6574  2.0939  2.0609
  130MOL   H28246980   1.371   3.876   1.271 -1.0568  1.8205  1.3255
  130MOL   H28346981   1.430   3.735   1.330 -0.3002 -1.2758  3.4875
  130MOL   H28446982   1.269   3.837   1.552 -1.8127  1.4625 -1.3899
  130MOL   H28546983   1.316   3.978   1.467 -1.9668  0.9707  2.5785
  130MOL   H28646984   1.561   3.893   1.484  0.3262  0.3442  0.1695
  130MOL   H28746985   1.480   3.764   1.576 -0.6777 -0.1571  0.5756
  130MOL   H28846986   1.426   3.916   1.762 -1.0218 -1.5737 -1.4633
  130MOL   H28946987   1.598   3.917   1.736 -0.3503  3.0232  2.0261
  130MOL   C29046988   1.557   4.163   1.767  0.2083  0.3647  0.6710
  130MOL   O29146989   1.613   4.142   1.878 -0.2737  0.2118  0.3230
  130MOL   C29246990   1.541   4.318   1.738  0.0287 -0.4451  0.2129
  130MOL   C29346991   1.418   4.388   1.807 -0.3088  0.0425  0.7987
  130MOL   C29446992   1.386   4.534   1.752 -0.5307 -0.5073  0.5786
  130MOL   C29546993   1.249   4.592   1.794 -0.1762  0.8475  0.4919
  130MOL   C29646994   1.226   4.734   1.744  0.2454  0.1121 -0.2130
  130MOL   O29746995   1.316   4.818   1.803 -0.1584 -1.1649 -0.2961
  130MOL   H29846996   1.543   4.319   1.629 -0.1430  0.0948  0.2155
  130MOL   H29946997   1.637   4.355   1.773 -0.1813 -1.5139  1.9859
  130MOL   H30046998   1.433   4.400   1.914 -3.3738  0.8280  1.1784
  130MOL   H30146999   1.332   4.323   1.794  0.1344 -0.3908 -0.0684
  130MOL   H30247000   1.373   4.514   1.645  1.0740  1.2443  0.0312
  130MOL   H30347001   1.467   4.605   1.768 -0.2516 -0.7736  0.3574
  130MOL   H30447002   1.225   4.590   1.901  1.4213  0.4645  0.8471
  130MOL   H30547003   1.173   4.526   1.751  0.9981 -1.3761  1.7250
  130MOL   H30647004   1.237   4.743   1.635  0.1010  0.4936 -0.1978
  130MOL   H30747005   1.120   4.736   1.770  0.5027 -1.8210  1.0881
  130MOL   C30847006   1.290   4.952   1.807 -0.4628 -0.2160  0.1435
  130MOL   O30947007   1.212   5.010   1.730  0.0330 -0.9564 -0.5413
  130MOL   C31047008   1.381   5.034   1.907  0.9276 -0.2131 -0.2286
  130MOL   C31147009   1.305   5.055   2.037 -0.0034  0.0769  0.4974
  130MOL   C31247010   1.343   4.948   2.145  0.3856 -0.1626 -0.4664
  130MOL   C31347011   1.308   4.984   2.288 -0.2251  0.6174  0.0172
  130MOL   C31447012   1.377   4.893   2.394 -0.8991 -1.0198  0.6791
  130MOL   O31547013   1.326   4.768   2.391  0.8747 -1.0150 -0.3107
  130MOL   H31647014   1.399   5.127   1.854  1.7921  0.4533  1.2427
  130MOL   H31747015   1.474   4.983   1.929  0.9072 -0.1867 -0.0810
  130MOL   H31847016   1.201   5.076   2.014  0.5468  0.6391 -1.6851
  130MOL   H31947017   1.338   5.147   2.085  2.1587 -1.5839  2.2971
  130MOL   H32047018   1.450   4.930   2.145  0.1434 -1.8843  2.0399
  130MOL   H32147019   1.287   4.856   2.127 -1.5793  1.1270 -1.1842
  130MOL   H32247020   1.200   4.978   2.302 -0.1289 -0.9080  0.1294
  130MOL   H32347021   1.336   5.085   2.320  0.7219  0.0267  1.0822
  130MOL   H32447022   1.485   4.903   2.389 -0.9644 -1.0925 -1.2091
  130MOL   H32547023   1.364   4.926   2.497  2.0243 -1.8225  1.3437
  130MOL   C32647024   1.339   4.681   2.489  0.1895  0.4793  0.4833
  130MOL   O32747025   1.401   4.698   2.593  1.0425  0.2180 -0.2597
  130MOL   C32847026   1.258   4.556   2.460 -0.3036 -0.2414  0.7190
  130MOL   C32947027   1.295   4.474   2.332  0.5695 -0.6993 -0.1492
  130MOL   C33047028   1.225   4.341   2.329  0.0613 -0.7432  0.3165
  130MOL   C33147029   1.235   4.282   2.189  0.2800  0.6498  0.6299
  130MOL   C33247030   1.113   4.186   2.184 -0.6835 -0.3603 -0.4728
  130MOL   O33347031   1.129   4.095   2.077  0.1811 -0.3816 -0.0444
  130MOL   H33447032   1.152   4.579   2.445 -0.4234 -0.9493  0.4604
  130MOL   H33547033   1.254   4.486   2.544  0.0721 -1.0378  0.0815
  130MOL   H33647034   1.404   4.466   2.327  0.7389  1.3922 -0.2981
  130MOL   H33747035   1.264   4.546   2.257  0.9032  0.9402  1.2719
  130MOL   H33847036   1.123   4.366   2.358  0.1722 -0.8549  0.8180
  130MOL   H33947037   1.261   4.273   2.407  0.9502 -0.4670  0.1548
  130MOL   H34047038   1.331   4.231   2.188 -0.3328 -0.5163  0.4149
  130MOL   H34147039   1.234   4.357   2.109 -1.3028 -0.5511 -0.5161
  130MOL   H34247040   1.121   4.133   2.279  2.5771 -0.5971 -0.8384
  130MOL   H34347041   1.019   4.242   2.193  1.1118  2.8904 -1.1518
  130MOL   C34447042   1.088   4.124   1.955  0.3656 -0.4569  0.2705
  130MOL   O34547043   1.011   4.222   1.928 -0.5267 -0.0952 -0.3168
  130MOL   C34647044   1.127   4.023   1.846 -0.4760 -0.8453 -0.1222
  130MOL   C34747045   1.082   4.056   1.706  0.2219  0.4460 -0.3291
  130MOL   C34847046   1.148   4.184   1.649 -0.3033 -0.0787  0.5603
  130MOL   C34947047   1.086   4.216   1.509  0.3299  0.3342 -0.1605
  130MOL   C35047048   1.159   4.338   1.443 -0.0069  0.2523 -0.2025
  130MOL   O35147049   1.274   4.288   1.385  0.4430 -0.0281  0.3167
  130MOL   H35247050   1.091   3.929   1.888 -2.2312 -0.2266 -0.1947
  130MOL   H35347051   1.235   4.010   1.842 -0.6294 -2.3674  0.2672
  130MOL   H35447052   0.974   4.073   1.696  0.1630  1.1923  1.4794
  130MOL   H35547053   1.121   3.971   1.649  0.2952  1.0267 -1.1633
  130MOL   H35647054   1.256   4.170   1.643 -0.3557  0.0486 -1.0705
  130MOL   H35747055   1.134   4.275   1.708 -0.7602  0.4105 -0.2822
  130MOL   H35847056   0.978   4.226   1.518  0.2455  0.7642 -1.5723
  130MOL   H35947057   1.111   4.127   1.451 -0.3311 -1.0422  1.6121
  130MOL   H36047058   1.092   4.380   1.368  0.0354  2.9175  1.2051
  130MOL   H36147059   1.188   4.414   1.515  0.5258 -0.1305 -0.0144
  130MOL   H36247060   1.347   4.348   1.388 -0.1430  0.6850  0.3382
  131MOL     C147061   0.568   4.471   3.209 -0.0253  0.6040  0.3049
  131MOL     O247062   0.632   4.437   3.103 -0.4904 -0.0341 -0.5040
  131MOL     C347063   0.485   4.377   3.293  0.2862  0.3302  0.5761
  131MOL     C447064   0.562   4.268   3.375  0.8446  0.0486 -0.0217
  131MOL     C547065   0.661   4.322   3.477  0.4093  0.2276 -0.8712
  131MOL     C647066   0.682   4.221   3.594 -0.5339 -0.4588 -0.2428
  131MOL     C747067   0.734   4.292   3.720 -0.9264  0.7192 -0.4137
  131MOL     O847068   0.629   4.331   3.801 -0.1272 -0.4388 -0.6203
  131MOL     H947069   0.418   4.315   3.234  1.8298 -2.4446  1.6345
  131MOL    H1047070   0.418   4.432   3.359  0.9359  1.1297  0.5755
  131MOL    H1147071   0.613   4.197   3.310 -1.3158 -0.9990 -0.5949
  131MOL    H1247072   0.479   4.212   3.418  1.0847 -0.0989  0.2491
  131MOL    H1347073   0.632   4.414   3.528 -3.1881 -1.8717  1.0882
  131MOL    H1447074   0.760   4.345   3.436  0.7810  1.7884  0.8578
  131MOL    H1547075   0.749   4.139   3.569  0.5249  0.4885 -0.5370
  131MOL    H1647076   0.589   4.171   3.623 -1.4581  1.0853 -0.4786
  131MOL    H1747077   0.797   4.219   3.771 -1.1254 -0.8745 -2.3627
  131MOL    H1847078   0.798   4.374   3.687  2.0174 -1.1443  0.4402
  131MOL    H1947079   0.569   4.575   3.239 -1.4311  0.3463  1.2863
  131MOL    C2047080   0.615   4.294   3.929 -0.4939 -0.0439 -0.8107
  131MOL    O2147081   0.688   4.212   3.988 -0.2790  0.3828 -0.5197
  131MOL    C2247082   0.499   4.352   4.011  0.3095  0.1225 -0.1606
  131MOL    C2347083   0.521   4.497   4.040  0.1251 -0.1700  0.3811
  131MOL    C2447084   0.614   4.522   4.161 -0.4816  0.1951  0.4135
  131MOL    C2547085   0.647   4.669   4.182  0.0248 -0.1134  0.4236
  131MOL    C2647086   0.550   4.758   4.269  0.0594  0.4616 -0.0795
  131MOL    O2747087   0.546   4.881   4.210  0.2678 -0.0796  0.2341
  131MOL    H2847088   0.482   4.283   4.095  0.1474  0.7992  0.3678
  131MOL    H2947089   0.410   4.341   3.949  0.0407 -1.5451  0.4923
  131MOL    H3047090   0.428   4.554   4.043  1.1417  1.5729 -0.7460
  131MOL    H3147091   0.572   4.551   3.960 -1.4930 -0.2480 -0.7363
  131MOL    H3247092   0.711   4.475   4.146  0.5324  1.6020  2.4276
  131MOL    H3347093   0.580   4.483   4.257 -4.4245 -1.1609 -1.4226
  131MOL    H3447094   0.656   4.704   4.079 -0.4013 -0.6282  0.2115
  131MOL    H3547095   0.747   4.665   4.227  1.3800  1.7884 -2.2784
  131MOL    H3647096   0.453   4.710   4.282  0.8267 -0.8591  0.8775
  131MOL    H3747097   0.582   4.766   4.373 -0.2163  0.5362 -0.0030
  131MOL    C3847098   0.430   4.947   4.205  0.1860  0.8053  0.5267
  131MOL    O3947099   0.323   4.908   4.249  0.5322 -0.7087 -0.1363
  131MOL    C4047100   0.438   5.077   4.130 -0.0953 -1.0494 -0.4008
  131MOL    C4147101   0.385   5.065   3.985 -0.2579  0.4944 -0.2427
  131MOL    C4247102   0.414   5.199   3.907  1.0035  0.3975  0.0705
  131MOL    C4347103   0.361   5.192   3.764 -0.1646  0.1551  0.0580
  131MOL    C4447104   0.384   5.321   3.683  0.9939 -0.5549 -0.2500
  131MOL    O4547105   0.321   5.438   3.735 -0.5113 -0.5149  0.3827
  131MOL    H4647106   0.541   5.111   4.119  0.2415 -2.5605 -2.2600
  131MOL    H4747107   0.385   5.152   4.188  2.2409 -0.2290  0.7442
  131MOL    H4847108   0.278   5.041   3.980 -0.6639  2.0163  0.7503
  131MOL    H4947109   0.430   4.981   3.932 -1.5427 -0.5842  0.3419
  131MOL    H5047110   0.519   5.226   3.899  0.6930  1.8155  0.6159
  131MOL    H5147111   0.359   5.281   3.953  0.1216 -0.4819  0.6141
  131MOL    H5247112   0.257   5.162   3.775 -0.1665 -0.4498 -1.6169
  131MOL    H5347113   0.411   5.108   3.715 -1.4740 -1.7111  1.8062
  131MOL    H5447114   0.488   5.354   3.688 -0.0430  3.3368 -2.2381
  131MOL    H5547115   0.367   5.318   3.576  1.8350  1.9932 -0.4954
  131MOL    C5647116   0.190   5.442   3.709 -0.6292 -0.0710 -0.3110
  131MOL    O5747117   0.121   5.355   3.659  0.0853 -0.0224  0.3946
  131MOL    C5847118   0.131   5.581   3.739  1.0756 -0.3561 -0.1257
  131MOL    C5947119   0.174   5.638   3.873  0.3764  0.3141  1.0103
  131MOL    C6047120   0.162   5.795   3.887  0.2053  0.3502  0.3360
  131MOL    C6147121   0.022   5.845   3.852  0.2117  0.0262 -0.5791
  131MOL    C6247122   7.835   6.001   3.892  0.0407 -0.7823  0.0497
  131MOL    O6347123   7.830   6.023   4.033  0.3414 -0.4197  0.2120
  131MOL    H6447124   0.022   5.574   3.741  1.0678 -0.4037 -0.6480
  131MOL    H6547125   0.151   5.646   3.654  1.3740  0.8501  0.8510
  131MOL    H6647126   0.279   5.619   3.895  0.3145 -1.5132 -0.2032
  131MOL    H6747127   0.119   5.594   3.955 -1.1529  1.9893  0.9207
  131MOL    H6847128   0.241   5.840   3.826 -0.4760  0.2397 -0.6430
  131MOL    H6947129   0.195   5.838   3.981 -0.5664  0.3846  0.5943
  131MOL    H7047130   7.794   5.781   3.901 -0.3618 -0.1055 -1.5842
  131MOL    H7147131   7.840   5.833   3.747 -2.1849 -3.5214  0.3341
  131MOL    H7247132   0.067   6.067   3.850 -0.0167 -0.9106 -0.2620
  131MOL    H7347133   7.748   6.035   3.836 -0.8857 -2.3643  0.5091
  131MOL    C7447134   7.706   6.037   4.084 -0.0056 -0.2038  0.2631
  131MOL    O7547135   7.605   6.067   4.018 -0.7873  0.0575  0.3533
  131MOL    C7647136   7.702   6.024   4.236  0.3880 -0.5606 -0.2408
  131MOL    C7747137   7.765   5.899   4.288 -0.1637  0.4670 -0.4208
  131MOL    C7847138   7.698   5.770   4.240  0.1873 -0.3684  0.0839
  131MOL    C7947139   7.685   5.647   4.334  0.0218  0.2197 -0.6219
  131MOL    C8047140   7.575   5.551   4.283 -0.7907 -0.0727  0.2912
  131MOL    O8147141   7.447   5.607   4.287 -0.3117  0.1933 -0.0791
  131MOL    H8247142   7.597   6.022   4.267  0.0967 -2.0163 -1.2742
  131MOL    H8347143   7.753   6.108   4.283  1.5238 -2.1584  1.4800
  131MOL    H8447144   7.759   5.913   4.396 -0.4935 -0.3177 -0.3334
  131MOL    H8547145   0.028   5.900   4.274 -0.1711  0.8534 -0.4574
  131MOL    H8647146   7.744   5.730   4.149  0.1204  0.9687 -0.5524
  131MOL    H8747147   7.596   5.792   4.209 -0.5046 -1.6464  1.3715
  131MOL    H8847148   7.664   5.679   4.436 -0.0752 -1.3393 -0.1380
  131MOL    H8947149   7.780   5.597   4.347  0.6601  1.4361 -0.5399
  131MOL    H9047150   7.595   5.517   4.181 -1.7052  0.4509 -0.0652
  131MOL    H9147151   7.573   5.470   4.355 -0.6898  1.8300  2.4686
  131MOL    C9247152   7.359   5.565   4.375 -0.2856  0.0372  0.5603
  131MOL    O9347153   7.376   5.476   4.461  1.0203 -0.2866 -0.0291
  131MOL    C9447154   7.226   5.636   4.356  0.2785  0.3420  0.9435
  131MOL    C9547155   7.135   5.577   4.248 -0.2249 -0.6766  0.6341
  131MOL    C9647156   7.012   5.506   4.317 -0.5073 -0.5406 -0.5492
  131MOL    C9747157   6.904   5.472   4.217 -0.0777  1.0649  0.0599
  131MOL    C9847158   6.787   5.387   4.282 -0.2931  0.7146 -0.1091
  131MOL    O9947159   6.730   5.456   4.391  0.2285 -0.2455  0.1881
  131MOL   H10047160   7.240   5.740   4.330  0.4576  0.6061  2.0665
  131MOL   H10147161   7.184   5.615   4.455 -2.3616 -0.1252 -0.2271
  131MOL   H10247162   7.188   5.499   4.193 -0.6771  0.1709 -1.0089
  131MOL   H10347163   7.100   5.649   4.175  0.7194 -1.7822 -0.9499
  131MOL   H10447164   6.966   5.567   4.394 -0.1738 -0.6192 -0.2878
  131MOL   H10547165   7.035   5.411   4.365  1.9387 -0.3998 -1.4058
  131MOL   H10647166   6.942   5.417   4.131  1.3484  0.4613  1.0526
  131MOL   H10747167   6.865   5.562   4.170 -1.0858  0.3785 -0.4328
  131MOL   H10847168   6.714   5.368   4.204 -1.6229  0.3388  1.2143
  131MOL   H10947169   6.814   5.291   4.325  0.7342  0.3655 -1.5232
  131MOL   C11047170   6.644   5.557   4.370  0.2044  0.2045 -0.3636
  131MOL   O11147171   6.606   5.590   4.256 -0.1781  0.2429 -0.0777
  131MOL   C11247172   6.585   5.614   4.501  0.7599 -0.1077 -0.6130
  131MOL   C11347173   6.687   5.704   4.570 -1.0265 -0.5075  0.2131
  131MOL   C11447174   6.708   5.834   4.489 -0.7173 -0.2396 -0.1762
  131MOL   C11547175   6.821   5.924   4.541  0.4351 -0.0554 -0.1371
  131MOL   C11647176   6.822   6.062   4.481  0.3751 -0.3032  1.2187
  131MOL   O11747177   6.712   6.133   4.523  0.0260  0.6135 -0.5517
  131MOL   H11847178   6.555   5.529   4.562  1.0369 -0.2406 -0.6585
  131MOL   H11947179   6.495   5.674   4.485 -0.8074 -2.0230  0.8068
  131MOL   H12047180   6.787   5.662   4.577 -1.1058 -0.4729  1.6844
  131MOL   H12147181   6.662   5.718   4.676 -2.7475  2.1387 -0.4768
  131MOL   H12247182   6.610   5.882   4.492 -0.7060 -0.2464  0.7378
  131MOL   H12347183   6.725   5.816   4.383 -2.1269  1.3312 -0.6890
  131MOL   H12447184   6.913   5.872   4.513  1.0332  0.1484  1.3881
  131MOL   H12547185   6.806   5.933   4.648 -2.6298 -2.4852 -0.3016
  131MOL   H12647186   6.914   6.110   4.514  0.0929 -0.6321  2.5336
  131MOL   H12747187   6.833   6.050   4.373  1.2131  1.0198  1.1471
  131MOL   C12847188   6.684   6.254   4.469 -0.0793 -0.2551 -0.3830
  131MOL   O12947189   6.753   6.317   4.385  0.1160 -0.4583  0.4231
  131MOL   C13047190   6.555   6.310   4.532  1.1409  0.2455 -0.2168
  131MOL   C13147191   6.434   6.277   4.426  0.1151 -0.2238  0.8831
  131MOL   C13247192   6.295   6.312   4.477  0.3406  0.5034  0.0139
  131MOL   C13347193   6.248   6.224   4.593 -0.2316  0.5453  0.0993
  131MOL   C13447194   6.132   6.278   4.673 -0.0282  0.4154  0.4174
  131MOL   O13547195   6.088   6.184   4.777 -0.3674 -0.7546  0.5666
  131MOL   H13647196   6.568   6.418   4.538  4.0843 -0.1147  0.7132
  131MOL   H13747197   6.538   6.276   4.633  1.2508 -2.1321 -0.9701
  131MOL   H13847198   6.454   6.176   4.390 -2.3518 -0.1811 -0.6693
  131MOL   H13947199   6.449   6.335   4.335  0.2302 -1.1592  0.3019
  131MOL   H14047200   6.219   6.308   4.399 -0.0936  2.6583  0.2919
  131MOL   H14147201   6.291   6.414   4.516  1.6645  0.6181 -0.1455
  131MOL   H14247202   6.330   6.221   4.665 -0.4098  0.1426  0.2844
  131MOL   H14347203   6.225   6.125   4.554  0.4144  0.1363  0.7531
  131MOL   H14447204   6.137   6.376   4.721 -1.1760  0.3741  0.6470
  131MOL   H14547205   6.052   6.286   4.599  0.7366  0.0827 -0.4413
  131MOL   C14647206   6.141   6.198   4.896 -0.3011  0.6509 -0.0070
  131MOL   O14747207   6.205   6.289   4.947 -0.1800 -0.1258 -0.3090
  131MOL   C14847208   6.110   6.072   4.976  0.7190  0.0381  0.0103
  131MOL   C14947209   5.967   6.076   5.031 -0.9407  0.0540  0.1058
  131MOL   C15047210   5.924   5.943   5.099  0.3939  0.1696 -0.5596
  131MOL   C15147211   5.820   5.948   5.214 -0.3841  0.5229 -0.2641
  131MOL   C15247212   5.889   5.986   5.349  0.1055  0.0284  0.0428
  131MOL   O15347213   5.780   6.021   5.433 -0.5680  0.1810  0.2147
  131MOL   H15447214   6.173   6.060   5.064  0.5365 -1.1287 -0.0155
  131MOL   H15547215   6.127   5.985   4.912 -1.4348 -1.0047  0.8233
  131MOL   H15647216   5.888   6.109   4.965 -1.6011 -0.0184  0.8484
  131MOL   H15747217   5.959   6.146   5.114  0.0733  0.3537 -0.0423
  131MOL   H15847218   6.014   5.888   5.125 -1.8666 -2.6021  1.7584
  131MOL   H15947219   5.877   5.877   5.026 -1.3273  0.3688  0.3393
  131MOL   H16047220   5.772   5.853   5.240 -0.8979  0.3422 -1.8127
  131MOL   H16147221   5.743   6.013   5.172  0.6369  1.4348 -0.7479
  131MOL   H16247222   5.946   5.901   5.386 -0.3854 -1.2231 -1.9897
  131MOL   H16347223   5.961   6.066   5.338  0.8433 -0.8596 -1.7087
  131MOL   C16447224   5.809   6.061   5.564 -0.4353  0.1899 -0.1900
  131MOL   O16547225   5.923   6.096   5.613  0.2144  0.4032  0.2358
  131MOL   C16647226   5.689   6.076   5.653  0.0818 -0.4110 -0.2311
  131MOL   C16747227   5.622   6.209   5.630  0.3544 -0.5319 -0.0675
  131MOL   C16847228   5.706   6.328   5.677  0.0824 -0.8400 -0.2355
  131MOL   C16947229   5.620   6.454   5.685 -0.9578 -0.3362  0.1552
  131MOL   C17047230   5.712   6.570   5.723  0.5371  0.9738 -0.6278
  131MOL   O17147231   5.799   6.603   5.616 -0.2073  0.6166 -0.2641
  131MOL   H17247232   5.725   6.071   5.756 -0.6514  1.5607  0.1498
  131MOL   H17347233   5.627   5.989   5.631  0.4299  0.2948 -4.3998
  131MOL   H17447234   5.530   6.211   5.689  0.3347 -1.1231 -0.0739
  131MOL   H17547235   5.589   6.215   5.527  1.9433 -1.0906 -0.6330
  131MOL   H17647236   5.797   6.333   5.617  0.6457  1.3733  0.7611
  131MOL   H17747237   5.757   6.294   5.767  1.2417  0.8681 -0.2127
  131MOL   H17847238   5.542   6.438   5.759 -0.0125 -0.2861  1.1799
  131MOL   H17947239   5.567   6.476   5.593 -1.9105 -2.8857  0.0578
  131MOL   H18047240   5.653   6.661   5.737 -0.8753 -0.1469  0.8487
  131MOL   H18147241   5.761   6.554   5.819 -2.6929 -0.4758  0.8551
  131MOL   C18247242   5.907   6.671   5.646 -0.1268 -0.9425 -0.1978
  131MOL   O18347243   5.948   6.695   5.757 -0.1858  0.2030 -0.2702
  131MOL   C18447244   5.991   6.701   5.523  0.4188  0.1039  0.4560
  131MOL   C18547245   6.089   6.824   5.549  0.6301 -0.4972  0.3246
  131MOL   C18647246   6.186   6.856   5.429 -0.1947  0.0499 -0.8995
  131MOL   C18747247   6.116   6.927   5.316 -0.1871  0.1183  0.2862
  131MOL   C18847248   6.058   7.058   5.355 -0.1546 -0.6049  0.4574
  131MOL   O18947249   5.993   7.114   5.243  0.2095  0.2408  0.1214
  131MOL   H19047250   5.920   6.740   5.451  0.6913  0.3110  0.2996
  131MOL   H19147251   6.037   6.605   5.496 -2.3211 -1.4211  1.0386
  131MOL   H19247252   6.158   6.794   5.628  0.2529 -2.2029  0.0141
  131MOL   H19347253   6.035   6.913   5.583 -0.0003 -0.7915  0.0959
  131MOL   H19447254   6.224   6.771   5.373 -0.3973  0.0942 -1.1041
  131MOL   H19547255   6.276   6.909   5.459 -0.2049 -1.0248  1.0624
  131MOL   H19647256   6.032   6.870   5.277  0.0631  0.5601 -0.9244
  131MOL   H19747257   6.176   6.945   5.227  1.0123 -5.1492 -0.0945
  131MOL   H19847258   5.987   7.049   5.437  1.4195  0.1307  1.9342
  131MOL   H19947259   6.131   7.133   5.384 -1.2877  0.3506  0.8837
  131MOL   C20047260   5.862   7.091   5.219  0.0477 -0.1448  0.4683
  131MOL   O20147261   5.802   7.005   5.284 -0.1930  1.0025  0.0102
  131MOL   C20247262   5.799   7.172   5.107  0.0499  0.0793 -0.0324
  131MOL   C20347263   5.669   7.117   5.052 -0.7421  0.1720 -0.1903
  131MOL   C20447264   5.688   7.004   4.964  0.3562 -0.0314 -0.0781
  131MOL   C20547265   5.560   6.965   4.882 -0.4351  0.4723 -0.5038
  131MOL   C20647266   5.574   6.862   4.771  0.1200  0.3978 -0.2444
  131MOL   O20747267   5.494   6.896   4.654 -0.5654 -0.1386 -0.8713
  131MOL   H20847268   5.877   7.187   5.032 -0.8908 -0.1466 -1.0673
  131MOL   H20947269   5.773   7.271   5.145  1.3270 -0.2197  1.6830
  131MOL   H21047270   5.609   7.195   5.006 -0.2032 -0.5140 -2.1113
  131MOL   H21147271   5.608   7.081   5.135 -1.6963 -2.8897 -2.1011
  131MOL   H21247272   5.730   6.927   5.029  0.1307  0.3759  0.5500
  131MOL   H21347273   5.772   7.025   4.897 -0.0815 -1.1034 -0.9655
  131MOL   H21447274   5.525   7.061   4.843  0.1405  0.4929 -0.9676
  131MOL   H21547275   5.479   6.925   4.942 -1.6931  3.5975 -0.0061
  131MOL   H21647276   5.677   6.872   4.735 -0.2895  0.0392 -1.5293
  131MOL   H21747277   5.548   6.762   4.806 -0.2805  1.5200  2.7879
  131MOL   C21847278   5.503   6.814   4.549 -0.4424  0.0851  0.1834
  131MOL   O21947279   5.593   6.728   4.534 -0.1320 -0.1581 -0.7525
  131MOL   C22047280   5.406   6.835   4.435 -0.1775  0.0347 -1.0002
  131MOL   C22147281   5.460   6.920   4.322 -0.4461  0.5884 -0.1655
  131MOL   C22247282   5.351   6.986   4.235  0.4605 -0.2095  0.5476
  131MOL   C22347283   5.251   7.085   4.305 -0.5918 -0.2964 -0.2891
  131MOL   C22447284   5.180   7.183   4.208  0.0141 -0.0144  0.6353
  131MOL   O22547285   5.091   7.117   4.115  0.2195  0.0623  0.5673
  131MOL   H22647286   5.317   6.883   4.477  0.4033  1.2540 -1.1364
  131MOL   H22747287   5.392   6.732   4.403  1.4591 -0.8814  1.1307
  131MOL   H22847288   5.532   6.859   4.267  2.0541  1.7612  1.7040
  131MOL   H22947289   5.509   7.004   4.371  0.0891  0.5523 -0.6252
  131MOL   H23047290   5.305   6.915   4.167 -0.7026  0.3876  0.6990
  131MOL   H23147291   5.407   7.049   4.167  0.8618 -0.7764  0.3555
  131MOL   H23247292   5.309   7.140   4.380 -0.1822  1.5019 -1.8643
  131MOL   H23347293   5.173   7.036   4.362 -1.3718  1.9260  0.6001
  131MOL   H23447294   5.126   7.252   4.273 -1.2369  0.3153 -0.7301
  131MOL   H23547295   5.253   7.249   4.162  1.6314 -1.5294  0.9845
  131MOL   C23647296   4.972   7.078   4.157 -0.7096 -1.0431  0.2371
  131MOL   O23747297   4.925   7.094   4.271 -0.6090  0.2398  0.1446
  131MOL   C23847298   4.894   7.003   4.046 -0.4306  0.7007 -0.1321
  131MOL   C23947299   4.821   7.092   3.945 -0.4613  0.0296 -0.4823
  131MOL   C24047300   4.727   7.194   4.012 -0.8405 -1.0224 -1.1051
  131MOL   C24147301   4.643   7.282   3.918  0.3384  0.0301 -1.0555
  131MOL   C24247302   4.542   7.355   3.998 -0.4113 -0.0668  0.5076
  131MOL   O24347303   4.415   7.362   3.932  0.1034  0.2303  0.2798
  131MOL   H24447304   4.825   6.932   4.092 -0.0392 -0.4493 -1.2731
  131MOL   H24547305   4.975   6.955   3.990  1.0880  0.7752  1.9452
  131MOL   H24647306   4.775   7.030   3.869  0.6270 -2.8530  1.1322
  131MOL   H24747307   4.901   7.147   3.896  0.4731  1.2857  2.3185
  131MOL   H24847308   4.779   7.258   4.084  0.4845 -2.4021 -0.7942
  131MOL   H24947309   4.656   7.139   4.073 -1.9957  0.4553 -1.0968
  131MOL   H25047310   4.584   7.216   3.855 -2.2562  0.7176  0.5820
  131MOL   H25147311   4.698   7.347   3.850  1.7868 -0.6322 -0.5272
  131MOL   H25247312   4.526   7.293   4.087 -1.5313 -2.7229 -1.4776
  131MOL   H25347313   4.574   7.453   4.033  0.0162 -0.7398  2.0762
  131MOL   C25447314   4.303   7.344   4.001 -0.0589 -0.5711 -0.6106
  131MOL   O25547315   4.301   7.311   4.122 -0.1686 -0.4768  0.5996
  131MOL   C25647316   4.173   7.356   3.919 -0.2568  0.9376  0.2693
  131MOL   C25747317   4.142   7.239   3.822  0.7987  0.1167 -0.4940
  131MOL   C25847318   4.023   7.279   3.722 -0.4900 -0.3561 -0.1973
  131MOL   C25947319   4.035   7.233   3.576  0.3978  0.3898  0.6997
  131MOL   C26047320   3.930   7.285   3.483 -0.7563 -0.2533 -0.1349
  131MOL   O26147321   3.940   7.431   3.485  0.3295  0.3271  0.0487
  131MOL   H26247322   4.178   7.454   3.872  0.5751  1.0956  0.6771
  131MOL   H26347323   4.087   7.378   3.983 -0.5367 -1.5757  0.8201
  131MOL   H26447324   4.115   7.151   3.881 -0.4593 -0.2414 -1.5824
  131MOL   H26547325   4.227   7.200   3.766  0.8646 -0.5606  0.0685
  131MOL   H26647326   4.043   7.387   3.722 -2.4679  0.0297 -1.1742
  131MOL   H26747327   3.931   7.260   3.777  0.8614 -0.6335  1.9998
  131MOL   H26847328   4.027   7.125   3.577  2.3320  0.2230  2.5324
  131MOL   H26947329   4.132   7.257   3.532  0.0588 -1.8987 -1.3471
  131MOL   H27047330   3.932   7.238   3.384  2.3930 -0.2541 -0.1026
  131MOL   H27147331   3.830   7.263   3.522 -1.5390  2.1541 -0.6989
  131MOL   C27247332   4.006   7.492   3.387  0.1861  0.5329  0.4753
  131MOL   O27347333   4.050   7.440   3.284  0.0076 -0.3096  0.0056
  131MOL   C27447334   3.996   7.644   3.413 -0.3518  0.8452 -0.0702
  131MOL   C27547335   4.047   7.690   3.551 -0.1888 -0.1653  0.7338
  131MOL   C27647336   4.192   7.658   3.570  0.2719  0.3404  0.9573
  131MOL   C27747337   4.263   7.744   3.670  0.0804  0.7102 -0.6862
  131MOL   C27847338   4.394   7.678   3.734  0.3148  0.1540  0.0184
  131MOL   O27947339   4.462   7.777   3.810  0.3893 -0.0080  0.4101
  131MOL   H28047340   3.889   7.663   3.413 -0.6976 -1.0090 -0.4396
  131MOL   H28147341   4.044   7.692   3.328  0.4974  2.0413  1.0655
  131MOL   H28247342   3.987   7.648   3.631 -2.5079  1.3460 -0.1798
  131MOL   H28347343   4.040   7.799   3.548 -0.0489 -0.0681  3.1279
  131MOL   H28447344   4.244   7.676   3.476  0.4181 -0.5523  0.8622
  131MOL   H28547345   4.206   7.560   3.616 -1.8978  0.0106  0.9773
  131MOL   H28647346   4.189   7.774   3.745  1.0459  0.8324  0.2286
  131MOL   H28747347   4.296   7.837   3.624  0.1126  1.2431  0.4003
  131MOL   H28847348   4.366   7.592   3.794  1.1644 -2.1625 -2.7719
  131MOL   H28947349   4.461   7.645   3.654 -1.2196  0.7112 -1.5429
  131MOL   C29047350   4.487   7.774   3.933 -0.2382  0.0377 -0.5108
  131MOL   O29147351   4.446   7.692   4.014  0.2248 -0.3366  0.2555
  131MOL   C29247352   4.559   0.052   3.981 -0.3218  0.5482  0.4258
  131MOL   C29347353   4.476   0.177   3.987 -0.6411 -0.1632  0.6445
  131MOL   C29447354   4.545   0.294   4.043  0.1853  0.3625 -0.3608
  131MOL   C29547355   4.452   0.415   4.071  0.2318 -0.5026  0.0168
  131MOL   C29647356   4.528   0.556   4.069 -0.1949 -0.0969 -0.1101
  131MOL   O29747357   4.436   0.664   4.084  0.6223 -0.2825 -0.5578
  131MOL   H29847358   4.646   0.069   3.917 -0.6615  2.9644  0.5411
  131MOL   H29947359   4.605   0.035   4.078 -2.1431  0.2520  1.2480
  131MOL   H30047360   4.396   0.158   4.059  1.1148  1.3348  3.0342
  131MOL   H30147361   4.430   0.211   3.894  0.4723 -0.5803 -0.0763
  131MOL   H30247362   4.611   0.319   3.959  0.0886 -0.2456 -0.6172
  131MOL   H30347363   4.601   0.275   4.134  0.5263  1.5951 -0.3013
  131MOL   H30447364   4.405   0.408   4.169 -0.2482 -2.1212 -0.3134
  131MOL   H30547365   4.382   0.418   3.987  1.1682 -2.1206 -0.8344
  131MOL   H30647366   4.610   0.571   4.138  1.4783  1.1090 -2.3006
  131MOL   H30747367   4.581   0.575   3.976 -0.7244 -0.2064 -0.4408
  131MOL   C30847368   4.473   0.788   4.049  0.6886  0.1464  0.1872
  131MOL   O30947369   4.585   0.820   4.015 -0.7800  0.8924 -0.1280
  131MOL   C31047370   4.357   0.894   4.053  0.1123  0.1526  0.5430
  131MOL   C31147371   4.284   0.899   4.198  0.3178  0.0886  0.4799
  131MOL   C31247372   4.166   0.990   4.187  0.1428  0.0544  0.3786
  131MOL   C31347373   4.079   0.999   4.321 -0.1515  0.1677 -0.4556
  131MOL   C31447374   3.983   1.122   4.331 -0.0182  0.5120  0.9226
  131MOL   O31547375   3.917   1.116   4.456 -0.2135 -0.0040  0.8450
  131MOL   H31647376   4.288   0.884   3.969 -0.1763 -1.7017  0.9737
  131MOL   H31747377   4.405   0.991   4.037  2.0554 -1.0529 -1.1094
  131MOL   H31847378   4.366   0.928   4.263 -0.0059  1.7647  0.1747
  131MOL   H31947379   4.251   0.802   4.234 -1.2740 -0.1175 -1.4191
  131MOL   H32047380   4.107   0.946   4.107  1.7701  0.2264 -0.9352
  131MOL   H32147381   4.197   1.091   4.159 -0.9718  0.3710  0.2913
  131MOL   H32247382   4.155   0.988   4.398 -0.9198 -1.5902  0.0897
  131MOL   H32347383   4.017   0.911   4.336 -0.0975  0.2908  0.5267
  131MOL   H32447384   4.040   1.215   4.327  0.7909 -0.0820 -3.3522
  131MOL   H32547385   3.906   1.117   4.255 -0.6418  0.0626  1.5851
  131MOL   C32647386   3.896   1.220   4.544 -1.1144  0.5267 -0.1331
  131MOL   O32747387   3.942   1.334   4.532  0.1143 -0.2295 -0.2609
  131MOL   C32847388   3.826   1.178   4.670 -0.2870  0.3047 -0.2953
  131MOL   C32947389   3.926   1.152   4.784  0.3902 -0.0035  0.1685
  131MOL   C33047390   4.052   1.064   4.757  0.3725 -0.3455  0.8413
  131MOL   C33147391   4.121   1.055   4.895 -0.5334 -0.7084  0.1118
  131MOL   C33247392   4.263   0.999   4.880  0.3165 -0.9762 -0.1898
  131MOL   O33347393   4.328   1.058   4.767  0.2980  0.0736  0.6621
  131MOL   H33447394   3.774   1.087   4.640 -0.2171  0.8200 -2.0424
  131MOL   H33547395   3.741   1.244   4.690 -0.4226  0.2728 -0.7619
  131MOL   H33647396   3.874   1.097   4.863 -1.1307  0.2557 -0.6333
  131MOL   H33747397   3.954   1.248   4.828 -1.0742 -0.6911  2.7448
  131MOL   H33847398   4.122   1.114   4.690  0.9263 -1.5154  0.5497
  131MOL   H33947399   4.026   0.965   4.721  0.5697 -0.4059  0.8686
  131MOL   H34047400   4.062   1.001   4.968 -1.8624 -2.1231 -1.9453
  131MOL   H34147401   4.124   1.156   4.933  1.7500 -0.4877 -0.5782
  131MOL   H34247402   4.304   1.015   4.980  0.6547  2.1818 -0.7569
  131MOL   H34347403   4.265   0.891   4.868 -0.4444 -0.9449 -0.6243
  131MOL   C34447404   4.443   1.131   4.785  0.1155 -0.1088  0.2711
  131MOL   O34547405   4.492   1.154   4.896 -0.1738 -0.0143 -0.3435
  131MOL   C34647406   4.490   1.200   4.659  0.2280  0.2696 -0.0769
  131MOL   C34747407   4.496   1.111   4.535 -0.0361  0.6151  0.5126
  131MOL   C34847408   4.479   1.185   4.401 -0.3318 -1.3841  0.1009
  131MOL   C34947409   4.350   1.272   4.383 -0.0291  0.2274 -0.6607
  131MOL   C35047410   4.328   1.330   4.238 -0.0930  0.3907  0.0358
  131MOL   O35147411   4.421   1.427   4.189  0.1526 -0.1305 -0.3289
  131MOL   H35247412   4.586   1.241   4.689  0.2528 -0.8840  1.5036
  131MOL   H35347413   4.429   1.289   4.644  0.4951  1.0338  3.1635
  131MOL   H35447414   4.427   1.028   4.543  0.7148 -0.0714 -0.0232
  131MOL   H35547415   4.593   1.061   4.529 -0.0591  0.5696  0.5308
  131MOL   H35647416   4.474   1.110   4.322  0.8600 -3.3960  1.8777
  131MOL   H35747417   4.560   1.258   4.395 -0.4087 -1.3950 -1.2933
  131MOL   H35847418   4.352   1.352   4.457  1.9972 -1.8956  1.7028
  131MOL   H35947419   4.262   1.214   4.413  1.9945 -2.5026  0.2417
  131MOL   H36047420   4.342   1.242   4.176  0.0086  1.0797 -0.9340
  131MOL   H36147421   4.224   1.364   4.236  0.1540  1.1194 -1.0686
  131MOL   H36247422   4.424   1.505   4.242 -1.3559  0.1115 -0.5619
  132MOL     C147423   7.290   1.959   3.922 -0.1266  0.1958 -0.1456
  132MOL     O247424   7.276   1.892   4.025 -0.3164  0.2241  0.4498
  132MOL     C347425   7.190   2.075   3.893  0.0520  0.1126 -0.0962
  132MOL     C447426   7.161   2.158   4.018 -0.3440  0.2186  0.2067
  132MOL     C547427   7.026   2.239   4.007  0.1234 -0.3976  0.2686
  132MOL     C647428   6.988   2.309   4.139 -0.0985 -0.0847  0.1126
  132MOL     C747429   6.890   2.419   4.120 -0.2530 -0.0651 -0.3031
  132MOL     O847430   6.753   2.380   4.105  0.1773  0.0661 -0.0441
  132MOL     H947431   7.105   2.026   3.845  0.5755  0.4876 -1.4300
  132MOL    H1047432   7.238   2.132   3.813 -1.7915  1.4470 -0.2867
  132MOL    H1147433   7.247   2.222   4.034  0.4554 -0.6717 -0.4501
  132MOL    H1247434   7.168   2.092   4.104  2.7241 -0.5480 -0.5695
  132MOL    H1347435   6.943   2.184   3.964 -1.6472  1.1523  1.6357
  132MOL    H1447436   7.047   2.310   3.927  0.5587 -0.8456 -0.0186
  132MOL    H1547437   7.071   2.364   4.182  0.7323 -1.2566  0.0307
  132MOL    H1647438   6.955   2.224   4.200 -2.8121  1.1044  0.3983
  132MOL    H1747439   6.903   2.492   4.200 -2.2205 -0.1580  0.1160
  132MOL    H1847440   6.920   2.477   4.033 -2.1935 -0.2430 -1.1200
  132MOL    H1947441   7.371   1.946   3.850  1.6808  0.1874  1.8380
  132MOL    C2047442   6.670   2.421   4.015 -0.6461  0.7005  0.4074
  132MOL    O2147443   6.701   2.496   3.921 -0.4136  0.3326 -0.2220
  132MOL    C2247444   6.537   2.361   4.040 -0.4006  0.3832 -0.0031
  132MOL    C2347445   6.537   2.210   4.007 -0.1056  0.2519 -0.3733
  132MOL    C2447446   6.572   2.163   3.863  0.0875  0.3372  0.3027
  132MOL    C2547447   6.578   2.008   3.871 -0.1785 -0.0678  0.0331
  132MOL    C2647448   6.614   1.941   3.736  0.0414 -0.6821 -0.4676
  132MOL    O2747449   6.742   1.974   3.695 -0.0573  0.0031 -0.1256
  132MOL    H2847450   6.464   2.429   3.996 -0.5213  0.7338  0.7171
  132MOL    H2947451   6.511   2.359   4.146 -1.3356  0.1238 -0.2342
  132MOL    H3047452   6.438   2.170   4.029  0.2729 -0.4894  0.0044
  132MOL    H3147453   6.608   2.155   4.069  0.5316 -0.1055 -1.4152
  132MOL    H3247454   6.667   2.199   3.824  0.5892 -0.0138  1.1983
  132MOL    H3347455   6.494   2.200   3.796 -0.4611 -0.2289  0.6251
  132MOL    H3447456   6.480   1.970   3.901 -0.9511  2.3220  0.6430
  132MOL    H3547457   6.653   1.981   3.945 -0.6391  2.7001  1.5645
  132MOL    H3647458   6.604   1.833   3.746 -2.0533 -0.5085 -0.3290
  132MOL    H3747459   6.545   1.968   3.656 -0.1754  0.2911  0.0424
  132MOL    C3847460   6.779   1.966   3.574 -0.0617  0.0248  0.6284
  132MOL    O3947461   6.713   1.935   3.476  0.4025  0.3152 -0.0902
  132MOL    C4047462   6.908   2.027   3.543  0.1655  0.0265 -0.4357
  132MOL    C4147463   6.923   2.157   3.608  0.7424  0.4654 -0.0303
  132MOL    C4247464   6.821   2.262   3.571 -0.5675 -0.4518  0.6478
  132MOL    C4347465   6.862   2.413   3.606 -0.4605 -0.4807  0.1763
  132MOL    C4447466   6.745   2.510   3.568 -0.3576  0.8130  0.0648
  132MOL    O4547467   6.746   2.518   3.423 -0.0851  0.3371  0.2799
  132MOL    H4647468   6.915   2.034   3.435  0.9062 -0.1752 -0.4044
  132MOL    H4747469   6.980   1.955   3.583 -1.5386 -1.3941  0.1202
  132MOL    H4847470   7.009   2.194   3.552 -1.1370  0.4946 -2.9814
  132MOL    H4947471   6.952   2.162   3.713  0.5782  1.5548 -0.0327
  132MOL    H5047472   6.725   2.243   3.619 -1.8927  1.5435 -1.1192
  132MOL    H5147473   6.800   2.266   3.464 -1.5259  2.4728  0.8784
  132MOL    H5247474   6.958   2.443   3.564 -0.2186 -1.7928 -0.2161
  132MOL    H5347475   6.881   2.412   3.714 -0.5277 -0.5609  0.1869
  132MOL    H5447476   6.645   2.485   3.602 -0.0208 -1.0686 -0.2573
  132MOL    H5547477   6.773   2.601   3.623 -1.8016  0.7135  0.9879
  132MOL    C5647478   6.700   2.636   3.379  0.4726 -0.1685 -0.0435
  132MOL    O5747479   6.643   2.724   3.439 -1.1121 -0.2038  0.4315
  132MOL    C5847480   6.718   2.647   3.228  0.0036  0.1041 -0.0414
  132MOL    C5947481   6.655   2.523   3.161 -0.5245 -0.4270 -0.5803
  132MOL    C6047482   6.706   2.525   3.021 -0.3162  0.2926  0.0960
  132MOL    C6147483   6.631   2.429   2.921 -0.3718 -0.5051  0.0064
  132MOL    C6247484   6.701   2.442   2.785  0.3333  0.0350  0.0960
  132MOL    O6347485   6.840   2.402   2.795  0.5093 -0.2841 -0.2944
  132MOL    H6447486   6.823   2.651   3.200 -0.1292  0.1086 -0.5340
  132MOL    H6547487   6.680   2.743   3.194  1.6673  1.1594  0.9847
  132MOL    H6647488   6.546   2.526   3.162 -0.5028  1.3487 -0.6432
  132MOL    H6747489   6.677   2.421   3.193 -0.4543 -0.4300 -0.6363
  132MOL    H6847490   6.813   2.506   3.010 -0.3400 -1.0499  1.9907
  132MOL    H6947491   6.701   2.623   2.973  1.6378 -0.6007 -2.0179
  132MOL    H7047492   6.526   2.456   2.913 -1.3131 -3.1506  2.4725
  132MOL    H7147493   6.643   2.323   2.947 -1.7641 -0.6034  0.2884
  132MOL    H7247494   6.650   2.375   2.715  0.0750  0.8110 -0.4678
  132MOL    H7347495   6.685   2.542   2.745 -2.9807 -0.6566 -0.4244
  132MOL    C7447496   6.931   2.449   2.707  0.4083 -0.5174  0.0158
  132MOL    O7547497   6.917   2.532   2.616  0.0982 -0.4980 -0.3320
  132MOL    C7647498   7.062   2.375   2.734 -0.0840  0.1545  0.1347
  132MOL    C7747499   7.074   2.251   2.637  0.2590  0.4020 -0.2800
  132MOL    C7847500   7.002   2.132   2.694  0.0268  0.3023  0.2400
  132MOL    C7947501   7.010   2.010   2.602  0.1391  0.0903  0.8212
  132MOL    C8047502   6.936   1.891   2.659 -0.8198 -0.4742 -0.2074
  132MOL    O8147503   7.002   1.782   2.595 -0.2854  0.4018 -0.4030
  132MOL    H8247504   7.074   2.330   2.832 -0.5937 -0.3910 -0.0447
  132MOL    H8347505   7.143   2.442   2.705 -0.6724  1.1695  0.8114
  132MOL    H8447506   7.175   2.214   2.622  0.4846  0.5876  0.8048
  132MOL    H8547507   7.029   2.279   2.541 -0.8427  0.3230  0.2054
  132MOL    H8647508   6.897   2.150   2.719 -0.2259  0.8252 -1.1864
  132MOL    H8747509   7.042   2.101   2.791  0.0582  0.0296  0.1378
  132MOL    H8847510   7.118   2.000   2.597  0.0170 -1.4536  0.8330
  132MOL    H8947511   6.975   2.028   2.500  1.5139  0.5046  0.4131
  132MOL    H9047512   6.927   1.905   2.767 -1.7831 -0.8576 -0.2323
  132MOL    H9147513   6.834   1.895   2.621 -0.6698 -1.0369 -0.6671
  132MOL    C9247514   6.973   1.661   2.640  0.7568  0.7469 -0.0356
  132MOL    O9347515   6.875   1.632   2.714 -0.1227  0.8655 -0.9064
  132MOL    C9447516   7.059   1.558   2.582  0.2188  0.0214  0.3342
  132MOL    C9547517   7.030   1.415   2.621  0.0627 -0.3885 -0.4262
  132MOL    C9647518   7.090   1.372   2.754 -0.1712 -0.4349  0.2339
  132MOL    C9747519   7.249   1.372   2.757  0.0712 -0.3589  0.0755
  132MOL    C9847520   7.296   1.261   2.861 -0.4862  0.2259  0.3034
  132MOL    O9947521   7.442   1.257   2.848  0.0403 -0.0451  0.1568
  132MOL   H10047522   7.157   1.588   2.620  0.4690 -1.5283  0.9668
  132MOL   H10147523   7.046   1.569   2.474 -0.7181  1.3120  0.5668
  132MOL   H10247524   7.068   1.345   2.547 -0.4403  0.7867 -1.8131
  132MOL   H10347525   6.922   1.396   2.620  0.2052 -1.2638  0.1860
  132MOL   H10447526   7.055   1.269   2.766  0.0350 -0.5801 -0.4001
  132MOL   H10547527   7.042   1.420   2.839  0.1478 -2.5096  1.6231
  132MOL   H10647528   7.295   1.469   2.777 -2.6849  1.0787 -0.2605
  132MOL   H10747529   7.277   1.332   2.660  0.1330 -0.0419 -0.0368
  132MOL   H10847530   7.255   1.265   2.962  0.0604  2.2528  0.4743
  132MOL   H10947531   7.262   1.168   2.817 -0.7571  0.6290 -0.3456
  132MOL   C11047532   7.510   1.169   2.782 -0.1151 -0.4322 -0.2665
  132MOL   O11147533   7.465   1.068   2.733 -0.8341  0.2616  0.1169
  132MOL   C11247534   7.659   1.193   2.781 -0.2347 -0.1303 -0.5918
  132MOL   C11347535   7.713   1.268   2.653  0.1331 -0.0428  0.7459
  132MOL   C11447536   7.636   1.400   2.635 -0.4988 -0.4450 -0.2269
  132MOL   C11547537   7.685   1.505   2.723 -0.4718  0.1401 -0.4041
  132MOL   C11647538   7.624   1.642   2.710 -0.2227  0.0732 -0.0796
  132MOL   O11747539   7.685   1.734   2.798  0.4298  0.3368 -0.4512
  132MOL   H11847540   7.710   1.097   2.795 -0.8324  0.1422  4.1545
  132MOL   H11947541   7.683   1.241   2.876  1.4570 -0.1213 -1.0053
  132MOL   H12047542   7.702   1.213   2.560 -2.7297  0.5264  0.7045
  132MOL   H12147543   7.820   1.290   2.656 -0.0296  0.8969 -0.1137
  132MOL   H12247544   7.528   1.400   2.648 -0.2067 -0.3212  2.5009
  132MOL   H12347545   7.647   1.426   2.529 -0.2627  0.8255  0.0965
  132MOL   H12447546   7.793   1.520   2.724 -0.3251 -0.6033 -2.4957
  132MOL   H12547547   7.663   1.469   2.824  1.0466 -2.2989 -0.8957
  132MOL   H12647548   7.632   1.686   2.611  0.7547 -0.0776 -0.0783
  132MOL   H12747549   7.517   1.639   2.729 -0.2677  1.7609  0.0376
  132MOL   C12847550   7.610   1.839   2.840  0.2093 -0.2037 -0.6269
  132MOL   O12947551   7.492   1.867   2.805 -0.3022  0.2809  0.4816
  132MOL   C13047552   7.693   1.939   2.926  0.0627 -0.9811 -0.1773
  132MOL   C13147553   7.761   1.886   3.046 -0.0646  0.0733  0.1920
  132MOL   C13247554   7.665   1.841   3.163 -0.8056  0.2428  0.0235
  132MOL   C13347555   7.563   1.955   3.195  0.6193  0.0064 -0.3676
  132MOL   C13447556   7.461   1.917   3.299  0.1428  0.7173 -0.1445
  132MOL   O13547557   7.397   2.028   3.347 -0.5274 -0.2939 -0.3424
  132MOL   H13647558   7.628   2.021   2.958  1.9846  0.5480 -0.0116
  132MOL   H13747559   7.758   1.995   2.858 -1.9649  1.9384  0.1923
  132MOL   H13847560   7.817   1.971   3.086  1.5849 -2.2223  2.9621
  132MOL   H13947561   7.836   1.808   3.028  1.1519  1.7109 -2.0174
  132MOL   H14047562   7.719   1.828   3.257  1.4714  0.7667 -1.1956
  132MOL   H14147563   7.604   1.751   3.153 -1.0797  0.4613 -0.2919
  132MOL   H14247564   7.508   1.989   3.108 -0.0720  1.0365  0.4616
  132MOL   H14347565   7.617   2.043   3.228 -0.3555  0.0490  1.1641
  132MOL   H14447566   7.388   1.849   3.256 -0.6051  0.6342  1.2319
  132MOL   H14547567   7.513   1.859   3.375 -0.3375  0.4964  0.0181
  132MOL   C14647568   7.390   2.065   3.475  0.0107  0.0843 -0.0510
  132MOL   O14747569   7.448   2.000   3.562 -0.4478  0.2089 -0.4240
  132MOL   C14847570   7.300   2.184   3.497  0.1049  0.4677 -0.0770
  132MOL   C14947571   7.344   2.284   3.600 -0.5927  0.1924  0.0182
  132MOL   C15047572   7.225   2.382   3.628  0.0520  0.3141 -0.2590
  132MOL   C15147573   7.261   2.488   3.744  0.1102  0.1275 -0.3248
  132MOL   C15247574   7.363   2.596   3.703  0.4808  0.8900  1.5611
  132MOL   O15347575   7.417   2.656   3.819  0.1476 -0.1138  0.1416
  132MOL   H15447576   7.201   2.141   3.513  0.3481  0.2225  0.7789
  132MOL   H15547577   7.287   2.241   3.405 -0.1951  1.8335  0.8023
  132MOL   H15647578   7.442   2.331   3.590 -0.0279 -0.9634  0.0573
  132MOL   H15747579   7.367   2.230   3.692 -0.8466 -0.7226 -0.4505
  132MOL   H15847580   7.142   2.327   3.673 -0.1357 -0.8376 -1.9873
  132MOL   H15947581   7.190   2.421   3.533 -2.4108 -1.1846 -0.0046
  132MOL   H16047582   7.304   2.435   3.829 -0.0831  0.2610 -0.1431
  132MOL   H16147583   7.179   2.547   3.786 -0.4068  0.6032 -1.9597
  132MOL   H16247584   7.440   2.554   3.639  0.8284  1.0947  1.8487
  132MOL   H16347585   7.309   2.671   3.645  0.7415 -0.3873 -0.3644
  132MOL   C16447586   7.509   2.751   3.808  0.3433  0.2060 -0.3923
  132MOL   O16547587   7.556   2.798   3.703  0.5655  0.0016  0.2718
  132MOL   C16647588   7.569   2.792   3.936  0.0491 -0.7128  0.7714
  132MOL   C16747589   7.513   2.918   3.994 -0.1737 -0.4515 -0.4845
  132MOL   C16847590   7.545   2.940   4.141 -0.0474  0.0003  0.6089
  132MOL   C16947591   7.695   2.949   4.163 -0.5370  0.1516  0.6792
  132MOL   C17047592   7.736   2.954   4.310  0.7837 -0.6686  0.0002
  132MOL   O17147593   7.715   2.833   4.380 -0.2291  0.2679 -0.3317
  132MOL   H17247594   7.677   2.795   3.918 -0.1658 -0.7957 -0.6279
  132MOL   H17347595   7.566   2.707   4.004 -1.7834 -1.4577 -0.2086
  132MOL   H17447596   7.406   2.928   3.976 -0.4213  1.4033  1.8700
  132MOL   H17547597   7.547   3.013   3.950  3.0887 -0.6944  1.3810
  132MOL   H17647598   7.501   2.851   4.186  0.2918  0.7225  2.4175
  132MOL   H17747599   7.498   3.027   4.187 -0.3467  0.0084  0.2867
  132MOL   H17847600   7.715   3.043   4.112 -0.7706  0.0404  0.3835
  132MOL   H17947601   7.751   2.874   4.107 -0.4715  1.8314 -1.5818
  132MOL   H18047602   7.839   2.990   4.308  0.3956  0.4513  0.0280
  132MOL   H18147603   7.677   3.031   4.360  0.6483 -0.7037 -0.1068
  132MOL   C18247604   7.770   2.821   4.500  0.9403  0.0801  0.6268
  132MOL   O18347605   7.817   2.915   4.558 -0.0358  0.5508  0.4686
  132MOL   C18447606   7.759   2.676   4.552  0.4583 -0.5155  0.2568
  132MOL   C18547607   7.828   2.651   4.686 -0.1094 -0.3083  0.5532
  132MOL   C18647608   0.137   2.639   4.678 -0.9657  0.0321 -0.4407
  132MOL   C18747609   0.188   2.631   4.826 -0.1665 -0.7183  0.0096
  132MOL   C18847610   0.337   2.616   4.833 -0.0673 -0.4617 -0.1240
  132MOL   O18947611   0.410   2.687   4.727 -0.1343 -0.4699 -0.0431
  132MOL   H19047612   7.799   2.615   4.470  1.9132  0.2086  0.4071
  132MOL   H19147613   7.653   2.652   4.560  0.0704  1.3291  0.8524
  132MOL   H19247614   7.784   2.563   4.734 -3.0064  0.0561 -1.3551
  132MOL   H19347615   7.800   2.738   4.745 -3.0096 -1.4538  0.9519
  132MOL   H19447616   0.174   2.731   4.633 -2.6146  0.3859 -1.1309
  132MOL   H19547617   0.176   2.559   4.616 -2.3871  0.8888 -2.5380
  132MOL   H19647618   0.138   2.551   4.881  0.8511 -0.8660  0.7400
  132MOL   H19747619   0.147   2.718   4.879  1.5697 -0.7360  1.4262
  132MOL   H19847620   0.366   2.640   4.936 -0.1461 -1.9840  0.2667
  132MOL   H19947621   0.371   2.513   4.826 -0.2702 -0.5404  0.0204
  132MOL   C20047622   0.520   2.763   4.755 -0.1771 -0.1762  0.6421
  132MOL   O20147623   0.575   2.781   4.864 -0.1823  0.2099 -0.5268
  132MOL   C20247624   0.580   2.822   4.622  0.3705 -0.0347  0.2636
  132MOL   C20347625   0.615   2.727   4.504 -0.2216  0.2712 -0.5414
  132MOL   C20447626   0.720   2.625   4.558  0.6074 -0.0109 -0.5111
  132MOL   C20547627   0.777   2.530   4.457  0.4764  0.6214  0.3172
  132MOL   C20647628   0.679   2.427   4.395 -0.6280  0.4126 -0.0774
  132MOL   O20747629   0.754   2.338   4.317 -0.1997  0.0603  0.6195
  132MOL   H20847630   0.676   2.858   4.660 -0.2827  1.3389  0.6006
  132MOL   H20947631   0.513   2.900   4.587  1.2067 -0.0538 -1.4759
  132MOL   H21047632   0.654   2.778   4.415 -0.0535 -0.1486 -0.7088
  132MOL   H21147633   0.520   2.679   4.483 -0.8545  1.0680  0.4808
  132MOL   H21247634   0.682   2.560   4.637  0.6902 -0.7206 -1.0550
  132MOL   H21347635   0.795   2.688   4.607 -0.4836  1.7505 -1.0807
  132MOL   H21447636   0.868   2.480   4.492  0.2843 -0.0293 -0.0938
  132MOL   H21547637   0.825   2.588   4.378  0.1411  1.5485  0.7925
  132MOL   H21647638   0.636   2.366   4.474 -1.8162 -1.0575 -1.8275
  132MOL   H21747639   0.607   2.471   4.325 -0.8915 -1.4804 -1.0080
  132MOL   C21847640   0.697   2.238   4.250  0.3419  0.0615 -0.0778
  132MOL   O21947641   0.576   2.220   4.234  0.4595  0.3672  0.2161
  132MOL   C22047642   0.806   2.149   4.196  0.3333 -0.0375  0.5113
  132MOL   C22147643   0.751   2.031   4.124 -0.0143 -0.2537  0.3354
  132MOL   C22247644   0.697   1.913   4.216  0.1461  0.4892  0.3231
  132MOL   C22347645   0.809   1.857   4.300 -0.6802 -0.7963  0.3366
  132MOL   C22447646   0.765   1.746   4.398 -0.2057  0.0686 -0.4668
  132MOL   O22547647   0.879   1.711   4.472  0.2542 -0.3164 -0.3142
  132MOL   H22647648   0.869   2.130   4.283  2.0020  0.2729 -0.6170
  132MOL   H22747649   0.864   2.207   4.124 -0.7224  0.0045 -0.3164
  132MOL   H22847650   0.831   1.987   4.064 -0.5948 -1.4629  0.4370
  132MOL   H22947651   0.687   2.062   4.041 -0.0527  0.0842  0.4918
  132MOL   H23047652   0.664   1.825   4.162  1.6475 -0.0632  0.2610
  132MOL   H23147653   0.616   1.934   4.286  0.2119  0.2949  0.4601
  132MOL   H23247654   0.854   1.936   4.361  0.6414 -1.7456  0.6170
  132MOL   H23347655   0.881   1.822   4.226 -0.6322 -0.5089  0.2502
  132MOL   H23447656   0.690   1.782   4.469  0.0441 -0.3659  0.0274
  132MOL   H23547657   0.727   1.653   4.355  1.9893  0.6682 -3.8733
  132MOL   C23647658   0.868   1.638   4.583  0.2977  1.1110  0.3847
  132MOL   O23747659   0.767   1.574   4.615  0.1835 -0.3520  0.6265
  132MOL   C23847660   1.007   1.629   4.655  0.0146  0.0512 -0.1773
  132MOL   C23947661   0.989   1.670   4.801  0.7720 -0.4586 -0.4438
  132MOL   C24047662   1.103   1.630   4.893  0.0843  0.0195 -0.3351
  132MOL   C24147663   1.101   1.712   5.023  0.1832  0.2590  0.5585
  132MOL   C24247664   1.171   1.638   5.134 -0.0941 -0.4258  0.5998
  132MOL   O24347665   1.151   1.694   5.261 -0.0264  0.5140 -0.1721
  132MOL   H24447666   1.085   1.688   4.606 -0.6931 -0.0299 -1.4255
  132MOL   H24547667   1.039   1.525   4.658 -0.4322 -0.1347 -1.6379
  132MOL   H24647668   0.896   1.633   4.844  1.3071  0.2627  1.3741
  132MOL   H24747669   0.977   1.778   4.800  0.1916 -0.5206 -1.0275
  132MOL   H24847670   1.203   1.656   4.858  0.4461 -2.1940 -1.0519
  132MOL   H24947671   1.100   1.523   4.914  2.4085 -0.4147 -1.9394
  132MOL   H25047672   0.998   1.731   5.054  0.6972  2.7939  0.8435
  132MOL   H25147673   1.135   1.813   5.001 -0.4704  0.1451 -1.0168
  132MOL   H25247674   1.117   1.544   5.131 -2.5767  0.9236  1.4078
  132MOL   H25347675   1.272   1.604   5.111 -0.1828  0.0531 -0.5380
  132MOL   C25447676   1.228   1.794   5.301  0.4925 -0.4216 -0.0621
  132MOL   O25547677   1.337   1.827   5.258  0.3836 -0.0668 -0.7031
  132MOL   C25647678   1.163   1.866   5.422 -0.4329 -0.0473 -0.4300
  132MOL   C25747679   1.167   1.785   5.559  1.0744 -0.1474  0.2370
  132MOL   C25847680   1.305   1.784   5.630  0.6172  0.8220  1.0393
  132MOL   C25947681   1.312   1.700   5.755  0.3287  0.0773  0.3398
  132MOL   C26047682   1.450   1.686   5.820  0.2233  0.5319  0.3277
  132MOL   O26147683   1.509   1.808   5.864  0.4318 -0.3873  0.3813
  132MOL   H26247684   1.061   1.889   5.393 -0.2476  0.4190 -0.7122
  132MOL   H26347685   1.219   1.957   5.443 -0.1429 -0.1144 -0.8915
  132MOL   H26447686   1.152   1.680   5.531  1.5522 -0.1822  0.1206
  132MOL   H26547687   1.086   1.812   5.627  0.1893 -1.2917 -0.3227
  132MOL   H26647688   1.344   1.885   5.643  2.0954  0.6590 -1.7632
  132MOL   H26747689   1.379   1.740   5.563  0.4337  1.2798  0.5362
  132MOL   H26847690   1.271   1.602   5.730  0.8370  0.1289 -0.6925
  132MOL   H26947691   1.245   1.742   5.831  0.9764 -0.3899  1.1754
  132MOL   H27047692   1.441   1.608   5.895  2.1865 -0.0847 -0.0566
  132MOL   H27147693   1.513   1.645   5.741 -1.6441 -1.8580  0.0131
  132MOL   C27247694   1.538   1.824   5.998 -0.9816  0.2635 -1.0543
  132MOL   O27347695   1.529   1.740   6.089 -0.3794 -0.0525  0.5166
  132MOL   C27447696   1.574   1.963   6.042 -0.0007 -0.3041  0.2436
  132MOL   C27547697   1.599   2.067   5.928  0.4469 -0.1080 -0.2814
  132MOL   C27647698   1.486   2.114   5.837 -0.4096 -0.0143  0.6393
  132MOL   C27747699   1.351   2.142   5.904 -0.3366  0.3302  0.3869
  132MOL   C27847700   1.237   2.184   5.804 -0.6987 -0.2339 -0.1871
  132MOL   O27947701   1.287   2.291   5.719 -0.3466 -0.1937  0.0787
  132MOL   H28047702   1.662   1.940   6.103 -0.7107  0.8144  1.7379
  132MOL   H28147703   1.496   1.999   6.109  1.0295  0.2154  1.1959
  132MOL   H28247704   1.680   2.027   5.866  0.3631  0.7558 -0.9603
  132MOL   H28347705   1.647   2.153   5.974  2.4842 -1.6793  0.6750
  132MOL   H28447706   1.481   2.044   5.753 -1.2778 -1.0182  1.5099
  132MOL   H28547707   1.513   2.208   5.788  0.4420  0.1933  1.4909
  132MOL   H28647708   1.373   2.226   5.970  0.0924 -0.0907  0.7851
  132MOL   H28747709   1.326   2.056   5.966 -0.5497  1.1467  1.4560
  132MOL   H28847710   1.202   2.094   5.754 -2.0191  0.9395 -1.4190
  132MOL   H28947711   1.153   2.219   5.863 -0.9532 -3.1519  1.2386
  132MOL   C29047712   1.217   2.328   5.606  0.0810 -0.0706 -0.0198
  132MOL   O29147713   1.110   2.272   5.575 -0.8450  0.6280  0.6510
  132MOL   C29247714   1.291   2.440   5.533 -0.2778 -0.2695 -0.4561
  132MOL   C29347715   1.233   2.476   5.393  0.1338 -0.0525 -0.6022
  132MOL   C29447716   1.288   2.611   5.339  0.1342 -0.1794 -0.0651
  132MOL   C29547717   1.240   2.646   5.191  0.8295  0.5638 -0.0450
  132MOL   C29647718   1.256   2.796   5.153  0.0980  0.1875  0.1609
  132MOL   O29747719   1.398   2.813   5.129  0.3780  0.2517 -0.0884
  132MOL   H29847720   1.398   2.423   5.518  0.1488 -0.0196  2.1081
  132MOL   H29947721   1.294   2.521   5.605  2.4123 -2.7446  2.3688
  132MOL   H30047722   1.125   2.471   5.379  0.1187  1.7854 -1.3559
  132MOL   H30147723   1.266   2.397   5.326 -1.7313 -1.9067  0.6055
  132MOL   H30247724   1.397   2.614   5.348  0.1368 -1.6877  0.4200
  132MOL   H30347725   1.245   2.684   5.408  0.0745 -0.1053 -0.1807
  132MOL   H30447726   1.133   2.630   5.196  0.9905 -0.5833  0.0657
  132MOL   H30547727   1.279   2.579   5.115  1.7183 -0.7581  1.5197
  132MOL   H30647728   1.188   2.826   5.073  0.9928 -0.3536 -0.8152
  132MOL   H30747729   1.222   2.854   5.239 -3.3221  1.5497 -2.0254
  132MOL   C30847730   1.434   2.929   5.070 -0.3497 -0.3172 -0.4319
  132MOL   O30947731   1.362   3.002   5.010  0.1774  0.2752 -0.0627
  132MOL   C31047732   1.575   2.973   5.097 -0.4330  0.1764  0.6056
  132MOL   C31147733   1.639   2.945   5.234  0.1858  0.3553 -0.0388
  132MOL   C31247734   1.597   3.044   5.340  0.1121 -0.1887 -0.5626
  132MOL   C31347735   1.653   3.015   5.474 -0.3301 -0.1604  0.3675
  132MOL   C31447736   1.632   3.128   5.573  0.6718  0.0774 -0.2110
  132MOL   O31547737   1.501   3.109   5.621 -0.3455  0.4497  0.3704
  132MOL   H31647738   1.575   3.082   5.106  2.3085 -0.0522  5.1132
  132MOL   H31747739   1.636   2.936   5.015 -0.8500 -0.0214  0.3811
  132MOL   H31847740   1.748   2.944   5.228  0.3737 -0.5171  2.8001
  132MOL   H31947741   1.605   2.847   5.267 -0.3445  0.3811 -0.5019
  132MOL   H32047742   1.488   3.050   5.345  0.2337  2.0296 -0.1040
  132MOL   H32147743   1.631   3.144   5.315  0.3564 -0.2548 -0.4976
  132MOL   H32247744   1.758   2.993   5.455 -0.3433 -0.3220  0.4811
  132MOL   H32347745   1.613   2.925   5.519 -0.1270  0.6596  2.2559
  132MOL   H32447746   1.715   3.121   5.644  0.6593  1.0152 -0.1064
  132MOL   H32547747   1.636   3.228   5.530  0.0613  0.0289 -0.3867
  132MOL   C32647748   1.394   3.183   5.587 -0.8334 -0.1854  0.2930
  132MOL   O32747749   1.389   3.266   5.496  0.6510 -0.0605  0.0573
  132MOL   C32847750   1.274   3.152   5.684 -0.7347 -0.1194  0.0259
  132MOL   C32947751   1.155   3.123   5.604  0.5853 -0.0955  0.1779
  132MOL   C33047752   1.173   3.013   5.506  0.4301 -0.3921 -0.1753
  132MOL   C33147753   1.034   2.970   5.458  0.1468 -0.1970 -0.3143
  132MOL   C33247754   0.988   3.060   5.343  0.3486  0.7836 -0.0597
  132MOL   O33347755   0.858   3.013   5.304 -0.0488  0.3173 -0.3158
  132MOL   H33447756   1.246   3.224   5.761 -1.4041 -0.2157 -0.1192
  132MOL   H33547757   1.296   3.057   5.732  2.5918  0.2052 -0.7445
  132MOL   H33647758   1.121   3.211   5.549  1.9274  0.5714  0.3918
  132MOL   H33747759   1.069   3.114   5.670  0.9678  0.3534  0.7384
  132MOL   H33847760   1.208   2.925   5.558 -0.8579 -1.2785 -0.7697
  132MOL   H33947761   1.239   3.040   5.423  1.2363  0.4486  0.7296
  132MOL   H34047762   0.957   2.962   5.535  0.2815 -1.8123 -0.3413
  132MOL   H34147763   1.054   2.874   5.410  0.0837  0.7263 -2.2366
  132MOL   H34247764   0.962   3.161   5.375  0.9279  0.7748  0.4533
  132MOL   H34347765   1.069   3.064   5.271  0.1336 -2.2262 -0.5294
  132MOL   C34447766   0.843   2.917   5.201  0.3457  0.6356 -0.5424
  132MOL   O34547767   0.936   2.864   5.135 -0.0882  0.1920  0.1071
  132MOL   C34647768   0.696   2.887   5.165 -0.1459  0.6414 -0.2462
  132MOL   C34747769   0.621   2.831   5.279 -0.2715 -0.2628 -1.1082
  132MOL   C34847770   0.474   2.792   5.249  0.4671 -0.6719  0.1984
  132MOL   C34947771   0.410   2.716   5.370 -0.8253 -0.3217 -1.5415
  132MOL   C35047772   0.274   2.657   5.349 -0.2296 -0.3702 -0.2587
  132MOL   O35147773   0.172   2.763   5.340 -0.1735  0.1614  0.0389
  132MOL   H35247774   0.702   2.814   5.085 -1.2379 -1.3832  1.4726
  132MOL   H35347775   0.658   2.972   5.109  1.0633  0.5907 -1.1704
  132MOL   H35447776   0.609   2.904   5.359  1.7296 -0.4766 -0.5976
  132MOL   H35547777   0.676   2.748   5.322  0.5532  0.4897 -0.6938
  132MOL   H35647778   0.477   2.726   5.163  1.8410  1.6639 -1.6132
  132MOL   H35747779   0.410   2.876   5.224 -0.0112 -0.3667  2.3590
  132MOL   H35847780   0.406   2.787   5.453 -0.2460 -1.6108 -0.3814
  132MOL   H35947781   0.480   2.635   5.388  1.4270  1.7428 -0.8547
  132MOL   H36047782   0.263   2.582   5.270 -1.9049  0.2658 -0.6505
  132MOL   H36147783   0.253   2.615   5.447  1.0952  0.2163  0.2793
  132MOL   H36247784   0.173   2.794   5.251 -0.7860 -0.8967 -0.3416
  133MOL     C147785   3.579   2.222   1.982 -0.0969  0.1945 -0.2722
  133MOL     O247786   3.685   2.220   2.045 -0.0615 -1.5494  0.1971
  133MOL     C347787   3.551   2.341   1.895 -0.3755 -0.1663 -0.1697
  133MOL     C447788   3.672   2.424   1.850 -0.8375 -0.0258  0.1379
  133MOL     C547789   3.740   2.516   1.952 -0.1065 -0.7607  0.1470
  133MOL     C647790   3.841   2.604   1.877  0.3745 -0.1557  0.5684
  133MOL     C747791   3.896   2.731   1.947 -0.5717  0.3919 -0.5733
  133MOL     O847792   3.962   2.833   1.867  0.6446 -0.2544  0.1280
  133MOL     H947793   3.488   2.414   1.945 -0.8718 -0.1165 -0.8611
  133MOL    H1047794   3.507   2.305   1.802 -2.0247 -0.4115  0.6800
  133MOL    H1147795   3.642   2.487   1.766 -0.7293  0.7702  0.6842
  133MOL    H1247796   3.742   2.352   1.808 -1.3957 -0.9653  0.8035
  133MOL    H1347797   3.801   2.459   2.022 -0.0151 -0.7709  0.0616
  133MOL    H1447798   3.664   2.575   2.001 -0.5444  1.1311 -2.6545
  133MOL    H1547799   3.781   2.640   1.793  0.4196 -1.8452 -0.2003
  133MOL    H1647800   3.910   2.542   1.820 -2.2860  1.0919 -4.3038
  133MOL    H1747801   3.827   2.787   2.010  0.0352  0.2021  0.2797
  133MOL    H1847802   3.972   2.691   2.015  0.4399  0.4531 -1.6558
  133MOL    H1947803   3.514   2.135   1.986 -0.0946  0.2713  2.3035
  133MOL    C2047804   3.895   2.925   1.782  0.2856 -0.3346 -0.3656
  133MOL    O2147805   3.769   2.934   1.778  0.2707 -0.4815 -0.0795
  133MOL    C2247806   3.980   3.033   1.704  0.0838 -0.0507 -0.5081
  133MOL    C2347807   4.095   2.976   1.617 -0.1834 -0.2695 -0.3901
  133MOL    C2447808   4.047   2.878   1.513 -0.0258  0.5865  0.6509
  133MOL    C2547809   4.164   2.831   1.417  0.1099 -0.1797  0.3488
  133MOL    C2647810   4.103   2.741   1.301 -1.0682 -0.2049  0.2865
  133MOL    O2747811   4.207   2.698   1.209 -0.0715 -0.4458  0.4211
  133MOL    H2847812   4.017   3.104   1.778 -1.2151  1.3456 -1.1629
  133MOL    H2947813   3.910   3.081   1.635  0.3345  1.3912  0.2228
  133MOL    H3047814   4.160   2.916   1.681  1.2646 -0.0248 -1.5975
  133MOL    H3147815   4.170   3.040   1.570  0.4666 -1.7938 -1.4680
  133MOL    H3247816   3.971   2.926   1.451 -1.7109 -0.6716  1.6970
  133MOL    H3347817   4.005   2.785   1.551 -0.9918  0.5019 -0.5597
  133MOL    H3447818   4.240   2.772   1.469 -0.7563 -1.8389 -0.2411
  133MOL    H3547819   4.226   2.914   1.383 -0.7350  0.3910  0.1791
  133MOL    H3647820   4.053   2.650   1.335 -1.6772 -0.3217 -0.9101
  133MOL    H3747821   4.032   2.802   1.245  1.1028  0.4379 -1.8691
  133MOL    C3847822   4.175   2.616   1.109 -0.4562 -0.0722 -0.5299
  133MOL    O3947823   4.058   2.584   1.081  0.1469  0.9906 -0.4160
  133MOL    C4047824   4.297   2.564   1.038 -0.0319  0.3340 -1.0620
  133MOL    C4147825   4.281   2.545   0.884 -0.0780  0.3898 -0.3073
  133MOL    C4247826   4.394   2.458   0.835  0.1679 -0.4048 -0.6639
  133MOL    C4347827   4.370   2.314   0.888 -0.3286  0.4149 -0.5449
  133MOL    C4447828   4.457   2.210   0.814 -0.2687 -0.0102  0.3672
  133MOL    O4547829   4.594   2.250   0.810  0.6548 -0.3193 -0.0189
  133MOL    H4647830   4.327   2.477   1.096  1.2599  0.4662 -1.5091
  133MOL    H4747831   4.379   2.636   1.042  0.9345 -0.7689 -0.5314
  133MOL    H4847832   4.275   2.643   0.836 -0.5311  0.9227  0.8132
  133MOL    H4947833   4.185   2.495   0.876 -0.5738  1.1503  0.7706
  133MOL    H5047834   4.493   2.501   0.851 -1.0036  2.0848  0.1433
  133MOL    H5147835   4.377   2.449   0.727  2.6016 -1.7357 -0.9643
  133MOL    H5247836   4.271   2.272   0.873 -0.8246  1.0834  0.8260
  133MOL    H5347837   4.375   2.309   0.997 -0.1140  0.8165 -0.5391
  133MOL    H5447838   4.452   2.115   0.867 -0.7409 -0.2488 -0.1014
  133MOL    H5547839   4.418   2.187   0.715  0.6259  1.8618 -0.4444
  133MOL    C5647840   4.691   2.176   0.748 -0.6071  0.0113 -0.2500
  133MOL    O5747841   4.678   2.069   0.694  0.2048 -0.0941 -0.2289
  133MOL    C5847842   4.826   2.243   0.770  0.4131 -0.1969 -0.1243
  133MOL    C5947843   4.937   2.184   0.683 -0.3922 -0.8767 -0.1197
  133MOL    C6047844   5.064   2.274   0.674  0.7065 -0.1868 -0.9997
  133MOL    C6147845   5.183   2.221   0.598 -0.1765 -0.3064  0.1174
  133MOL    C6247846   5.303   2.316   0.614  0.1339  0.7162  0.2984
  133MOL    O6347847   5.413   2.253   0.553 -0.1186 -0.3099 -0.1186
  133MOL    H6447848   4.869   2.226   0.869  2.9557 -0.9766 -1.3222
  133MOL    H6547849   4.816   2.350   0.753  0.2241 -0.0882  0.6394
  133MOL    H6647850   4.907   2.172   0.579 -0.0199  1.1838 -0.4926
  133MOL    H6747851   4.969   2.090   0.728  0.1550 -1.6362 -2.0702
  133MOL    H6847852   5.100   2.296   0.774  1.4004 -2.2878 -0.7460
  133MOL    H6947853   5.028   2.367   0.631  0.3830 -0.1933 -0.7437
  133MOL    H7047854   5.163   2.207   0.491 -4.7185  2.7078  0.4500
  133MOL    H7147855   5.202   2.122   0.640  0.7947 -0.6202 -1.0334
  133MOL    H7247856   5.287   2.399   0.544  1.5011  0.4999 -0.2760
  133MOL    H7347857   5.309   2.364   0.712  0.7256  1.9015 -0.3142
  133MOL    C7447858   5.536   2.272   0.610 -0.5560  0.0336  0.3097
  133MOL    O7547859   5.557   2.340   0.709  0.1607  0.4333 -0.5710
  133MOL    C7647860   5.665   2.207   0.542  0.1648  0.3576  0.3576
  133MOL    C7747861   5.689   2.243   0.399 -0.3197  0.2198  0.3248
  133MOL    C7847862   5.717   2.398   0.378  0.5629  0.7761  0.1328
  133MOL    C7947863   5.801   2.428   0.258  0.7645  0.2033  0.1406
  133MOL    C8047864   5.852   2.564   0.268 -0.0222 -0.0134 -1.5631
  133MOL    O8147865   5.941   2.594   0.157  0.3298 -1.0354  0.0484
  133MOL    H8247866   5.655   2.100   0.556  2.8704  0.2453  1.8535
  133MOL    H8347867   5.758   2.218   0.597  1.7098 -2.4887 -1.5637
  133MOL    H8447868   5.616   2.202   0.330  1.1047  0.4187 -1.3440
  133MOL    H8547869   5.783   2.190   0.379 -0.7858 -0.5000  0.0192
  133MOL    H8647870   5.763   2.444   0.465  3.0602  0.4309 -0.9702
  133MOL    H8747871   5.614   2.434   0.370 -0.5921 -2.3267  0.2941
  133MOL    H8847872   5.750   2.423   0.162  0.6483 -0.4531  0.2352
  133MOL    H8947873   5.889   2.364   0.262  0.2934 -0.3048  3.8024
  133MOL    H9047874   5.776   2.642   0.262  0.0087  0.2881  1.4501
  133MOL    H9147875   5.907   2.591   0.358 -0.4972  3.8888 -2.3141
  133MOL    C9247876   5.964   2.731   0.142 -0.0464  0.2453 -0.1917
  133MOL    O9347877   5.947   2.829   0.215  0.2657 -0.1449 -0.1895
  133MOL    C9447878   6.009   2.756   7.841  0.8027  0.1747 -0.5545
  133MOL    C9547879   6.139   2.830   0.002 -0.3801  0.3319  0.2483
  133MOL    C9647880   6.225   2.823   7.714  0.1370  0.4295 -0.7913
  133MOL    C9747881   6.174   2.902   7.595  0.2040  0.0256 -0.0107
  133MOL    C9847882   6.260   2.897   7.471  0.8785  0.0081  0.1889
  133MOL    O9947883   6.382   2.959   7.504 -0.1966 -0.1435 -0.0245
  133MOL   H10047884   5.935   2.821   7.795  1.2150  0.9114 -0.1732
  133MOL   H10147885   6.032   2.665   7.785  0.4884 -0.8194  0.9097
  133MOL   H10247886   6.207   2.791   0.078  0.6965  1.4033 -0.1515
  133MOL   H10347887   6.124   2.935   0.030 -0.8139  1.1365 -2.7988
  133MOL   H10447888   6.234   2.717   7.688  1.0772  0.4481 -0.5572
  133MOL   H10547889   6.330   2.844   7.736  0.6137 -2.7556  0.2637
  133MOL   H10647890   6.174   3.008   7.623  3.7670  0.2612 -0.6904
  133MOL   H10747891   6.072   2.872   7.571 -0.5526  3.1925 -1.1266
  133MOL   H10847892   6.274   2.795   7.435  1.3092  0.5082 -1.0589
  133MOL   H10947893   6.208   2.947   7.390  2.7155  1.5722 -0.0641
  133MOL   C11047894   6.398   3.091   7.464  0.1979  0.3909 -0.0947
  133MOL   O11147895   6.312   3.162   7.415 -0.3236 -0.1706  0.0179
  133MOL   C11247896   6.537   3.141   7.496  0.3231 -0.0289 -0.1207
  133MOL   C11347897   6.573   3.159   7.644  0.7025 -0.1455  0.2210
  133MOL   C11447898   6.515   3.286   7.715 -0.1508 -0.8996  0.1618
  133MOL   C11547899   6.371   3.275   7.758  0.1493 -1.0389  0.3883
  133MOL   C11647900   6.352   3.366   0.039 -0.5633 -0.4002 -0.2904
  133MOL   O11747901   6.233   3.328   0.103 -0.1482  0.3919 -0.6835
  133MOL   H11847902   6.542   3.235   7.440 -0.7924 -1.0009 -1.9100
  133MOL   H11947903   6.610   3.076   7.446 -0.2328 -1.4130  0.8358
  133MOL   H12047904   6.679   3.178   7.631  0.8758 -2.3111 -1.7939
  133MOL   H12147905   6.556   3.064   7.695  0.1702 -0.4100 -0.4443
  133MOL   H12247906   6.523   3.374   7.651  0.3230 -1.2947 -0.3292
  133MOL   H12347907   6.575   3.313   7.802 -0.7782 -0.3406  0.4237
  133MOL   H12447908   6.344   3.173   7.785 -0.1829 -1.5233 -1.7505
  133MOL   H12547909   6.306   3.315   7.681 -0.8802 -1.5820  0.9728
  133MOL   H12647910   6.429   3.356   0.115 -1.2631 -1.9091  0.2278
  133MOL   H12747911   6.360   3.471   0.011 -0.2748 -0.3086  0.1307
  133MOL   C12847912   6.131   3.407   0.103  0.2127  0.2355  0.1527
  133MOL   O12947913   6.117   3.508   0.034 -0.6279  0.3379  1.2147
  133MOL   C13047914   6.021   3.367   0.205 -0.6494 -0.1023 -0.5639
  133MOL   C13147915   5.902   3.463   0.187 -0.1907  0.0853 -0.0976
  133MOL   C13247916   5.787   3.446   0.287 -0.1976 -0.4204  0.0706
  133MOL   C13347917   5.671   3.546   0.266 -0.0637  0.9913 -0.7540
  133MOL   C13447918   5.549   3.464   0.201 -0.1503 -0.6147 -0.8699
  133MOL   O13547919   5.497   3.373   0.300  0.0114  0.1268  0.5952
  133MOL   H13647920   6.050   3.359   0.310  1.3774  1.6224 -0.9486
  133MOL   H13747921   5.996   3.264   0.181 -0.8624  0.4397 -2.8369
  133MOL   H13847922   5.867   3.456   0.084  2.6657  1.8415 -1.2298
  133MOL   H13947923   5.947   3.562   0.197  0.1043 -0.1105  0.5086
  133MOL   H14047924   5.830   3.460   0.387 -0.4038 -0.4350  0.1621
  133MOL   H14147925   5.745   3.346   0.281 -2.2433  0.4893 -1.0690
  133MOL   H14247926   5.710   3.634   0.216  0.9438  0.6222 -0.6247
  133MOL   H14347927   5.630   3.575   0.363  0.4372 -2.2116  0.5001
  133MOL   H14447928   5.474   3.540   0.180  0.4323 -0.3282 -1.9181
  133MOL   H14547929   5.579   3.411   0.111 -0.0168 -1.9679 -0.0406
  133MOL   C14647930   5.392   3.306   0.291 -0.4533  0.8578 -0.3459
  133MOL   O14747931   5.304   3.317   0.204 -0.3016  0.6403 -0.0788
  133MOL   C14847932   5.372   3.212   0.408 -0.2574  0.8162  0.4836
  133MOL   C14947933   5.497   3.182   0.487  0.6865  0.5339 -0.2653
  133MOL   C15047934   5.545   3.291   0.592 -0.4448  0.0015  0.7380
  133MOL   C15147935   5.676   3.247   0.654 -0.3272 -0.4315 -0.9407
  133MOL   C15247936   5.726   3.355   0.767  0.0849 -0.6973 -0.1025
  133MOL   O15347937   5.640   3.355   0.874  0.0653  0.4559 -0.3970
  133MOL   H15447938   5.334   3.120   0.364 -1.3209  0.8743  1.2743
  133MOL   H15547939   5.298   3.248   0.479 -0.1571 -1.5485  1.8452
  133MOL   H15647940   5.582   3.157   0.423  0.0341 -2.5277  0.0095
  133MOL   H15747941   5.497   3.088   0.541 -2.9596  1.0047  0.6514
  133MOL   H15847942   5.476   3.288   0.677 -1.1939 -1.6830  0.0977
  133MOL   H15947943   5.552   3.392   0.551 -0.6144 -0.1958  0.2163
  133MOL   H16047944   5.742   3.236   0.568  0.0306  0.9343 -0.8440
  133MOL   H16147945   5.683   3.149   0.701 -1.4737  0.6802  1.6563
  133MOL   H16247946   5.828   3.331   0.797 -0.3113 -2.3021  0.0139
  133MOL   H16347947   5.733   3.449   0.712 -2.5126 -1.8309 -2.5172
  133MOL   C16447948   5.640   3.461   0.960  0.1183 -0.3292 -0.2553
  133MOL   O16547949   5.710   3.558   0.958 -0.5349 -0.0414 -0.0171
  133MOL   C16647950   5.530   3.437   1.063 -0.5261  0.4855  0.1618
  133MOL   C16747951   5.490   3.560   1.150  0.5464 -0.0093  0.5845
  133MOL   C16847952   5.406   3.655   1.075 -0.3693 -0.2270 -0.8509
  133MOL   C16947953   5.375   3.783   1.161 -0.2508 -0.5728  0.4087
  133MOL   C17047954   5.250   3.856   1.118  0.4458 -0.0503  0.2466
  133MOL   O17147955   5.236   3.879   0.981  0.4929 -0.5213  0.8111
  133MOL   H17247956   5.554   3.354   1.129 -0.5443  1.3044  1.2113
  133MOL   H17347957   5.443   3.398   1.011 -0.0160  0.4608 -0.6949
  133MOL   H17447958   5.583   3.599   1.192  0.0186  0.7119  1.0923
  133MOL   H17547959   5.432   3.516   1.231 -0.0687 -2.0995 -0.9641
  133MOL   H17647960   5.316   3.601   1.047 -0.7698  0.1217 -0.2559
  133MOL   H17747961   5.447   3.682   0.978  1.4202  0.4360  0.0646
  133MOL   H17847962   5.453   3.860   1.155 -0.3686 -0.5830 -1.2786
  133MOL   H17947963   5.364   3.750   1.264 -1.1036  0.2614  0.5900
  133MOL   H18047964   5.172   3.787   1.151  1.0247 -0.6289  0.4175
  133MOL   H18147965   5.239   3.952   1.169  3.9360 -0.0178  1.0369
  133MOL   C18247966   5.156   3.974   0.936  0.5127  0.1827  0.8257
  133MOL   O18347967   5.080   4.045   0.996  0.0201 -0.1253  0.2468
  133MOL   C18447968   5.168   3.991   0.783 -0.1390 -0.0649  0.3106
  133MOL   C18547969   5.041   3.949   0.711 -1.1508  0.1984 -0.1440
  133MOL   C18647970   5.029   3.796   0.688 -0.3010  0.1946  0.1609
  133MOL   C18747971   4.900   3.770   0.619  0.3701  0.5609 -0.0462
  133MOL   C18847972   4.861   3.619   0.600 -0.6544 -0.2481  0.9580
  133MOL   O18947973   4.956   3.552   0.524  0.0713  0.4094  0.0558
  133MOL   H19047974   5.263   3.958   0.740  0.8777  2.1932  0.7368
  133MOL   H19147975   5.181   4.099   0.785  1.1924 -0.2293  1.2842
  133MOL   H19247976   5.053   3.993   0.612  0.3101 -0.3987 -0.2537
  133MOL   H19347977   4.960   3.987   0.773 -0.8634  0.9404 -0.2162
  133MOL   H19447978   5.032   3.742   0.783 -2.2293  1.6019  1.0539
  133MOL   H19547979   5.118   3.776   0.629  2.0507  1.2465  3.2090
  133MOL   H19647980   4.897   3.824   0.524  1.7086  0.4431 -0.1703
  133MOL   H19747981   4.822   3.809   0.684 -0.5991  0.1070 -0.9412
  133MOL   H19847982   4.838   3.579   0.699  0.8129 -1.1564  0.9387
  133MOL   H19947983   4.766   3.608   0.547 -0.9031  0.3537  1.2800
  133MOL   C20047984   4.931   3.429   0.471  0.2377 -0.3387  0.1173
  133MOL   O20147985   4.822   3.374   0.485 -0.0782  0.1260 -0.1470
  133MOL   C20247986   5.052   3.363   0.412  0.2449  0.4582  0.1947
  133MOL   C20347987   5.017   3.217   0.376  0.0121  0.4462  0.3375
  133MOL   C20447988   5.012   3.117   0.497  0.1600  0.3006 -0.3512
  133MOL   C20547989   5.004   2.974   0.458  0.3367 -0.4520  0.4436
  133MOL   C20647990   4.904   2.915   0.357 -0.0597 -0.5456  0.3341
  133MOL   O20747991   4.944   2.784   0.325  0.4624  0.0007 -0.2902
  133MOL   H20847992   5.140   3.383   0.472 -0.8964  1.8484  1.4518
  133MOL   H20947993   5.077   3.413   0.319  0.5130 -1.2803 -0.6939
  133MOL   H21047994   5.095   3.182   0.308  0.2083  1.2126  0.1631
  133MOL   H21147995   4.934   3.205   0.307 -0.6049  0.6877  1.0354
  133MOL   H21247996   4.928   3.140   0.563 -0.2862  1.8582 -1.4336
  133MOL   H21347997   5.101   3.124   0.559  0.7658 -0.0365 -1.1620
  133MOL   H21447998   4.997   2.922   0.553  1.1348  1.1573  1.3910
  133MOL   H21547999   5.101   2.953   0.412  1.6355 -1.1283  3.4149
  133MOL   H21648000   4.802   2.908   0.395 -1.0878  2.4623 -1.7151
  133MOL   H21748001   4.900   2.968   0.262  0.6148  0.6228  0.9502
  133MOL   C21848002   4.882   2.676   0.367 -0.1229 -0.4351 -0.3099
  133MOL   O21948003   4.778   2.666   0.431  0.2294 -0.5576 -0.0323
  133MOL   C22048004   4.954   2.548   0.327 -0.3006  0.1569  0.0188
  133MOL   C22148005   5.107   2.552   0.338  0.1246 -0.1042 -0.2612
  133MOL   C22248006   5.178   2.425   0.287 -0.4421  0.2275 -0.0609
  133MOL   C22348007   5.327   2.452   0.281 -0.1417 -0.1309  0.1906
  133MOL   C22448008   5.397   2.345   0.196 -0.4912 -0.6377 -0.1327
  133MOL   O22548009   5.372   2.220   0.256 -0.2609  0.3418  0.3728
  133MOL   H22648010   4.926   2.528   0.224 -1.1523 -0.4840  0.3705
  133MOL   H22748011   4.907   2.466   0.382  1.0069 -1.2829 -0.9720
  133MOL   H22848012   5.130   2.565   0.444 -2.8568  1.0143  0.2747
  133MOL   H22948013   5.147   2.634   0.278 -0.7050 -0.3002 -1.0957
  133MOL   H23048014   5.148   2.404   0.185 -1.4643 -1.7525  0.6217
  133MOL   H23148015   5.155   2.334   0.342 -1.2709  1.0200  0.9304
  133MOL   H23248016   5.375   2.449   0.379  0.4647  0.5832 -0.0780
  133MOL   H23348017   5.342   2.551   0.237 -3.0868  0.7119  0.9612
  133MOL   H23448018   5.372   2.353   0.090 -1.5688  0.5697  0.2034
  133MOL   H23548019   5.504   2.365   0.198 -1.0254  2.7840 -2.4268
  133MOL   C23648020   5.363   2.112   0.178 -0.3197 -0.8246 -0.4979
  133MOL   O23748021   5.374   2.109   0.051  0.6876 -0.0227 -0.5319
  133MOL   C23848022   5.328   1.984   0.262 -1.0149 -0.0184 -0.0328
  133MOL   C23948023   5.448   1.902   0.291 -0.1036 -0.1195 -0.9584
  133MOL   C24048024   5.427   1.767   0.371  0.6708  0.0729  0.2765
  133MOL   C24148025   5.415   1.790   0.521 -0.6878  0.0765  0.3835
  133MOL   C24248026   5.396   1.656   0.584  0.3752 -0.9687 -0.5467
  133MOL   O24348027   5.508   1.568   0.564  0.3921  0.1747  0.5476
  133MOL   H24448028   5.255   1.932   0.200 -2.0296 -0.2109  1.3078
  133MOL   H24548029   5.277   2.014   0.353  1.7440  1.6820  1.0191
  133MOL   H24648030   5.519   1.964   0.345 -1.0239 -0.7780  1.0674
  133MOL   H24748031   5.503   1.878   0.200  1.6757  0.5033 -0.0747
  133MOL   H24848032   5.514   1.703   0.352  0.0778 -0.4866 -0.6364
  133MOL   H24948033   5.343   1.714   0.326  1.4044  0.6237 -1.8236
  133MOL   H25048034   5.334   1.858   0.548 -0.7177  1.0495 -2.0457
  133MOL   H25148035   5.497   1.846   0.566  1.4360 -1.8466 -1.0150
  133MOL   H25248036   5.378   1.666   0.691  0.9098 -2.5324 -0.2950
  133MOL   H25348037   5.303   1.613   0.548 -1.2222  1.5500  0.4387
  133MOL   C25448038   5.579   1.529   0.662  0.2562 -0.7617  0.3809
  133MOL   O25548039   5.562   1.530   0.784 -0.5223  0.3749  0.1185
  133MOL   C25648040   5.701   1.460   0.614 -0.4146  0.4352 -0.7227
  133MOL   C25748041   5.692   1.304   0.628  0.4507  0.4827  0.3939
  133MOL   C25848042   5.824   1.219   0.596  0.1727 -0.1512  0.1380
  133MOL   C25948043   5.796   1.068   0.597  0.2574  0.3222 -0.1616
  133MOL   C26048044   5.926   0.995   0.575 -0.5455  0.1884  0.3062
  133MOL   O26148045   5.969   1.025   0.437 -0.0894  0.1362  0.0803
  133MOL   H26248046   5.788   1.501   0.665 -0.6513 -1.0556  0.9445
  133MOL   H26348047   5.709   1.477   0.506  0.7080  1.9850 -0.4157
  133MOL   H26448048   5.618   1.274   0.554  1.6732  1.5696 -1.3034
  133MOL   H26548049   5.655   1.284   0.729 -4.2693  0.8885 -1.1475
  133MOL   H26648050   5.895   1.241   0.676  0.4010  1.3771 -0.4776
  133MOL   H26748051   5.852   1.256   0.498  2.3569 -1.0520  0.3853
  133MOL   H26848052   5.732   1.047   0.511 -1.8855  0.8849  1.2818
  133MOL   H26948053   5.743   1.029   0.683  3.1503 -2.0686  0.6251
  133MOL   H27048054   6.003   1.036   0.641 -0.6602  1.7703 -0.5187
  133MOL   H27148055   5.931   0.886   0.586 -2.4270  0.0646  0.0024
  133MOL   C27248056   5.973   0.929   0.341  0.3166 -0.3298  0.6719
  133MOL   O27348057   5.934   0.815   0.361  0.3692  0.3530  0.5813
  133MOL   C27448058   6.031   0.980   0.206  0.0325  0.1563  0.1209
  133MOL   C27548059   6.076   0.875   0.111  0.2329 -0.2317 -0.0903
  133MOL   C27648060   5.965   0.824   0.015  0.1620 -0.4241 -0.1831
  133MOL   C27748061   5.948   0.905   7.730  0.8440 -0.0583  0.0669
  133MOL   C27848062   5.876   0.817   7.631 -0.5538  0.3993  0.1190
  133MOL   O27948063   5.741   0.791   7.668 -0.0229 -0.2641 -0.1018
  133MOL   H28048064   6.121   1.030   0.241  1.0195 -1.5164  0.0541
  133MOL   H28148065   5.968   1.059   0.165 -1.9626 -1.1036  0.6962
  133MOL   H28248066   6.127   0.794   0.165  0.0286  0.4262  1.1073
  133MOL   H28348067   6.161   0.920   0.060 -0.9835  1.4626 -0.6238
  133MOL   H28448068   5.876   0.821   0.079 -0.2497 -0.7494 -0.7729
  133MOL   H28548069   5.988   0.721   7.834  0.0778 -0.6715  0.6963
  133MOL   H28648070   6.047   0.933   7.693  1.0703  2.2532  2.2996
  133MOL   H28748071   5.895   0.997   7.756 -2.4627 -1.2200 -2.1064
  133MOL   H28848072   5.885   0.870   7.536  2.0199 -1.3060 -0.6515
  133MOL   H28948073   5.925   0.720   7.615 -0.6629  0.3778 -0.0810
  133MOL   C29048074   5.651   0.734   7.594 -0.0868 -0.5558  0.2618
  133MOL   O29148075   5.655   0.697   7.477 -0.2436  0.1609 -0.0283
  133MOL   C29248076   5.527   0.709   7.677  0.1119  0.8800  0.2590
  133MOL   C29348077   5.433   0.602   7.608  0.4992 -0.1204  0.5065
  133MOL   C29448078   5.311   0.580   7.695  0.1154 -0.3467  0.0897
  133MOL   C29548079   5.224   0.458   7.648  0.3182  0.5799  0.2491
  133MOL   C29648080   5.102   0.415   7.733  0.0251 -0.0671 -0.5123
  133MOL   O29748081   5.042   0.307   7.665  0.6327 -0.6952 -0.7860
  133MOL   H29848082   5.471   0.802   7.684 -0.2609  0.4520  3.5459
  133MOL   H29948083   5.566   0.687   7.776 -1.3869  0.1343  0.6911
  133MOL   H30048084   5.490   0.510   7.619  0.9951  0.2567  1.2124
  133MOL   H30148085   5.399   0.610   7.505 -0.3269  1.1510  0.8607
  133MOL   H30248086   5.242   0.665   7.694  0.1007 -0.3632 -0.3180
  133MOL   H30348087   5.335   0.564   7.799 -2.0804  1.0853  0.8692
  133MOL   H30448088   5.287   0.369   7.639  0.0428  0.3756  0.3317
  133MOL   H30548089   5.196   0.472   7.544 -1.3530 -1.6228  0.3472
  133MOL   H30648090   5.128   0.388   7.835 -0.5051  1.4725  0.0332
  133MOL   H30748091   5.028   0.495   7.737  1.4748  1.3093 -0.5573
  133MOL   C30848092   4.910   0.269   7.704  0.2813 -0.2051 -0.7302
  133MOL   O30948093   4.844   0.331   7.786  0.0057 -0.4099 -0.6137
  133MOL   C31048094   4.865   0.135   7.637 -0.2920  0.2370 -0.0208
  133MOL   C31148095   4.726   0.086   7.687 -0.4632  0.4651  0.7146
  133MOL   C31248096   4.601   0.168   7.632  0.1747  0.0562  0.0682
  133MOL   C31348097   4.471   0.127   7.695 -0.4799  0.3732 -0.5642
  133MOL   C31448098   4.341   0.179   7.629 -0.2029 -0.0867 -0.6950
  133MOL   O31548099   4.304   0.106   7.506 -0.0669 -0.1169 -0.2638
  133MOL   H31648100   4.950   0.071   7.661 -0.1825 -0.1667 -1.4367
  133MOL   H31748101   4.856   0.148   7.529 -0.7058 -0.9677 -0.1400
  133MOL   H31848102   4.735   0.089   7.795 -0.7123  0.5693  0.7327
  133MOL   H31948103   4.711   7.825   7.661  1.7166 -0.0160  1.3413
  133MOL   H32048104   4.583   0.149   7.526 -1.8211  1.5477  0.1366
  133MOL   H32148105   4.611   0.274   7.652 -0.4269 -0.3669  2.8337
  133MOL   H32248106   4.479   0.180   7.790  0.8372 -0.9148  0.0662
  133MOL   H32348107   4.467   0.018   7.705 -0.5925  0.4067 -0.2416
  133MOL   H32448108   4.259   0.165   7.699 -0.7413  1.8187 -0.9189
  133MOL   H32548109   4.336   0.287   7.621  0.4559  0.1573  1.6849
  133MOL   C32648110   4.235   7.839   7.515  0.4768  0.4580 -0.1670
  133MOL   O32748111   4.207   7.773   7.614 -0.7581 -0.4097 -0.2755
  133MOL   C32848112   4.177   7.788   7.381 -0.2741  0.1717 -0.1527
  133MOL   C32948113   4.163   0.039   7.256  0.6948  0.0881  0.4386
  133MOL   C33048114   4.098   0.176   7.273 -0.4924 -0.1118  0.2412
  133MOL   C33148115   3.947   0.160   7.291 -0.2089  0.3878  0.0851
  133MOL   C33248116   3.871   0.290   7.306 -1.1906 -0.5584  0.3537
  133MOL   O33348117   3.728   0.262   7.314  0.2737 -0.1659  0.1080
  133MOL   H33448118   4.087   7.729   7.403  0.0369  0.0752  0.9225
  133MOL   H33548119   4.261   7.725   7.352  0.5470  0.1528  2.1336
  133MOL   H33648120   4.131   7.825   7.169 -0.1545 -1.4265  1.7273
  133MOL   H33748121   4.263   0.067   7.225  0.5857 -0.0443 -0.0445
  133MOL   H33848122   4.105   0.237   7.183 -1.9270  1.0083  0.8566
  133MOL   H33948123   4.142   0.243   7.348 -0.7716  0.2950  0.0461
  133MOL   H34048124   3.927   0.092   7.375 -0.9290 -1.2744 -1.4004
  133MOL   H34148125   3.906   0.111   7.203 -1.5084  1.5873  0.0117
  133MOL   H34248126   3.907   0.337   7.398 -3.0522  0.2901  0.6844
  133MOL   H34348127   3.888   0.347   7.214 -0.0901 -1.9781 -0.3302
  133MOL   C34448128   3.652   0.338   7.399 -0.4283  0.9835  0.1977
  133MOL   O34548129   3.683   0.434   7.472 -0.2657 -0.8063  0.3955
  133MOL   C34648130   3.509   0.292   7.402  0.1493  0.2409 -0.3851
  133MOL   C34748131   3.445   0.284   7.260  0.3511 -0.3346  0.2026
  133MOL   C34848132   3.362   0.407   7.220  0.4150  0.1444  0.1672
  133MOL   C34948133   3.447   0.536   7.191 -0.8981  0.3029  0.1464
  133MOL   C35048134   3.365   0.663   7.151  0.2228 -0.6131 -0.0487
  133MOL   O35148135   3.291   0.649   7.029 -0.2943 -0.0297  0.0439
  133MOL   H35248136   3.450   0.349   7.474  2.4771  0.0618  1.7388
  133MOL   H35348137   3.522   0.195   7.449  0.8224  1.9547  3.1185
  133MOL   H35448138   3.381   0.195   7.253  0.5506 -0.4203 -0.5803
  133MOL   H35548139   3.514   0.274   7.177 -1.4021  1.1110 -1.4650
  133MOL   H35648140   3.290   0.430   7.298  0.2725  0.3199 -0.0143
  133MOL   H35748141   3.298   0.381   7.136  0.4602 -0.3031  0.2727
  133MOL   H35848142   3.520   0.513   7.114 -0.3499  1.5592  0.2887
  133MOL   H35948143   3.492   0.550   7.290  2.5574  1.9691 -1.5976
  133MOL   H36048144   3.307   0.695   7.238 -2.1326 -1.5069 -1.2187
  133MOL   H36148145   3.437   0.744   7.140 -1.1772  0.4527 -1.6197
  133MOL   H36248146   3.351   0.674   6.960  2.3484 -0.1813  2.1738
  134MOL     C148147   7.343   4.241   1.006  0.0077  0.4702 -0.7336
  134MOL     O248148   7.393   4.232   0.896 -0.7763  0.0657  0.6857
  134MOL     C348149   7.203   4.179   1.024 -0.5488 -0.5723 -0.3269
  134MOL     C448150   7.155   4.170   1.171  0.8645 -0.3771  0.3290
  134MOL     C548151   7.265   4.112   1.261  0.7604  0.3019 -0.2357
  134MOL     C648152   7.215   4.075   1.400 -0.7324 -0.0179  0.1011
  134MOL     C748153   7.342   4.025   1.481 -0.3130 -0.1459  0.0845
  134MOL     O848154   7.438   4.125   1.510  0.2758  0.1165  0.0298
  134MOL     H948155   7.202   4.077   0.985 -0.3923 -0.4870 -0.5531
  134MOL    H1048156   7.137   4.249   0.973  2.4902  0.8452 -2.3999
  134MOL    H1148157   7.076   4.095   1.171  1.0924 -0.7327 -3.3619
  134MOL    H1248158   7.103   4.258   1.210  1.6589  0.4131 -0.3598
  134MOL    H1348159   7.344   4.185   1.277  1.6781 -0.4907 -1.0754
  134MOL    H1448160   7.307   4.024   1.213 -0.4632  0.4261 -1.5610
  134MOL    H1548161   7.170   3.976   1.389  1.7988 -1.1049 -1.0647
  134MOL    H1648162   7.156   4.146   1.457  0.8035 -0.7259  2.6478
  134MOL    H1748163   7.316   3.982   1.578  1.1035  1.3636  1.1543
  134MOL    H1848164   7.404   3.948   1.433  1.0806  1.2324 -0.3721
  134MOL    H1948165   7.373   4.295   1.096 -0.2656 -0.9598  0.2321
  134MOL    C2048166   7.418   4.211   1.602 -0.0291  0.4781 -0.0753
  134MOL    O2148167   7.313   4.235   1.659  0.5214  0.5166  0.0209
  134MOL    C2248168   7.541   4.296   1.638 -0.0025  0.1120 -1.0033
  134MOL    C2348169   7.559   4.424   1.561  0.0334  0.4041  0.2704
  134MOL    C2448170   7.667   4.419   1.441  0.0722 -0.6511 -0.4914
  134MOL    C2548171   7.659   4.550   1.358  0.0958  0.8826  0.2149
  134MOL    C2648172   7.780   4.591   1.273  0.3874 -0.2834 -0.0168
  134MOL    O2748173   7.821   4.498   1.174 -0.3544 -0.1820  0.2145
  134MOL    H2848174   7.631   4.238   1.619  0.6382  1.3679 -1.8862
  134MOL    H2948175   7.540   4.311   1.746 -1.2893 -0.8272 -0.8702
  134MOL    H3048176   7.574   4.504   1.633 -1.4459  0.8000  0.1602
  134MOL    H3148177   7.460   4.457   1.528  0.6699  1.0632 -0.9999
  134MOL    H3248178   7.664   4.330   1.377  1.4231 -1.2667  0.2802
  134MOL    H3348179   7.769   4.413   1.478 -0.3762 -0.2134  0.8256
  134MOL    H3448180   7.631   4.625   1.433  0.5565 -2.0595  3.4505
  134MOL    H3548181   7.564   4.542   1.305 -0.4470 -2.0978  1.5042
  134MOL    H3648182   7.754   4.686   1.226 -1.2742 -0.8549 -0.3215
  134MOL    H3748183   0.022   4.599   1.339  1.1222  3.2385 -1.3108
  134MOL    C3848184   7.769   4.486   1.050 -0.4037 -0.3961 -0.1022
  134MOL    O3948185   7.673   4.548   0.997 -0.0818 -0.6108 -0.1888
  134MOL    C4048186   0.002   4.387   0.969  0.0259 -0.0311  0.2670
  134MOL    C4148187   7.768   4.251   0.938  0.0093  0.1889 -0.9436
  134MOL    C4248188   7.748   4.157   1.055 -0.1847  0.1470  0.3362
  134MOL    C4348189   7.669   4.032   1.015  0.0914 -0.0033  0.5580
  134MOL    C4448190   7.640   3.935   1.134  0.0274  0.1378 -0.6024
  134MOL    O4548191   7.530   3.856   1.112  0.3716 -0.0859 -0.1213
  134MOL    H4648192   0.094   4.362   1.021  1.2664  1.9310 -0.9219
  134MOL    H4748193   0.029   4.430   0.873 -2.7854 -1.9752 -1.4831
  134MOL    H4848194   7.822   4.193   0.863  1.3468 -0.4880  0.5028
  134MOL    H4948195   7.674   4.279   0.890  0.9292  0.5424 -2.5950
  134MOL    H5048196   7.703   4.204   1.142 -0.6568  1.4076 -0.5769
  134MOL    H5148197   7.840   4.121   1.100 -1.3776 -1.0183  1.8997
  134MOL    H5248198   7.717   3.981   0.931  0.4695 -0.9315  1.3287
  134MOL    H5348199   7.578   4.064   0.965  0.3772 -0.3718 -0.2065
  134MOL    H5448200   7.718   3.874   1.179 -0.4844 -0.5072 -0.5897
  134MOL    H5548201   7.605   3.992   1.220 -0.2186 -1.2862  0.2536
  134MOL    C5648202   7.494   3.775   1.212  0.3766 -0.5462  0.4931
  134MOL    O5748203   7.553   3.758   1.321  0.5150  0.2284 -0.6188
  134MOL    C5848204   7.366   3.694   1.180 -0.0419 -0.5012  0.0548
  134MOL    C5948205   7.298   3.631   1.304  0.6950 -0.3913 -0.2250
  134MOL    C6048206   7.190   3.527   1.287 -0.6166 -0.0454 -0.3800
  134MOL    C6148207   7.062   3.559   1.213  0.2138  0.0027  0.3971
  134MOL    C6248208   6.973   3.445   1.192 -0.1515 -0.5161 -0.1539
  134MOL    O6348209   6.901   3.416   1.311 -0.0677 -0.4027  0.0092
  134MOL    H6448210   7.412   3.618   1.117  1.8992  1.7999 -1.3787
  134MOL    H6548211   7.287   3.744   1.124 -0.1302  1.5508  1.9367
  134MOL    H6648212   7.249   3.719   1.346 -1.0521 -0.8347 -1.2468
  134MOL    H6748213   7.371   3.603   1.380  0.7606 -0.7247 -0.4121
  134MOL    H6848214   7.167   3.484   1.385 -0.2159 -3.3239 -1.6336
  134MOL    H6948215   7.244   3.445   1.240  0.3451  0.8809 -0.9027
  134MOL    H7048216   7.069   3.606   1.114  1.8921  0.3749  0.6719
  134MOL    H7148217   6.996   3.630   1.262 -2.3550 -0.7516 -1.8168
  134MOL    H7248218   6.905   3.464   1.109  2.1611 -1.7957 -2.4171
  134MOL    H7348219   7.037   3.364   1.157 -0.2390 -0.9137  0.6187
  134MOL    C7448220   6.821   3.313   1.305 -0.0681 -0.5571  0.2790
  134MOL    O7548221   6.814   3.228   1.214  0.4314  0.1987  0.3874
  134MOL    C7648222   6.730   3.310   1.426  0.0278  0.7069 -0.2469
  134MOL    C7748223   6.798   3.276   1.569 -0.1378  0.4380 -0.0524
  134MOL    C7848224   6.733   3.339   1.702 -0.7266 -0.6883 -0.1520
  134MOL    C7948225   6.634   3.241   1.756 -0.6283 -0.0749 -0.4421
  134MOL    C8048226   6.568   3.281   1.890  0.2756 -0.2584  0.3289
  134MOL    O8148227   6.502   3.410   1.874 -0.3791  0.1708  0.0726
  134MOL    H8248228   6.649   3.243   1.397  0.7665 -0.3682  0.1459
  134MOL    H8348229   6.689   3.410   1.438  0.5236  1.0279 -1.1908
  134MOL    H8448230   6.900   3.313   1.580  0.8986 -2.1607 -0.4886
  134MOL    H8548231   6.804   3.170   1.593  0.4628  0.2695 -0.9218
  134MOL    H8648232   6.676   3.430   1.680  0.3277  0.5924  2.2411
  134MOL    H8748233   6.812   3.359   1.774 -0.1220 -1.8527 -0.4795
  134MOL    H8848234   6.689   3.149   1.774  0.7946  0.8224 -0.0838
  134MOL    H8948235   6.557   3.218   1.683  0.5341 -0.8881 -1.4365
  134MOL    H9048236   6.505   3.199   1.923 -0.2227 -1.6465 -3.7825
  134MOL    H9148237   6.662   3.298   1.943 -0.5901  0.6631  1.5942
  134MOL    C9248238   6.368   3.427   1.906 -0.1963  0.0199  0.8734
  134MOL    O9348239   6.291   3.335   1.936 -0.4353 -0.6277  0.7260
  134MOL    C9448240   6.333   3.576   1.887  1.1485  0.2596  0.4479
  134MOL    C9548241   6.391   3.650   1.766  0.8942  0.1461  0.0764
  134MOL    C9648242   6.353   3.797   1.756 -0.2115  0.1205 -0.5358
  134MOL    C9748243   6.204   3.799   1.711  0.6056  0.0020  0.6870
  134MOL    C9848244   6.149   3.946   1.709 -0.1728  0.7622 -0.3013
  134MOL    O9948245   6.120   3.992   1.838 -0.0564  0.2279 -0.2380
  134MOL   H10048246   6.368   3.616   1.982  0.0248 -1.6564  1.6931
  134MOL   H10148247   6.224   3.578   1.885  1.1020 -1.7746  0.0237
  134MOL   H10248248   6.366   3.599   1.674 -3.6399 -0.4858  1.5545
  134MOL   H10348249   6.500   3.655   1.773  0.7756  1.4570  1.3548
  134MOL   H10448250   6.421   3.845   1.686 -0.7778  0.9378 -0.5285
  134MOL   H10548251   6.376   3.858   1.844 -1.7448 -0.7652  0.5053
  134MOL   H10648252   6.134   3.746   1.775  0.1634 -0.2910 -0.0241
  134MOL   H10748253   6.198   3.766   1.607  0.0104  0.1271  0.6795
  134MOL   H10848254   6.214   4.019   1.661 -0.4626  0.4246 -1.2143
  134MOL   H10948255   6.061   3.952   1.645 -1.3113  1.0383  1.2618
  134MOL   C11048256   5.990   3.993   1.882 -0.2574 -0.3220  0.1683
  134MOL   O11148257   5.896   3.948   1.811 -0.4066 -0.3835  0.3395
  134MOL   C11248258   5.969   4.032   2.028 -0.2572 -0.2661 -0.4568
  134MOL   C11348259   5.990   4.182   2.043  0.4286  0.2002 -0.2339
  134MOL   C11448260   5.972   4.230   2.184  0.4363 -0.0644 -0.2194
  134MOL   C11548261   5.967   4.380   2.206  0.6502  0.5610 -0.5091
  134MOL   C11648262   5.964   4.415   2.356 -0.5087 -1.2073  0.9726
  134MOL   O11748263   6.079   4.381   2.425  0.0848 -0.0338 -0.4979
  134MOL   H11848264   6.037   3.978   2.093 -0.5643 -0.0948  0.0101
  134MOL   H11948265   5.870   3.999   2.058  0.3864  0.5853  2.8275
  134MOL   H12048266   5.919   4.236   1.980 -0.2933 -0.8701 -0.3360
  134MOL   H12148267   6.094   4.204   2.019  0.8898 -0.6852  0.9085
  134MOL   H12248268   6.049   4.180   2.244 -0.7307  0.2994  1.6112
  134MOL   H12348269   5.879   4.185   2.219 -1.4783  2.8442 -1.4368
  134MOL   H12448270   5.869   4.413   2.170  0.4742 -1.0914 -1.6376
  134MOL   H12548271   6.046   4.426   2.146  0.9136  1.2219  0.3290
  134MOL   H12648272   5.949   4.523   2.358  1.7010 -0.8584  0.2871
  134MOL   H12748273   5.875   4.362   2.390 -2.1838  0.6189 -0.4659
  134MOL   C12848274   6.091   4.427   2.551 -0.1165 -0.4238 -0.6427
  134MOL   O12948275   6.016   4.510   2.611  0.6767 -0.3551  0.1668
  134MOL   C13048276   6.208   4.363   2.632 -0.2995 -0.1749  0.5119
  134MOL   C13148277   6.171   4.234   2.703  0.4628 -0.2641  0.2618
  134MOL   C13248278   6.089   4.260   2.831 -0.0621  1.1712 -0.4607
  134MOL   C13348279   6.102   4.136   2.920  0.1302  0.6579  0.6280
  134MOL   C13448280   6.068   4.000   2.859 -0.4423 -0.4468  0.0917
  134MOL   O13548281   6.065   3.912   2.965  0.0316  0.3352 -0.3299
  134MOL   H13648282   6.239   4.444   2.699  0.7423  1.2605 -1.6368
  134MOL   H13748283   6.279   4.339   2.553  0.2194 -1.7503  1.4279
  134MOL   H13848284   6.269   4.190   2.722 -0.1127 -1.1509  1.1826
  134MOL   H13948285   6.102   4.179   2.640 -0.6422  0.0262  1.1948
  134MOL   H14048286   5.985   4.288   2.815 -0.2011  0.2917 -1.1181
  134MOL   H14148287   6.135   4.349   2.875 -0.0203  0.9864 -0.1330
  134MOL   H14248288   6.051   4.142   3.016  2.9503 -0.3668  2.2277
  134MOL   H14348289   6.202   4.153   2.960  0.5568  0.2116 -0.2181
  134MOL   H14448290   5.969   4.005   2.815  0.5673 -1.6475 -2.4638
  134MOL   H14548291   6.143   3.974   2.784  0.5646  1.6543  0.3119
  134MOL   C14648292   6.009   3.795   2.930  0.8197  0.5646 -0.0966
  134MOL   O14748293   5.958   3.769   2.820 -0.4246 -0.1878 -0.6754
  134MOL   C14848294   6.011   3.688   3.046 -0.9733 -0.3012 -0.9728
  134MOL   C14948295   5.874   3.623   3.076  1.8122 -0.4012  0.4254
  134MOL   C15048296   5.775   3.719   3.137  0.5759  0.2292  0.1787
  134MOL   C15148297   5.645   3.640   3.174 -0.1576 -0.7579 -0.5664
  134MOL   C15248298   5.518   3.724   3.225 -0.2005  1.0655  0.2374
  134MOL   O15348299   5.560   3.801   3.340 -0.9171  0.3540  0.0135
  134MOL   H15448300   6.042   3.752   3.128  0.2414 -0.7239 -1.0822
  134MOL   H15548301   6.091   3.614   3.039  1.0312  1.7861 -0.7306
  134MOL   H15648302   5.890   3.533   3.136 -1.0745 -1.8380 -0.8817
  134MOL   H15748303   5.841   3.585   2.980  1.8681 -0.6686  0.5098
  134MOL   H15848304   5.744   3.788   3.059 -2.8961 -0.3996  0.9327
  134MOL   H15948305   5.812   3.780   3.219  0.9931 -0.2049  0.3189
  134MOL   H16048306   5.669   3.562   3.247 -2.4248 -0.8899  0.0848
  134MOL   H16148307   5.604   3.596   3.083  0.6157 -0.5106 -1.0329
  134MOL   H16248308   5.498   3.803   3.152 -0.7292 -0.8249 -1.7095
  134MOL   H16348309   5.424   3.669   3.236  0.8864 -1.1836 -1.1733
  134MOL   C16448310   5.557   3.750   3.458  0.1618  0.0372 -0.1404
  134MOL   O16548311   5.524   3.636   3.489 -0.7919  0.1863 -0.6876
  134MOL   C16648312   5.599   3.849   3.560 -0.5429  0.6800  0.5588
  134MOL   C16748313   5.589   3.797   3.706  0.5508  0.1685  0.3736
  134MOL   C16848314   5.625   3.901   3.807 -0.4220 -0.0807 -0.4536
  134MOL   C16948315   5.768   3.969   3.780 -0.1803  0.2742  0.3748
  134MOL   C17048316   5.825   4.025   3.914  0.6142 -0.1109 -0.4155
  134MOL   O17148317   5.955   4.053   3.901  0.0162 -0.3651  0.1805
  134MOL   H17248318   5.537   3.936   3.540 -1.1674 -0.1294 -1.1553
  134MOL   H17348319   5.701   3.873   3.531 -1.0783 -0.8281 -2.7339
  134MOL   H17448320   5.670   3.724   3.710  0.1592 -0.4204 -1.7593
  134MOL   H17548321   5.496   3.744   3.725  0.7711 -0.6816 -0.8299
  134MOL   H17648322   5.629   3.849   3.902  2.2890  0.4126 -0.2536
  134MOL   H17748323   5.549   3.979   3.799 -0.1022  0.1241 -1.7112
  134MOL   H17848324   5.762   4.036   3.695  1.9901  1.7820  1.3791
  134MOL   H17948325   5.828   3.886   3.743  1.1137  1.5983 -0.5238
  134MOL   H18048326   5.774   4.119   3.935 -0.1982 -0.8650  1.0021
  134MOL   H18148327   5.809   3.955   3.995 -1.7941 -2.7847 -3.0730
  134MOL   C18248328   6.022   4.127   3.989 -0.3778 -0.4514  0.7759
  134MOL   O18348329   5.976   4.176   4.092 -0.2189  0.9593  0.0194
  134MOL   C18448330   6.167   4.147   3.945  0.1732 -0.3540  0.6340
  134MOL   C18548331   6.277   4.087   4.028 -0.5306 -0.7112 -0.1518
  134MOL   C18648332   6.262   3.937   4.032  0.2516  0.7582 -0.1518
  134MOL   C18748333   6.313   3.879   3.901 -0.1426  0.2125  0.2495
  134MOL   C18848334   6.348   3.728   3.908 -0.2204 -0.1464 -0.0249
  134MOL   O18948335   6.413   3.686   4.024  0.5004  0.6784  0.0755
  134MOL   H19048336   6.187   4.253   3.933  1.1487 -0.4955  0.9320
  134MOL   H19148337   6.170   4.105   3.845 -0.3751 -0.0906  0.5043
  134MOL   H19248338   6.274   4.123   4.131 -0.2666 -2.0694  0.3378
  134MOL   H19348339   6.379   4.112   3.999 -0.4675 -0.9596 -0.1487
  134MOL   H19448340   6.160   3.901   4.047  0.0474  0.6093 -1.8133
  134MOL   H19548341   6.320   3.896   4.114 -3.8169 -0.5814  2.2223
  134MOL   H19648342   6.403   3.930   3.867 -0.9290 -0.6446 -3.2924
  134MOL   H19748343   6.242   3.909   3.824  0.3763 -0.3665 -0.4551
  134MOL   H19848344   6.252   3.676   3.901  0.9636 -2.4200  0.1126
  134MOL   H19948345   6.399   3.693   3.818  0.2736 -1.9444  0.9385
  134MOL   C20048346   6.533   3.622   4.022 -0.2274  0.4168 -0.1272
  134MOL   O20148347   6.591   3.582   3.918  0.5489  0.0402 -0.6827
  134MOL   C20248348   6.589   3.594   4.167 -0.0313 -0.1205  0.1661
  134MOL   C20348349   6.599   3.726   4.253 -0.1514  0.5647 -0.0821
  134MOL   C20448350   6.721   3.807   4.240  0.7856 -0.4133  0.5491
  134MOL   C20548351   6.732   3.883   4.109  0.0320  0.6022  0.3118
  134MOL   C20648352   6.834   4.000   4.117  0.3026 -0.7126  0.1780
  134MOL   O20748353   6.820   4.079   3.999 -0.6336 -0.4169 -0.0532
  134MOL   H20848354   6.690   3.561   4.144 -0.4002  0.3973 -2.3902
  134MOL   H20948355   6.540   3.509   4.213  1.3006 -1.0538 -0.1089
  134MOL   H21048356   6.575   3.697   4.355 -1.1535  0.5419 -0.3191
  134MOL   H21148357   6.513   3.789   4.229  0.3584  0.7933 -1.3536
  134MOL   H21248358   6.812   3.751   4.260  1.5384  0.6915  0.2699
  134MOL   H21348359   6.711   3.879   4.320  1.9467  1.0208 -0.5726
  134MOL   H21448360   6.633   3.923   4.084 -0.2359 -0.4569 -0.3573
  134MOL   H21548361   6.757   3.815   4.028 -0.6275 -0.7982  1.2715
  134MOL   H21648362   6.818   4.055   4.210 -0.9350  0.4745 -0.7038
  134MOL   H21748363   6.932   3.954   4.116  0.6613  0.0721 -1.2817
  134MOL   C21848364   6.912   4.175   3.974  0.2364  0.1883  1.1925
  134MOL   O21948365   7.002   4.198   4.048 -0.1450  0.1179 -0.1236
  134MOL   C22048366   6.886   4.259   3.848  0.5489  0.0680 -1.0848
  134MOL   C22148367   6.983   4.377   3.829 -0.1773 -0.2400  0.2356
  134MOL   C22248368   6.966   4.449   3.701 -0.1820 -1.0603 -0.0587
  134MOL   C22348369   7.087   4.547   3.660 -0.6075 -0.5563 -0.9497
  134MOL   C22448370   7.078   4.600   3.515  0.0874 -0.3344 -0.4938
  134MOL   O22548371   7.083   4.507   3.409  0.0983  0.0952  0.4853
  134MOL   H22648372   6.783   4.293   3.851  0.4366 -0.3321 -0.0246
  134MOL   H22748373   6.907   4.198   3.760 -0.4939 -1.4779 -0.2764
  134MOL   H22848374   7.085   4.337   3.827 -0.2582 -0.4438 -3.8116
  134MOL   H22948375   6.985   4.448   3.911  1.6037 -3.0292  2.6867
  134MOL   H23048376   6.867   4.495   3.695 -0.4723 -1.7559 -0.6254
  134MOL   H23148377   6.976   4.373   3.624  2.1239 -0.6949 -0.1637
  134MOL   H23248378   7.184   4.497   3.670  0.1245  0.7882 -1.2200
  134MOL   H23348379   7.094   4.627   3.733  1.6224 -2.2305  0.7620
  134MOL   H23448380   6.991   4.666   3.503 -1.8585 -2.8727 -0.7022
  134MOL   H23548381   7.170   4.656   3.498  0.6846 -1.6506 -1.6357
  134MOL   C23648382   7.071   4.547   3.283 -0.1152  0.2998  0.4532
  134MOL   O23748383   7.056   4.657   3.235  0.2167  0.5903  0.2493
  134MOL   C23848384   7.068   4.424   3.189  0.1411 -0.0756  0.7606
  134MOL   C23948385   7.066   4.455   3.033 -0.0914 -0.1339  0.7539
  134MOL   C24048386   6.932   4.512   2.988  0.3525 -0.2019 -0.3847
  134MOL   C24148387   6.925   4.556   2.842 -1.1149 -0.4916 -0.0681
  134MOL   C24248388   6.780   4.589   2.792 -0.0869 -0.7164  0.3507
  134MOL   O24348389   6.782   4.663   2.671 -0.1394  0.2016  0.6362
  134MOL   H24448390   6.990   4.356   3.220 -1.0710  0.6934 -0.5517
  134MOL   H24548391   7.163   4.376   3.213  0.4392 -0.5015 -1.2183
  134MOL   H24648392   7.082   4.357   2.989 -0.1664  0.4169 -0.4989
  134MOL   H24748393   7.145   4.516   2.989  0.3439 -1.2254  0.0293
  134MOL   H24848394   6.910   4.596   3.053 -0.8213 -0.4394 -0.4713
  134MOL   H24948395   6.846   4.449   3.007  0.5677 -0.3342  0.1564
  134MOL   H25048396   6.977   4.480   2.783  0.2764  0.0073  0.5016
  134MOL   H25148397   6.975   4.652   2.833 -2.0729  0.1666  1.2976
  134MOL   H25248398   6.718   4.501   2.778 -0.9571  0.0588 -0.7877
  134MOL   H25348399   6.727   4.648   2.867  0.6575  1.4728 -0.7783
  134MOL   C25448400   6.807   4.607   2.553  0.1509  0.4187  0.0737
  134MOL   O25548401   6.853   4.492   2.536  0.3209  0.1651  0.1102
  134MOL   C25648402   6.793   4.703   2.440  0.5374  0.2992 -0.3098
  134MOL   C25748403   6.649   4.757   2.426 -0.1964  0.6601 -0.1165
  134MOL   C25848404   6.635   4.861   2.324 -0.1280  0.5217  0.2755
  134MOL   C25948405   6.757   4.959   2.321 -0.6144 -0.6167  0.6437
  134MOL   C26048406   6.727   5.086   2.231  0.0793 -0.4499 -0.0594
  134MOL   O26148407   6.720   5.038   2.100  0.5447 -0.3243 -0.4540
  134MOL   H26248408   6.830   4.655   2.349 -0.3616  0.9654 -1.0356
  134MOL   H26348409   6.866   4.781   2.460 -0.4677  1.1497  0.0808
  134MOL   H26448410   6.616   4.788   2.525 -0.0163 -0.2935  0.2513
  134MOL   H26548411   6.581   4.672   2.409  1.9112 -1.5181  1.9394
  134MOL   H26648412   6.541   4.916   2.331 -0.0991  0.4497  1.3253
  134MOL   H26748413   6.625   4.813   2.228  2.6465  0.4976 -0.0607
  134MOL   H26848414   6.843   4.909   2.279 -0.6060 -1.0592  1.1830
  134MOL   H26948415   6.794   4.987   2.420  0.1904  4.7583 -0.9876
  134MOL   H27048416   6.648   5.140   2.282  0.9214  1.2691 -0.5360
  134MOL   H27148417   6.805   5.162   2.224 -0.3432  0.0115  0.2871
  134MOL   C27248418   6.616   5.080   2.023 -0.1582  0.0711 -0.9897
  134MOL   O27348419   6.525   5.153   2.053 -0.0131 -0.9648 -0.4005
  134MOL   C27448420   6.615   5.005   1.887 -0.4511 -0.1120  0.4804
  134MOL   C27548421   6.630   4.850   1.897 -0.2680 -0.1487  0.2420
  134MOL   C27648422   6.578   4.782   1.771 -0.9314  0.0734  0.2145
  134MOL   C27748423   6.654   4.816   1.648 -0.4037 -0.0489  0.7551
  134MOL   C27848424   6.597   4.760   1.519 -0.1571 -0.0344  0.6496
  134MOL   O27948425   6.696   4.706   1.436 -0.1106  0.4925  0.5548
  134MOL   H28048426   6.694   5.060   1.836 -0.3730 -2.5224 -2.0797
  134MOL   H28148427   6.525   5.028   1.830  0.3234  0.0553 -0.6939
  134MOL   H28248428   6.578   4.818   1.988 -0.5706  0.3400  0.2436
  134MOL   H28348429   6.734   4.835   1.927  0.1386  2.2705  0.1740
  134MOL   H28448430   6.478   4.818   1.749 -1.4998 -0.3663  1.9533
  134MOL   H28548431   6.568   4.674   1.784  0.5083  0.1119  1.8440
  134MOL   H28648432   6.754   4.772   1.652 -1.1992 -2.0619 -0.4459
  134MOL   H28748433   6.674   4.923   1.635  1.6296 -0.3718  1.0458
  134MOL   H28848434   6.516   4.690   1.539  0.6665 -0.6216  2.0481
  134MOL   H28948435   6.549   4.841   1.465 -0.3134 -1.5322 -1.5279
  134MOL   C29048436   6.673   4.692   1.306 -0.5543 -0.7042 -0.3745
  134MOL   O29148437   6.575   4.681   1.244  0.2227 -0.2523  0.2174
  134MOL   C29248438   6.807   4.704   1.231  0.2570  0.2730 -0.0508
  134MOL   C29348439   6.788   4.769   1.088 -0.2082 -0.7357 -0.1180
  134MOL   C29448440   6.922   4.797   1.015  0.3738  0.4528  0.3990
  134MOL   C29548441   6.903   4.907   0.912 -0.5382  0.5962  0.3726
  134MOL   C29648442   7.026   4.929   0.823 -0.6525  0.0494 -0.4956
  134MOL   O29748443   7.131   4.985   0.899  0.3209  0.1612  0.0169
  134MOL   H29848444   6.857   4.607   1.229 -2.6228 -1.2380 -1.9747
  134MOL   H29948445   6.880   4.763   1.285 -0.2079 -0.8092  1.7858
  134MOL   H30048446   6.723   4.853   1.109 -2.1092 -1.7967 -1.5399
  134MOL   H30148447   6.735   4.708   1.014  0.1665 -2.0333  0.6641
  134MOL   H30248448   6.957   4.704   0.970  0.1641  0.9852 -0.8670
  134MOL   H30348449   6.992   4.836   1.089  0.3945 -1.0946  1.2129
  134MOL   H30448450   6.886   5.002   0.963 -1.0896  0.0545  1.2204
  134MOL   H30548451   6.809   4.897   0.857  0.1504 -1.8480 -0.4201
  134MOL   H30648452   7.058   4.837   0.775 -1.5236 -0.8194  0.5563
  134MOL   H30748453   7.000   5.009   0.754 -0.1770  2.5473  2.0896
  134MOL   C30848454   7.233   5.037   0.827 -1.1793 -0.0093 -0.5208
  134MOL   O30948455   7.238   5.053   0.707  0.8647 -0.1656 -0.1737
  134MOL   C31048456   7.337   5.099   0.928 -0.3663  0.3039 -0.5170
  134MOL   C31148457   7.473   5.095   0.869  0.0087 -0.8509  0.1349
  134MOL   C31248458   7.526   4.955   0.842 -0.7720 -0.2189  0.4723
  134MOL   C31348459   7.668   4.941   0.788  0.1005  0.0338  0.1732
  134MOL   C31448460   7.717   4.795   0.781 -0.3096 -0.1618 -0.3478
  134MOL   O31548461   7.831   4.789   0.699  0.0673  1.2113 -0.2073
  134MOL   H31648462   7.340   5.029   1.011 -1.5909  2.9001  1.7970
  134MOL   H31748463   7.298   5.194   0.966 -2.5782 -1.2450  1.2222
  134MOL   H31848464   7.545   5.163   0.916 -2.1866  1.3788  0.3937
  134MOL   H31948465   7.459   5.130   0.767  0.3511  0.5471  0.5472
  134MOL   H32048466   7.462   4.899   0.774 -0.8596  0.8609 -0.3414
  134MOL   H32148467   7.519   4.911   0.941 -1.5952 -1.6087 -0.1925
  134MOL   H32248468   7.740   5.008   0.835 -0.5679  0.1871  0.9919
  134MOL   H32348469   7.669   4.964   0.681 -0.0893  1.6614  0.5029
  134MOL   H32448470   7.748   4.771   0.882 -3.2658  0.8389  0.8798
  134MOL   H32548471   7.638   4.723   0.757  1.1346 -1.9087  0.1074
  134MOL   C32648472   0.013   4.676   0.638 -0.4107  0.1348  0.0860
  134MOL   O32748473   7.809   4.564   0.658 -0.3450 -0.0404  0.6044
  134MOL   C32848474   0.117   4.688   0.527  0.4793  0.4741  0.0017
  134MOL   C32948475   0.093   4.797   0.426 -0.2773 -0.4438 -1.1208
  134MOL   C33048476   7.804   4.781   0.355 -0.1655 -0.1536  0.4943
  134MOL   C33148477   7.779   4.877   0.247  0.5505 -0.7263  0.4796
  134MOL   C33248478   7.637   4.863   0.195  1.0070 -0.0882  0.7159
  134MOL   O33348479   7.543   4.863   0.300 -0.0489 -0.5432  0.0250
  134MOL   H33448480   0.138   4.591   0.482 -2.3819 -0.8006  1.3284
  134MOL   H33548481   0.213   4.719   0.568  2.0335 -0.6685 -2.6268
  134MOL   H33648482   0.158   4.769   0.343  1.1186  0.9737 -0.5401
  134MOL   H33748483   0.101   4.896   0.472  1.3095 -0.7516 -0.7263
  134MOL   H33848484   7.724   4.791   0.428  0.6141 -0.9633  1.4756
  134MOL   H33948485   7.785   4.681   0.317 -0.6134 -0.2007  0.8387
  134MOL   H34048486   0.011   4.852   0.173  0.2131 -1.2294  0.3036
  134MOL   H34148487   7.792   4.980   0.282 -1.7332  0.1691 -1.1796
  134MOL   H34248488   7.611   4.938   0.121 -1.2099  1.0023  2.5415
  134MOL   H34348489   7.639   4.774   0.131 -0.0995 -0.9017  1.7939
  134MOL   C34448490   7.482   4.968   0.340  0.0747 -0.6132  0.0788
  134MOL   O34548491   7.504   5.084   0.294 -0.2024 -1.1735 -0.7761
  134MOL   C34648492   7.371   4.947   0.442  0.7298  0.2281  0.4095
  134MOL   C34748493   7.271   4.835   0.399  0.1894 -0.3181  0.7704
  134MOL   C34848494   7.239   4.832   0.249  0.4757 -0.7044  0.2855
  134MOL   C34948495   7.144   4.725   0.215  0.0936 -0.0189 -0.3080
  134MOL   C35048496   7.107   4.714   0.076 -0.1938 -0.4312  0.6639
  134MOL   O35148497   7.214   4.703   7.828 -0.0782  0.2979  0.1135
  134MOL   H35248498   7.308   5.035   0.441  1.3085  0.6676  1.6924
  134MOL   H35348499   7.415   4.926   0.540  2.7467 -1.6626 -0.8314
  134MOL   H35448500   7.188   4.830   0.470 -2.3929 -0.5711 -2.1362
  134MOL   H35548501   7.323   4.740   0.412  1.7119  0.4471  0.4133
  134MOL   H35648502   7.328   4.812   0.189  0.4009 -0.1383 -0.0159
  134MOL   H35748503   7.205   4.930   0.216 -0.1073 -0.2663  2.1204
  134MOL   H35848504   7.066   4.722   0.290 -0.2286 -1.0063 -0.6632
  134MOL   H35948505   7.207   4.640   0.240 -0.4943 -0.0908  0.9430
  134MOL   H36048506   7.048   4.622   0.075 -1.0187  0.0981 -0.0110
  134MOL   H36148507   7.049   4.800   0.043 -0.5367 -1.3085 -1.0737
  134MOL   H36248508   7.261   4.782   7.810 -0.3409  0.7265  1.2360
  135MOL     C148509   3.900   6.877   1.730 -0.1357  0.3680 -0.3433
  135MOL     O248510   3.828   6.919   1.639  0.2049  0.3722  0.1482
  135MOL     C348511   3.904   6.954   1.861 -0.3703  0.3605  0.6264
  135MOL     C448512   3.758   6.983   1.914 -0.8463  0.4300 -0.4417
  135MOL     C548513   3.761   7.116   1.994  0.6638 -0.6583 -0.5316
  135MOL     C648514   3.623   7.154   2.056 -0.1071  0.5827  0.3376
  135MOL     C748515   3.627   7.261   2.166 -0.4022  0.1887 -0.0720
  135MOL     O848516   3.657   7.389   2.122 -0.1636  0.0513  0.4730
  135MOL     H948517   3.946   7.049   1.829 -1.1449  0.3155 -0.5367
  135MOL    H1048518   3.973   6.908   1.933 -0.7228 -0.4721  0.4423
  135MOL    H1148519   3.723   6.897   1.971  4.0702 -0.9626  0.6926
  135MOL    H1248520   3.684   6.989   1.835  0.5751 -0.4969 -1.8740
  135MOL    H1348521   3.809   7.191   1.932 -1.3494  0.1380 -1.1780
  135MOL    H1448522   3.828   7.085   2.074 -2.4566  0.4531  2.6673
  135MOL    H1548523   3.573   7.075   2.111  1.0641 -0.3266  0.1325
  135MOL    H1648524   3.545   7.173   1.983  0.4287 -0.5650 -0.5433
  135MOL    H1748525   3.531   7.274   2.215 -0.0138 -0.6147  0.9393
  135MOL    H1848526   3.694   7.225   2.245 -1.6314 -0.7450  0.5662
  135MOL    H1948527   3.954   6.783   1.742  1.7214  1.4956  0.5444
  135MOL    C2048528   3.729   7.467   2.204 -0.4532 -0.2149  0.1279
  135MOL    O2148529   3.733   7.452   2.330 -0.2546 -0.0149  0.0072
  135MOL    C2248530   3.809   7.574   2.127 -0.4195 -0.6092  0.0170
  135MOL    C2348531   3.907   7.519   2.020  0.6786 -0.6753  0.4040
  135MOL    C2448532   4.003   7.412   2.070  0.3521  0.0411 -0.1392
  135MOL    C2548533   4.096   7.355   1.959 -0.8105  0.4971  0.3530
  135MOL    C2648534   4.229   7.311   2.026  0.3713  0.1927 -0.1179
  135MOL    O2748535   4.198   7.201   2.104 -0.2429 -0.3934 -0.3196
  135MOL    H2848536   3.876   7.631   2.192  0.3024 -1.1494 -0.2446
  135MOL    H2948537   3.736   7.632   2.071 -1.0732 -1.2049  0.2454
  135MOL    H3048538   3.945   7.609   1.972 -0.1953 -1.4253 -1.7797
  135MOL    H3148539   3.855   7.480   1.933  2.7061 -1.9655 -0.2675
  135MOL    H3248540   3.945   7.330   2.110  1.0268 -0.8284 -0.9276
  135MOL    H3348541   4.059   7.448   2.156  0.8852 -0.7673 -0.1468
  135MOL    H3448542   4.116   7.438   1.892 -4.0628  0.7343 -0.4479
  135MOL    H3548543   4.059   7.272   1.898  0.6429  0.5869 -0.6736
  135MOL    H3648544   4.301   7.282   1.950  0.5025  0.6312 -0.1632
  135MOL    H3748545   4.269   7.395   2.083  1.0062 -0.7747  0.8961
  135MOL    C3848546   4.244   7.078   2.064  0.8841  0.8219 -0.0834
  135MOL    O3948547   4.280   7.047   1.951 -0.3906 -0.3182  0.4169
  135MOL    C4048548   4.239   6.974   2.171  0.2110 -0.1004 -0.2005
  135MOL    C4148549   4.091   6.945   2.215  0.6576  0.4164  0.1780
  135MOL    C4248550   4.092   6.869   2.358 -0.6105 -0.0041 -0.4620
  135MOL    C4348551   3.951   6.846   2.407  0.0565 -1.3151 -0.5015
  135MOL    C4448552   3.940   6.772   2.544  0.8523  0.0705 -0.1394
  135MOL    O4548553   3.804   6.741   2.582  0.2524  0.2419  0.2416
  135MOL    H4648554   4.303   7.003   2.253  0.5270 -0.3384 -0.3614
  135MOL    H4748555   4.279   6.877   2.140 -1.5051 -0.3719 -1.6894
  135MOL    H4848556   4.041   6.876   2.147 -0.1895  0.7721  0.4276
  135MOL    H4948557   4.027   7.033   2.221  0.9776  0.7976 -1.9430
  135MOL    H5048558   4.146   6.923   2.435 -1.0278 -1.7949  1.1240
  135MOL    H5148559   4.156   6.784   2.336 -0.0947  0.2021  0.2334
  135MOL    H5248560   3.905   6.792   2.324 -1.6286  0.7182 -0.9308
  135MOL    H5348561   3.899   6.941   2.412  1.7397 -0.3841 -0.0432
  135MOL    H5448562   3.987   6.674   2.538  1.0095  0.1723 -0.6531
  135MOL    H5548563   3.975   6.833   2.627  2.7636 -0.5541 -0.4620
  135MOL    C5648564   3.757   6.621   2.555  0.1185  0.3235  0.7972
  135MOL    O5748565   3.815   6.529   2.492 -0.2327 -0.6840 -0.6190
  135MOL    C5848566   3.620   6.607   2.615  0.0986 -0.2990  0.3088
  135MOL    C5948567   3.625   6.596   2.764 -0.2317  0.0761  0.8499
  135MOL    C6048568   3.682   6.466   2.821 -0.1388 -0.4337  0.1102
  135MOL    C6148569   3.660   6.456   2.978  0.5111  0.8384 -0.8271
  135MOL    C6248570   3.690   6.314   3.032  0.2138  0.3538 -0.5092
  135MOL    O6348571   3.830   6.303   3.039  0.0345  0.6918 -0.3129
  135MOL    H6448572   3.568   6.524   2.567 -1.1549  0.2345  0.7183
  135MOL    H6548573   3.551   6.686   2.585  0.5775 -0.7839 -2.1209
  135MOL    H6648574   3.520   6.609   2.790 -0.5997 -1.6149  0.2584
  135MOL    H6748575   3.674   6.681   2.811 -0.3781  1.9459 -2.2058
  135MOL    H6848576   3.791   6.462   2.817 -0.2402 -1.3677 -2.4330
  135MOL    H6948577   3.654   6.376   2.766 -1.5151 -0.4277  0.7699
  135MOL    H7048578   3.554   6.460   3.005  0.3500 -1.5114 -1.0013
  135MOL    H7148579   3.719   6.535   3.024  0.3231 -0.6862  2.1701
  135MOL    H7248580   3.644   6.282   3.125 -0.4913  4.6265  0.6939
  135MOL    H7348581   3.656   6.245   2.955  2.2746 -2.9228  1.4120
  135MOL    C7448582   3.891   6.347   3.146  0.2107  0.6938 -0.2406
  135MOL    O7548583   3.834   6.397   3.246  0.1327  0.1852 -0.0174
  135MOL    C7648584   4.042   6.326   3.151 -0.2177  0.1181 -0.7359
  135MOL    C7748585   4.131   6.445   3.117 -0.0643  0.4192  0.2083
  135MOL    C7848586   4.073   6.563   3.033  0.0759 -0.4798 -0.1794
  135MOL    C7948587   4.186   6.658   2.982  0.1724  0.6533 -0.6626
  135MOL    C8048588   4.147   6.767   2.881  0.2095  0.0107  0.4769
  135MOL    O8148589   4.278   6.825   2.838  0.4416  0.6200 -0.2870
  135MOL    H8248590   4.066   6.252   3.075  0.1903 -0.0946 -0.3978
  135MOL    H8348591   4.069   6.281   3.246 -0.4030  0.4582 -0.5181
  135MOL    H8448592   4.217   6.407   3.061 -1.5786 -0.9232 -1.2847
  135MOL    H8548593   4.176   6.483   3.208 -2.4100  1.2461  1.0681
  135MOL    H8648594   4.005   6.627   3.088  1.7346 -0.0661  1.4392
  135MOL    H8748595   4.017   6.520   2.950 -1.7843  0.3132  0.6407
  135MOL    H8848596   4.261   6.591   2.941 -1.2173 -0.2534 -1.8029
  135MOL    H8948597   4.226   6.719   3.063  0.5585  0.8317 -0.9858
  135MOL    H9048598   4.088   6.736   2.794  4.2645 -1.1582 -2.0345
  135MOL    H9148599   4.089   6.847   2.926  1.4281  0.9026  0.5147
  135MOL    C9248600   4.263   6.917   2.742  0.0296  0.9909 -0.3141
  135MOL    O9348601   4.159   6.952   2.691  0.1171  0.3298 -0.0901
  135MOL    C9448602   4.390   6.973   2.689  0.2250 -0.3255  0.0879
  135MOL    C9548603   4.426   7.105   2.743 -0.4839 -0.1468 -0.3935
  135MOL    C9648604   4.507   7.095   2.867  0.5690  0.4540 -0.0199
  135MOL    C9748605   4.555   7.227   2.929  0.2758  0.1533 -0.3047
  135MOL    C9848606   4.677   7.218   3.023  0.3373 -0.3352  0.4173
  135MOL    O9948607   4.687   7.335   3.106  0.4106 -0.1895  0.0879
  135MOL   H10048608   4.380   6.979   2.580  1.5353 -0.6113 -0.0506
  135MOL   H10148609   4.468   6.898   2.697 -0.8594 -1.3886  0.8819
  135MOL   H10248610   4.341   7.171   2.761 -1.1034 -0.8870 -0.5563
  135MOL   H10348611   4.502   7.150   2.679  1.0421 -1.3892  0.5236
  135MOL   H10448612   4.600   7.042   2.849  0.3819  0.4966 -1.1312
  135MOL   H10548613   4.440   7.054   2.943 -0.8369  0.6301 -1.1582
  135MOL   H10648614   4.474   7.284   2.974  0.1024  0.0165 -0.4436
  135MOL   H10748615   4.592   7.292   2.850 -2.0622  0.5564 -1.0988
  135MOL   H10848616   4.669   7.136   3.094 -2.2069  0.2766  0.8942
  135MOL   H10948617   4.765   7.214   2.958 -1.1247 -0.3368 -1.6403
  135MOL   C11048618   4.802   7.363   3.159 -0.4092  0.1664  0.2490
  135MOL   O11148619   4.909   7.299   3.157  0.3841  0.4305 -0.2865
  135MOL   C11248620   4.794   7.492   3.232 -0.9416  0.3888 -0.5623
  135MOL   C11348621   4.873   7.606   3.171 -0.3004  0.3871 -0.2637
  135MOL   C11448622   4.785   7.683   3.075 -0.5529 -0.2901 -0.4587
  135MOL   C11548623   4.842   7.824   3.048  0.0741 -0.4361  0.5491
  135MOL   C11648624   4.967   7.823   2.954  0.7691 -0.5542  0.3879
  135MOL   O11748625   4.927   7.804   2.822  0.7000  0.5796 -0.1434
  135MOL   H11848626   4.827   7.467   3.333 -2.7227  4.2863  1.0813
  135MOL   H11948627   4.691   7.522   3.251 -1.3714 -1.3157 -0.0396
  135MOL   H12048628   4.959   7.566   3.119 -0.9683 -0.9435 -0.3709
  135MOL   H12148629   4.903   7.675   3.250 -0.6342 -0.0824  0.2817
  135MOL   H12248630   4.681   7.693   3.108 -0.5503 -0.0429 -0.5282
  135MOL   H12348631   4.776   7.623   2.984  0.7669 -1.0911 -0.0677
  135MOL   H12448632   4.869   0.019   3.146 -0.3057  2.2580 -0.3738
  135MOL   H12548633   4.768   0.049   3.007  0.8929 -0.6555 -1.3605
  135MOL   H12648634   5.010   0.078   2.968  0.5006 -0.1132 -1.7079
  135MOL   H12748635   5.042   7.747   2.974 -0.0614 -0.9252  2.1785
  135MOL   C12848636   5.012   7.789   2.726  0.8969 -0.5520  0.6064
  135MOL   O12948637   5.130   7.756   2.745 -0.3340  0.0860 -0.5349
  135MOL   C13048638   4.941   7.795   2.584 -0.1444  0.0949 -0.1740
  135MOL   C13148639   5.023   7.827   2.456  0.7304  0.7348 -0.4394
  135MOL   C13248640   5.145   7.738   2.426 -0.4402  0.3132  0.0597
  135MOL   C13348641   5.219   7.775   2.295 -0.0952  0.5366  0.6004
  135MOL   C13448642   5.352   7.704   2.258  0.0479  0.1590 -0.2791
  135MOL   O13548643   5.397   7.728   2.124 -0.4527  0.1935  0.1482
  135MOL   H13648644   4.860   0.023   2.591 -0.3366 -0.0836 -0.5182
  135MOL   H13748645   4.891   7.699   2.568 -0.2938  0.3963 -1.5505
  135MOL   H13848646   5.050   0.088   2.452  1.4151  0.5686 -0.2201
  135MOL   H13948647   4.957   7.802   2.372  1.3608 -0.7529 -0.5032
  135MOL   H14048648   5.125   7.632   2.442  2.9101 -0.1007  1.9968
  135MOL   H14148649   5.228   7.757   2.494  0.2757 -1.4326 -0.3121
  135MOL   H14248650   5.224   0.039   2.296 -0.1636  0.6088 -2.5973
  135MOL   H14348651   5.154   7.735   2.217 -1.7798 -0.9294  2.6851
  135MOL   H14448652   5.429   7.739   2.327  1.3995 -0.3341 -1.5064
  135MOL   H14548653   5.348   7.596   2.273  0.6878  0.1352 -0.2549
  135MOL   C14648654   5.391   7.635   2.035  0.5409 -1.1246  0.1011
  135MOL   O14748655   5.322   7.535   2.042  0.1190 -0.1202  0.0464
  135MOL   C14848656   5.453   7.678   1.900  0.3211  0.9886  0.4154
  135MOL   C14948657   5.350   7.727   1.805  0.1721 -0.6441 -0.4191
  135MOL   C15048658   5.293   0.022   1.822 -0.3652  0.5760  0.2367
  135MOL   C15148659   5.384   0.139   1.784  0.3859  0.0818 -0.1844
  135MOL   C15248660   5.310   0.269   1.806 -0.5215 -0.1959 -0.4158
  135MOL   O15348661   5.185   0.267   1.734  0.2470  0.8479 -0.0248
  135MOL   H15448662   5.481   7.590   1.842  0.6170  0.3866  1.4690
  135MOL   H15548663   5.526   7.759   1.909  0.6006  0.8976 -0.8760
  135MOL   H15648664   5.264   7.660   1.813 -1.4340  1.3428 -0.3907
  135MOL   H15748665   5.396   7.709   1.709  1.0487 -0.7571  0.0210
  135MOL   H15848666   5.267   0.035   1.927 -1.1089 -0.5862  0.2078
  135MOL   H15948667   5.198   0.016   1.769  0.1574 -3.5292 -0.4397
  135MOL   H16048668   5.405   0.120   1.679 -3.3129 -1.4826 -0.6858
  135MOL   H16148669   5.477   0.136   1.841  0.5047 -2.8791 -0.4357
  135MOL   H16248670   5.293   0.303   1.908 -2.3324  1.7466 -1.3482
  135MOL   H16348671   5.366   0.350   1.758  0.0832 -1.6715 -2.2876
  135MOL   C16448672   5.184   0.301   1.605  0.0514 -0.5714  0.3021
  135MOL   O16548673   5.282   0.312   1.531  0.1472  0.1905  0.0691
  135MOL   C16648674   5.050   0.328   1.549 -0.0308  0.2157  0.0018
  135MOL   C16748675   4.980   0.206   1.482 -0.0560 -0.3878  0.4566
  135MOL   C16848676   4.920   0.100   1.574  0.6303  0.0620 -1.0825
  135MOL   C16948677   4.792   0.141   1.659 -0.7370  0.6200 -0.0600
  135MOL   C17048678   4.662   0.178   1.576 -0.1557 -0.1177 -0.0106
  135MOL   O17148679   4.631   0.069   1.494 -0.1059 -0.4206 -0.2667
  135MOL   H17248680   5.069   0.399   1.468  1.3617  0.3865  0.4644
  135MOL   H17348681   4.987   0.379   1.622 -1.2752 -3.2659  1.4446
  135MOL   H17448682   5.048   0.153   1.416  0.9624 -0.1767  1.3149
  135MOL   H17548683   4.899   0.260   1.433 -0.1975 -1.6638 -0.7503
  135MOL   H17648684   4.996   0.074   1.648 -1.6682 -2.5974  0.4766
  135MOL   H17748685   4.891   0.012   1.517 -2.4754 -0.2703  0.9053
  135MOL   H17848686   4.810   0.232   1.716 -0.3305  0.2183  0.4683
  135MOL   H17948687   4.776   0.063   1.734 -2.9311  0.7405 -0.3924
  135MOL   H18048688   4.579   0.217   1.635 -1.7189 -1.3039 -1.3773
  135MOL   H18148689   4.691   0.266   1.519 -1.3543  1.5918  1.9474
  135MOL   C18248690   4.513   0.038   1.468  0.9176  0.7380  0.3157
  135MOL   O18348691   4.415   0.111   1.492  0.3734 -0.0150 -0.5737
  135MOL   C18448692   4.497   7.749   1.404 -0.6029 -0.7089 -0.2293
  135MOL   C18548693   4.574   7.742   1.276  0.3476  0.1469  0.3837
  135MOL   C18648694   4.545   7.844   1.170  0.1861  0.4939  0.4119
  135MOL   C18748695   4.637   7.832   1.049 -0.5027 -0.0121  0.5553
  135MOL   C18848696   4.644   0.110   0.950 -0.7003  0.1563 -0.2935
  135MOL   O18948697   4.648   0.233   1.021  0.5910  0.2222 -0.6880
  135MOL   H19048698   4.394   7.720   1.382 -1.6603  0.5426  2.8398
  135MOL   H19148699   4.537   7.673   1.472  0.4121 -0.0104 -0.0414
  135MOL   H19248700   4.565   7.644   1.230  2.0518 -0.4739  1.3334
  135MOL   H19348701   4.674   7.753   1.318 -0.0769  0.3670  1.3400
  135MOL   H19448702   4.548   0.092   1.227 -1.9438  0.3579  0.7970
  135MOL   H19548703   4.441   7.841   1.135  0.3896  0.9551 -0.2540
  135MOL   H19648704   4.623   7.743   0.987  0.3927  0.3223 -0.1461
  135MOL   H19748705   4.737   7.820   1.091  0.2481  0.0061 -1.1729
  135MOL   H19848706   4.725   0.099   0.878 -0.7044  0.3824 -0.3332
  135MOL   H19948707   4.559   0.113   0.881  2.0176 -0.4348 -3.8232
  135MOL   C20048708   4.774   0.286   1.035  0.6132 -0.4559 -0.1321
  135MOL   O20148709   4.880   0.267   0.971 -0.1499  0.7101  0.0982
  135MOL   C20248710   4.772   0.398   1.142  0.5368  0.0288 -0.3932
  135MOL   C20348711   4.692   0.527   1.095  0.0766  0.1146 -0.2360
  135MOL   C20448712   4.707   0.655   1.185 -0.8217  0.7171 -0.0610
  135MOL   C20548713   4.629   0.647   1.317  0.9292  0.2640 -0.6006
  135MOL   C20648714   4.688   0.547   1.423 -0.1830 -0.2793  0.3935
  135MOL   O20748715   4.621   0.569   1.552 -0.1351 -0.1435 -0.2209
  135MOL   H20848716   4.866   0.430   1.186  0.3594 -1.2650  0.9431
  135MOL   H20948717   4.718   0.354   1.225  1.8671  2.5759  1.9045
  135MOL   H21048718   4.586   0.503   1.106 -0.0470  1.3841  1.6842
  135MOL   H21148719   4.689   0.548   0.988  3.1386  0.7158 -0.2351
  135MOL   H21248720   4.667   0.744   1.136  0.1798  0.9393 -0.5067
  135MOL   H21348721   4.812   0.672   1.209 -0.7920 -1.1711  1.2219
  135MOL   H21448722   4.525   0.616   1.303  0.4879  0.5145  1.8864
  135MOL   H21548723   4.619   0.745   1.364 -1.0026 -0.2593  0.1471
  135MOL   H21648724   4.684   0.443   1.388  2.0549  0.0808 -0.9907
  135MOL   H21748725   4.793   0.574   1.424 -1.5575  5.5121  1.5896
  135MOL   C21848726   4.695   0.572   1.661 -0.4348  0.7446 -0.2518
  135MOL   O21948727   4.812   0.539   1.660  0.6106  0.0630  0.1026
  135MOL   C22048728   4.625   0.625   1.795  0.3146 -0.5943  0.2166
  135MOL   C22148729   4.517   0.525   1.834 -0.5645 -0.3511  0.3126
  135MOL   C22248730   4.549   0.401   1.908 -0.0704  0.1831  0.0320
  135MOL   C22348731   4.443   0.292   1.903  0.5246  0.4415 -0.5669
  135MOL   C22448732   4.489   0.170   1.989  0.1217  0.4050  0.4798
  135MOL   O22548733   4.631   0.148   1.966 -0.4900  0.5285  0.4882
  135MOL   H22648734   4.575   0.720   1.774  1.5148  0.2441  1.0992
  135MOL   H22748735   4.700   0.637   1.873  0.8011 -1.1354 -0.1548
  135MOL   H22848736   4.467   0.493   1.742  0.5484  0.5037 -0.6087
  135MOL   H22948737   4.433   0.578   1.879 -0.0826  0.6609  0.0405
  135MOL   H23048738   4.576   0.430   2.009  0.3831  0.2924 -0.1146
  135MOL   H23148739   4.646   0.371   1.867  0.6820  1.4038  0.8892
  135MOL   H23248740   4.419   0.248   1.806 -2.7714 -1.3391  0.9696
  135MOL   H23348741   4.351   0.329   1.949 -0.6687 -1.8421 -1.0328
  135MOL   H23448742   4.453   0.194   2.089  0.0921 -1.8214  1.0357
  135MOL   H23548743   4.427   0.086   1.958 -0.6582  0.5302  1.6721
  135MOL   C23648744   4.724   0.139   2.071  0.5662 -1.4397  0.1040
  135MOL   O23748745   4.695   0.116   2.190 -0.3700 -0.3187  0.8795
  135MOL   C23848746   4.865   0.136   2.025 -0.4149  0.1184  0.2959
  135MOL   C23948747   4.953   0.239   2.099  0.4077  0.4144  0.0886
  135MOL   C24048748   4.936   0.387   2.044  0.3720  0.0661  0.6124
  135MOL   C24148749   5.020   0.494   2.112  0.0197 -0.3426  0.2557
  135MOL   C24248750   5.033   0.631   2.035 -0.1266  0.9509  0.0281
  135MOL   O24348751   5.089   0.629   1.908 -0.0426  0.5616 -0.0353
  135MOL   H24448752   4.877   0.150   1.918 -2.6216  1.3253  0.1982
  135MOL   H24548753   4.910   0.040   2.053 -1.8465 -0.5346  0.3645
  135MOL   H24648754   5.056   0.204   2.096 -0.1172 -1.0181 -1.6500
  135MOL   H24748755   4.930   0.244   2.206 -0.4723  1.2999 -0.1374
  135MOL   H24848756   4.828   0.398   2.047  0.2789 -0.9600  1.8564
  135MOL   H24948757   4.967   0.387   1.940 -0.8151 -0.5598  0.2500
  135MOL   H25048758   5.120   0.452   2.121  0.2665 -0.2703 -1.7912
  135MOL   H25148759   4.981   0.495   2.214  0.2942 -0.3130  0.3600
  135MOL   H25248760   4.928   0.661   2.025 -0.2269  0.7364  0.4365
  135MOL   H25348761   5.083   0.703   2.101  1.2864 -0.1235  0.1505
  135MOL   C25448762   5.063   0.722   1.817  0.5695  0.5881  1.0364
  135MOL   O25548763   4.971   0.802   1.822  0.1726  0.1836 -0.1100
  135MOL   C25648764   5.149   0.704   1.681 -0.0085  0.0613 -0.8092
  135MOL   C25748765   5.290   0.667   1.707 -0.7594 -0.4212  0.1598
  135MOL   C25848766   5.381   0.726   1.590  0.1641  0.0679 -0.3097
  135MOL   C25948767   5.536   0.693   1.604  0.5314  0.0295  0.3159
  135MOL   C26048768   5.580   0.548   1.562 -0.0991  0.0685  0.2570
  135MOL   O26148769   5.720   0.541   1.576  0.7421  0.1991  0.3762
  135MOL   H26248770   5.155   0.800   1.631  0.0555 -0.1513 -1.2175
  135MOL   H26348771   5.099   0.629   1.619 -0.8111 -1.4437  1.5828
  135MOL   H26448772   5.292   0.558   1.711 -1.7077 -0.5163 -1.6737
  135MOL   H26548773   5.322   0.709   1.802 -1.1356 -1.4820  0.7584
  135MOL   H26648774   5.360   0.832   1.593  1.3487  0.2900  0.6986
  135MOL   H26748775   5.344   0.696   1.492 -1.4620 -2.2842  0.9521
  135MOL   H26848776   5.565   0.712   1.707  0.2036 -3.1832  1.0341
  135MOL   H26948777   5.586   0.765   1.539 -1.3996  0.5165 -0.6860
  135MOL   H27048778   5.520   0.478   1.621  3.0168 -1.0341  2.1835
  135MOL   H27148779   5.555   0.525   1.458 -0.4580  1.4174  0.0348
  135MOL   C27248780   5.773   0.426   1.585 -0.1282  0.5589 -0.0239
  135MOL   O27348781   5.715   0.318   1.599 -0.1532 -0.2550  0.2205
  135MOL   C27448782   5.930   0.435   1.596  0.5370  0.2523 -0.3126
  135MOL   C27548783   5.999   0.301   1.629  0.0857  0.1228 -0.5294
  135MOL   C27648784   6.147   0.341   1.647  0.9557 -0.1551 -0.0488
  135MOL   C27748785   6.230   0.223   1.667  0.3998 -0.6799 -0.8245
  135MOL   C27848786   6.378   0.257   1.669 -0.6180  0.0501  0.0374
  135MOL   O27948787   6.438   0.220   1.547 -0.4841  0.1926  0.2147
  135MOL   H28048788   5.939   0.504   1.681 -1.4391  0.6759 -0.4224
  135MOL   H28148789   5.968   0.482   1.506  0.2935  0.4748 -0.3013
  135MOL   H28248790   5.980   0.230   1.548 -0.8360  0.2890 -0.4642
  135MOL   H28348791   5.962   0.253   1.720  0.6196  0.0805 -0.3352
  135MOL   H28448792   6.151   0.417   1.725 -0.2324  0.4106 -0.5339
  135MOL   H28548793   6.180   0.405   1.565  0.2518 -0.7578 -0.8137
  135MOL   H28648794   6.218   0.136   1.602 -0.7705 -0.9757 -0.2144
  135MOL   H28748795   6.207   0.192   1.768  1.3103 -0.3140 -0.4948
  135MOL   H28848796   6.389   0.365   1.679  0.6742 -0.1001  0.3298
  135MOL   H28948797   6.437   0.213   1.749  0.4351  0.6359 -0.4147
  135MOL   C29048798   6.560   0.269   1.526  0.3807 -0.2439 -0.1917
  135MOL   O29148799   6.633   0.329   1.612 -0.3048 -0.4547 -0.1611
  135MOL   C29248800   6.605   0.261   1.382  0.1891 -0.3185 -0.5331
  135MOL   C29348801   6.754   0.306   1.367 -0.6153 -0.1992 -0.8716
  135MOL   C29448802   6.855   0.198   1.404  0.3894 -0.3087  0.4435
  135MOL   C29548803   6.996   0.252   1.395 -1.4030  0.3792  0.6065
  135MOL   C29648804   7.108   0.143   1.409  1.0794 -1.1652  0.3593
  135MOL   O29748805   7.110   0.048   1.305  0.0107 -0.0583  0.3223
  135MOL   H29848806   6.540   0.333   1.333 -0.9246 -0.4397  0.7476
  135MOL   H29948807   6.591   0.163   1.338  0.6663  0.1062 -1.6435
  135MOL   H30048808   6.777   0.389   1.435 -1.9653 -0.8831  0.4618
  135MOL   H30148809   6.785   0.348   1.272  0.6923  1.6419  0.3396
  135MOL   H30248810   6.845   0.116   1.333 -3.0872  1.3625 -1.1167
  135MOL   H30348811   6.835   0.155   1.501  4.7086 -1.1370  1.0953
  135MOL   H30448812   6.993   0.328   1.474 -0.2015  0.9351  0.1358
  135MOL   H30548813   7.022   0.302   1.302 -0.7137  0.2716  0.7379
  135MOL   H30648814   7.204   0.191   1.424  1.3114 -1.1393 -1.0983
  135MOL   H30748815   7.075   0.095   1.501 -0.2249 -0.5309  0.2324
  135MOL   C30848816   7.206   7.799   1.301 -0.1618  0.2532 -0.6216
  135MOL   O30948817   7.292   7.791   1.395 -0.0019  0.5395  0.0297
  135MOL   C31048818   7.197   7.706   1.183  0.8149 -0.0743  0.3463
  135MOL   C31148819   7.272   7.562   1.196 -0.7869 -0.5843  0.6186
  135MOL   C31248820   7.256   7.461   1.087 -0.7212 -0.0430 -0.0084
  135MOL   C31348821   7.324   7.329   1.118 -0.0578 -0.9623  0.3107
  135MOL   C31448822   7.287   7.219   1.018  0.2553 -1.1209 -0.4975
  135MOL   O31548823   7.153   7.169   1.031  0.1209 -0.2691 -0.1794
  135MOL   H31648824   7.236   7.762   1.098 -3.5952  2.1810 -0.3495
  135MOL   H31748825   7.091   7.691   1.164  0.8713 -1.1336  0.8402
  135MOL   H31848826   7.228   7.526   1.289  1.0642 -0.1847  1.6643
  135MOL   H31948827   7.379   7.570   1.213 -0.3488  1.2268 -2.6003
  135MOL   H32048828   7.294   7.503   0.994  2.5631  0.0419  1.3144
  135MOL   H32148829   7.149   7.439   1.091 -0.6635 -0.3832 -0.3637
  135MOL   H32248830   7.307   7.304   1.223 -4.0520  1.6164  0.3518
  135MOL   H32348831   7.432   7.346   1.121 -0.2623  0.2482  1.5536
  135MOL   H32448832   7.302   7.254   0.915 -1.3173 -0.0391 -0.3626
  135MOL   H32548833   7.348   7.129   1.032 -0.1911 -0.8969  3.1844
  135MOL   C32648834   7.080   7.116   0.927  0.4195 -0.4697  0.2370
  135MOL   O32748835   7.117   7.091   0.810  0.2574 -0.4379 -0.1636
  135MOL   C32848836   6.934   7.094   0.965  0.2536  0.1965 -0.8182
  135MOL   C32948837   6.862   7.225   1.000  0.1653 -0.8438 -0.0426
  135MOL   C33048838   6.853   7.325   0.886  0.3644 -0.0113  0.3989
  135MOL   C33148839   6.899   7.464   0.924 -0.0340 -0.4425 -0.1597
  135MOL   C33248840   6.889   7.566   0.819 -0.4923 -0.2204  0.6114
  135MOL   O33348841   6.938   7.688   0.867 -0.3943  0.4638 -0.2575
  135MOL   H33448842   6.938   7.037   1.058 -1.6782  1.7997  0.2953
  135MOL   H33548843   6.877   7.029   0.899 -0.2742  1.9515 -2.1269
  135MOL   H33648844   6.909   7.266   1.090 -1.6507  1.1373  0.0471
  135MOL   H33748845   6.766   7.193   1.040  1.5040 -0.8300  3.4001
  135MOL   H33848846   6.757   7.321   0.834  0.8480 -1.5930 -0.4218
  135MOL   H33948847   6.916   7.291   0.803 -1.0379 -3.3619  0.6290
  135MOL   H34048848   7.006   7.451   0.944  0.4339 -0.2644 -2.3861
  135MOL   H34148849   6.851   7.504   1.013  1.2292 -1.0576  0.8162
  135MOL   H34248850   6.944   7.530   0.732  2.1161  0.3175  1.9747
  135MOL   H34348851   6.785   7.560   0.788 -0.3891 -0.4694  0.3044
  135MOL   C34448852   7.030   7.757   0.788 -0.2818  1.0206 -0.5165
  135MOL   O34548853   7.066   7.728   0.677 -0.1586  0.3477  0.4217
  135MOL   C34648854   7.083   0.033   0.869  0.0428 -0.0605 -0.3215
  135MOL   C34748855   7.216   0.086   0.804  0.4741 -0.0802  0.0213
  135MOL   C34848856   7.341   7.829   0.804  0.1732 -1.0743  1.4767
  135MOL   C34948857   7.464   0.055   0.740  0.4085  0.7619 -0.5778
  135MOL   C35048858   7.456   0.067   0.590  0.2900  0.7804  0.1800
  135MOL   O35148859   7.493   7.791   0.523  0.1104 -0.6331 -0.3932
  135MOL   H35248860   7.108   7.836   0.967 -0.0083  1.4913  0.3576
  135MOL   H35348861   7.013   0.116   0.875  1.1023  0.6906  2.4126
  135MOL   H35448862   7.225   0.166   0.878 -1.5129 -1.1010  1.3982
  135MOL   H35548863   7.201   0.133   0.707  0.9694 -1.2563 -0.6400
  135MOL   H35648864   7.314   7.742   0.743  1.0009 -0.5648  0.3644
  135MOL   H35748865   7.360   7.798   0.906 -0.6563 -0.4193  1.8357
  135MOL   H35848866   7.558   0.006   0.763 -0.5024 -1.3999 -1.2965
  135MOL   H35948867   7.478   0.158   0.774 -3.7813  0.7902  1.3879
  135MOL   H36048868   7.354   0.088   0.557 -0.4962 -1.4057  1.1423
  135MOL   H36148869   7.509   0.152   0.547 -2.3692  2.3514 -0.1154
  135MOL   H36248870   7.457   7.790   0.436 -1.9942  1.5913  0.4100
  136MOL     C148871   4.177   1.904   3.147 -0.1567  0.3321  0.0005
  136MOL     O248872   4.273   1.949   3.214 -0.2106  0.3316  0.2632
  136MOL     C348873   4.046   1.982   3.113 -0.2514  0.3758  0.1592
  136MOL     C448874   4.022   2.094   3.206  0.4625  0.1243 -0.2578
  136MOL     C548875   4.108   2.223   3.179 -0.4388  0.4273  0.5401
  136MOL     C648876   4.087   2.341   3.268  0.0109  0.6939 -0.7550
  136MOL     C748877   4.189   2.459   3.268 -1.0044 -0.4945 -0.4009
  136MOL     O848878   4.319   2.407   3.291 -0.0265  0.1403 -0.2538
  136MOL     H948879   3.962   1.913   3.104  0.1108 -0.3262  1.8330
  136MOL    H1048880   4.060   2.016   3.010 -0.7762 -2.2672 -0.8170
  136MOL    H1148881   4.037   2.063   3.310  1.6364 -0.9017 -0.7219
  136MOL    H1248882   3.915   2.117   3.206  0.4415  0.0587 -2.3251
  136MOL    H1348883   4.095   2.271   3.082  0.4516  0.5607  0.4864
  136MOL    H1448884   4.212   2.193   3.175 -0.0848  1.9021 -2.1389
  136MOL    H1548885   4.084   2.312   3.373  2.1672  1.5003 -0.4542
  136MOL    H1648886   3.986   2.379   3.249 -0.2199 -0.2103 -1.3452
  136MOL    H1748887   4.186   2.497   3.165  2.1177 -0.1131 -0.3958
  136MOL    H1848888   4.150   2.537   3.334 -1.6552 -1.9062  0.8996
  136MOL    H1948889   4.179   1.805   3.100 -1.4741  0.3270 -0.0585
  136MOL    C2048890   4.378   2.421   3.402 -0.0854 -0.0167 -0.0463
  136MOL    O2148891   4.340   2.488   3.490  0.1730  0.6904  0.5956
  136MOL    C2248892   4.499   2.326   3.414 -0.3422  0.1224  0.0363
  136MOL    C2348893   4.461   2.176   3.391  1.4645 -0.8042  0.7696
  136MOL    C2448894   4.425   2.101   3.513  0.4252 -0.2772  0.0391
  136MOL    C2548895   4.287   2.122   3.573 -0.3651 -0.6410  0.7194
  136MOL    C2648896   4.247   2.016   3.681  0.1871 -0.2834 -0.9601
  136MOL    O2748897   4.112   2.018   3.713 -0.3241 -0.1604 -0.0111
  136MOL    H2848898   4.568   2.340   3.496 -0.3187  0.5093 -0.0494
  136MOL    H2948899   4.562   2.366   3.334 -0.2303  1.6368  0.8684
  136MOL    H3048900   4.545   2.117   3.352 -0.3169 -2.0872 -1.2421
  136MOL    H3148901   4.384   2.164   3.315  1.1161  0.8397  0.8350
  136MOL    H3248902   4.500   2.112   3.591  1.2347  0.8851 -0.8728
  136MOL    H3348903   4.428   1.994   3.493  3.5286  0.0457 -1.5285
  136MOL    H3448904   4.204   2.137   3.504 -1.5330  0.6383  2.3331
  136MOL    H3548905   4.278   2.218   3.625 -1.3829 -0.9645  1.1589
  136MOL    H3648906   4.277   1.915   3.651 -0.3796 -0.6674 -0.2574
  136MOL    H3748907   4.304   2.040   3.771 -1.3032 -0.0935 -0.0406
  136MOL    C3848908   4.029   1.935   3.652 -0.1039  0.0075 -0.0269
  136MOL    O3948909   4.051   1.823   3.608 -0.0386  0.1157 -0.2555
  136MOL    C4048910   3.889   2.003   3.647  0.2748 -0.1837  0.6819
  136MOL    C4148911   3.794   1.931   3.549 -1.5159  0.0068  0.2338
  136MOL    C4248912   3.684   2.029   3.503  0.2681  0.9385 -0.8925
  136MOL    C4348913   3.551   1.975   3.437 -0.1765  0.1344 -0.2014
  136MOL    C4448914   3.480   2.089   3.378 -0.4532 -0.2672 -0.0479
  136MOL    O4548915   3.349   2.048   3.344  0.5310 -0.1102  0.1954
  136MOL    H4648916   3.916   2.105   3.620 -0.6935  0.5618  2.4438
  136MOL    H4748917   3.831   2.010   3.739 -1.6482  0.9616 -0.5836
  136MOL    H4848918   3.752   1.845   3.602  0.2405 -1.0178 -0.0040
  136MOL    H4948919   3.839   1.898   3.455 -2.0675  0.2136 -0.1113
  136MOL    H5048920   3.727   2.100   3.432  1.5886 -1.3885 -2.5204
  136MOL    H5148921   3.647   2.090   3.584 -2.5268 -1.3237 -0.3836
  136MOL    H5248922   3.499   1.919   3.515  1.2680 -0.4943  0.3183
  136MOL    H5348923   3.574   1.911   3.352 -1.5178  0.9793 -1.2250
  136MOL    H5448924   3.460   2.155   3.462  0.2177 -0.2388  0.0934
  136MOL    H5548925   3.535   2.130   3.294 -0.0532  0.3265  0.4987
  136MOL    C5648926   3.305   2.061   3.213 -0.6211  0.5648  0.5487
  136MOL    O5748927   3.380   2.092   3.121 -0.3835  0.2127  0.6430
  136MOL    C5848928   3.159   2.020   3.195 -0.5685 -0.3425  0.3974
  136MOL    C5948929   3.074   2.135   3.121 -0.0891  0.2204  0.2106
  136MOL    C6048930   2.972   2.214   3.198  0.4490  0.1838 -0.2431
  136MOL    C6148931   3.034   2.268   3.333  0.0526  0.1982  0.3987
  136MOL    C6248932   2.941   2.351   3.416  0.0450  0.1066  0.3710
  136MOL    O6348933   3.015   2.427   3.515  0.1612  0.1857  0.8871
  136MOL    H6448934   3.112   2.006   3.292 -0.3444 -1.3898  0.3563
  136MOL    H6548935   3.146   1.925   3.144 -0.4695 -0.4068  0.4911
  136MOL    H6648936   3.037   2.087   3.031  0.8282  0.6793 -0.4223
  136MOL    H6748937   3.146   2.205   3.076 -0.3264  0.0057 -0.5069
  136MOL    H6848938   2.888   2.147   3.213  1.2219 -0.2716  2.3812
  136MOL    H6948939   2.953   2.307   3.144  1.1112  1.2639  1.3229
  136MOL    H7048940   3.124   2.327   3.315 -0.0258  0.4494  0.8024
  136MOL    H7148941   3.064   2.186   3.399 -4.4695 -0.0843  2.2747
  136MOL    H7248942   2.891   2.432   3.363 -0.8368 -0.2622  0.6195
  136MOL    H7348943   2.868   2.283   3.461  1.2274  0.5587  3.1138
  136MOL    C7448944   3.036   2.379   3.640 -0.1457  0.5729 -0.1412
  136MOL    O7548945   3.003   2.267   3.673 -0.1110  0.0157 -0.1954
  136MOL    C7648946   3.104   2.476   3.736 -0.1181 -0.5365  0.0081
  136MOL    C7748947   3.005   2.528   3.842  0.0321  0.0059 -0.0849
  136MOL    C7848948   3.079   2.631   3.939 -0.6437 -0.6218  0.4009
  136MOL    C7948949   2.988   2.673   4.060 -0.5386  0.4530  0.0706
  136MOL    C8048950   2.869   2.758   4.019 -0.5396 -0.0102 -0.3451
  136MOL    O8148951   2.904   2.893   3.995  0.1572 -0.0475 -0.2108
  136MOL    H8248952   3.172   2.546   3.687 -0.2934 -0.5560 -0.2605
  136MOL    H8348953   3.167   2.410   3.796  1.0075 -0.0019 -0.5720
  136MOL    H8448954   2.949   2.450   3.893  1.2121 -0.6168  0.2811
  136MOL    H8548955   2.934   2.593   3.792  2.4023  1.5851 -1.5238
  136MOL    H8648956   3.101   2.724   3.887  2.6156 -1.0192  0.9326
  136MOL    H8748957   3.169   2.588   3.983 -1.0468 -0.2365  1.6184
  136MOL    H8848958   3.042   2.750   4.116  0.4589  0.0610 -0.3607
  136MOL    H8948959   2.956   2.594   4.128 -0.0889 -0.1132 -0.3719
  136MOL    H9048960   2.835   2.721   3.922 -0.7344  1.5122 -0.8603
  136MOL    H9148961   2.789   2.748   4.092  1.0949  0.4852  1.5284
  136MOL    C9248962   2.807   2.986   3.957  1.1261 -0.2302 -0.1116
  136MOL    O9348963   2.689   2.969   3.983  0.1829  0.1168 -0.0865
  136MOL    C9448964   2.870   3.102   3.883 -0.1913  0.0577 -0.3569
  136MOL    C9548965   2.937   3.199   3.973 -0.3939 -0.8142 -0.1317
  136MOL    C9648966   2.852   3.293   4.050 -0.1121  0.4104 -0.3214
  136MOL    C9748967   2.924   3.416   4.106  0.0220 -0.4249  0.4670
  136MOL    C9848968   2.842   3.535   4.158  0.1079  0.3994 -0.0133
  136MOL    O9948969   2.930   3.606   4.247  0.3736 -0.6399 -0.2488
  136MOL   H10048970   2.793   3.159   3.830 -1.2225 -0.8418  0.1405
  136MOL   H10148971   2.929   3.062   3.801  1.2493  1.7060 -0.1552
  136MOL   H10248972   3.010   3.258   3.917  0.4284 -1.7282 -0.0372
  136MOL   H10348973   2.997   3.146   4.047  1.1837  0.6078 -0.3466
  136MOL   H10448974   2.814   3.246   4.140  1.9976  1.3835  1.1219
  136MOL   H10548975   2.761   3.323   3.999 -0.1235  0.2268 -0.4094
  136MOL   H10648976   3.000   3.446   4.034 -2.6474  1.8688 -1.4658
  136MOL   H10748977   2.977   3.373   4.191 -0.3640 -0.5083  0.6652
  136MOL   H10848978   2.806   3.593   4.073  1.3345 -1.0705 -1.5739
  136MOL   H10948979   2.753   3.493   4.205  0.2936 -1.3271 -1.1333
  136MOL   C11048980   2.983   3.729   4.219 -0.2539 -0.0029 -0.2806
  136MOL   O11148981   2.977   3.793   4.112  0.2609  0.7907 -0.4780
  136MOL   C11248982   3.053   3.787   4.343  0.4534  0.4512 -0.2569
  136MOL   C11348983   3.195   3.833   4.327  0.2532  0.0962  0.9007
  136MOL   C11448984   3.228   3.936   4.428 -0.7837  0.1361 -0.2721
  136MOL   C11548985   3.370   3.995   4.402  0.6666  0.3970 -0.3325
  136MOL   C11648986   3.398   4.098   4.504  0.1660  0.0620 -0.0248
  136MOL   O11748987   3.319   4.217   4.495 -0.2782  0.0491 -0.2398
  136MOL   H11848988   3.050   3.712   4.422 -3.0261 -0.1194 -0.8345
  136MOL   H11948989   2.978   3.850   4.391  1.2633  1.4532 -0.3043
  136MOL   H12048990   3.205   3.870   4.226  0.9489 -1.0671  0.5287
  136MOL   H12148991   3.263   3.748   4.332  0.9350  0.5435 -0.7457
  136MOL   H12248992   3.223   3.893   4.527 -0.8305  1.9550  0.5424
  136MOL   H12348993   3.153   4.015   4.423 -3.3384 -2.0485  1.8501
  136MOL   H12448994   3.373   4.040   4.303 -4.4718 -1.5502 -1.5722
  136MOL   H12548995   3.439   3.911   4.408 -1.2935 -1.3636 -1.7706
  136MOL   H12648996   3.383   4.056   4.603  1.7038  1.1624  0.7020
  136MOL   H12748997   3.505   4.119   4.495  0.0839  0.4578 -0.1122
  136MOL   C12848998   3.367   4.333   4.548  0.2062 -0.2653 -0.3834
  136MOL   O12948999   3.478   4.340   4.597 -0.1117  0.4097 -0.0531
  136MOL   C13049000   3.280   4.465   4.542  0.0036  0.1680 -0.1452
  136MOL   C13149001   3.361   4.598   4.545  0.2807 -0.2699  0.2678
  136MOL   C13249002   3.396   4.644   4.690  0.6177 -0.2117 -0.6052
  136MOL   C13349003   3.440   4.793   4.721  0.3980 -0.3655 -0.2627
  136MOL   C13449004   3.466   4.823   4.869 -0.1814  0.4400  0.3043
  136MOL   O13549005   3.340   4.834   4.932  0.5547  0.0807 -0.5578
  136MOL   H13649006   3.206   4.466   4.623  1.3506  0.5153  1.0938
  136MOL   H13749007   3.211   4.463   4.457  0.7052  0.0647 -0.7114
  136MOL   H13849008   3.294   4.677   4.511  2.7953  2.0056  0.4695
  136MOL   H13949009   3.451   4.589   4.484  0.3777 -1.5697  0.5933
  136MOL   H14049010   3.461   4.567   4.731  0.6268 -0.7713 -1.6424
  136MOL   H14149011   3.305   4.628   4.748 -0.3064  1.3220 -1.6158
  136MOL   H14249012   3.349   4.851   4.703  0.2730 -0.6782 -0.6386
  136MOL   H14349013   3.515   4.821   4.647  0.4942 -0.7372 -0.3036
  136MOL   H14449014   3.519   4.741   4.918 -1.2558  0.7205  1.9956
  136MOL   H14549015   3.533   4.906   4.887 -0.4093  0.5585  0.6316
  136MOL   C14649016   3.282   4.964   4.929 -0.0962 -0.4733  0.2013
  136MOL   O14749017   3.318   5.053   4.854 -0.4378 -0.1111 -0.0398
  136MOL   C14849018   3.166   4.985   5.020  0.7223 -0.0955 -0.7662
  136MOL   C14949019   3.192   4.997   5.170 -0.7102 -0.1576 -0.4117
  136MOL   C15049020   3.075   5.074   5.238 -0.1342 -0.1352 -0.1715
  136MOL   C15149021   3.076   5.227   5.203 -0.0521 -0.2229 -0.1491
  136MOL   C15249022   2.966   5.304   5.276 -0.3652  0.4152  0.0891
  136MOL   O15349023   2.854   5.348   5.202 -0.7268 -0.3559  0.0965
  136MOL   H15449024   3.099   4.902   4.998 -0.8997  0.7133  0.9083
  136MOL   H15549025   3.117   5.075   4.981 -0.6202  0.7709  2.7169
  136MOL   H15649026   3.288   5.047   5.183 -1.2437  0.1882  2.3465
  136MOL   H15749027   3.204   4.896   5.208 -0.0743  0.0294 -0.1096
  136MOL   H15849028   3.106   5.051   5.340  2.6087  0.5171 -0.8061
  136MOL   H15949029   2.987   5.016   5.211  1.6589 -2.6689 -0.7520
  136MOL   H16049030   3.060   5.238   5.096 -0.4770  0.7856  0.0080
  136MOL   H16149031   3.171   5.277   5.225 -2.3245  3.3729  1.9695
  136MOL   H16249032   2.930   5.242   5.358  2.3717 -0.9973  0.2887
  136MOL   H16349033   3.008   5.393   5.324 -1.3954  2.3756 -2.5380
  136MOL   C16449034   2.733   5.387   5.262  0.0708 -0.2421 -0.1207
  136MOL   O16549035   2.696   5.372   5.382 -0.4254  0.6763  0.1168
  136MOL   C16649036   2.631   5.441   5.162 -0.0239  0.0613 -0.3994
  136MOL   C16749037   2.629   5.359   5.034  0.8691 -0.0147  0.2436
  136MOL   C16849038   2.674   5.427   4.902  0.5200 -0.2135  0.0793
  136MOL   C16949039   2.759   5.344   4.813  0.4133  0.8720 -0.1265
  136MOL   C17049040   2.807   5.417   4.696  0.5655  0.2203  0.1778
  136MOL   O17149041   2.922   5.352   4.641  0.6930 -0.0789  0.2227
  136MOL   H17249042   2.653   5.543   5.131 -2.2147  0.2368 -1.4448
  136MOL   H17349043   2.538   5.438   5.219 -1.0410 -1.4326 -2.0868
  136MOL   H17449044   2.531   5.319   5.009  2.0168 -0.7674 -3.3672
  136MOL   H17549045   2.685   5.269   5.055  0.8055 -0.2045 -0.3957
  136MOL   H17649046   2.732   5.518   4.918 -1.1201  0.4508  2.6380
  136MOL   H17749047   2.589   5.457   4.841 -0.9788 -1.0125  1.7349
  136MOL   H17849048   2.712   5.262   4.759  0.0774  1.4766 -0.7614
  136MOL   H17949049   2.839   5.308   4.879 -2.6841 -0.1331  3.2368
  136MOL   H18049050   2.725   5.422   4.624 -1.7645  2.6594  2.8758
  136MOL   H18149051   2.822   5.522   4.720 -2.6834  0.3909  1.8048
  136MOL   C18249052   2.917   5.291   4.525 -0.3876  0.0242 -0.5046
  136MOL   O18349053   2.828   5.285   4.442  0.2024  0.0761 -0.5780
  136MOL   C18449054   3.046   5.210   4.502  0.7251 -0.1912  1.0991
  136MOL   C18549055   3.052   5.082   4.575 -0.8995  0.0112 -0.5894
  136MOL   C18649056   2.967   4.969   4.512 -0.1961  0.3744 -0.0187
  136MOL   C18749057   2.987   4.837   4.589 -0.5759 -0.3571 -0.4324
  136MOL   C18849058   2.922   4.721   4.522 -0.1408 -0.0102 -0.6526
  136MOL   O18949059   2.781   4.740   4.512 -0.7036  0.0058  0.1049
  136MOL   H19049060   3.134   5.265   4.534  1.1972 -0.8133  0.8780
  136MOL   H19149061   3.054   5.183   4.396 -3.1654  2.1766  0.1061
  136MOL   H19249062   3.020   5.115   4.674  2.0233  3.0340 -0.5585
  136MOL   H19349063   3.158   5.058   4.588 -0.7740  0.2654 -1.1511
  136MOL   H19449064   2.991   4.957   4.406  2.1704 -0.0274  0.5174
  136MOL   H19549065   2.862   4.996   4.516 -0.7225 -1.2743 -1.6597
  136MOL   H19649066   2.946   4.855   4.689 -1.9852  1.4957 -1.3075
  136MOL   H19749067   3.092   4.812   4.601 -0.2539  0.4532 -1.5331
  136MOL   H19849068   2.969   4.691   4.428 -2.2739 -0.5934 -1.5634
  136MOL   H19949069   2.932   4.634   4.587 -3.1833 -1.1714 -1.6651
  136MOL   C20049070   2.721   4.765   4.398  0.1247  0.2276  1.1811
  136MOL   O20149071   2.764   4.764   4.280 -0.0877 -0.6343 -0.7202
  136MOL   C20249072   2.572   4.790   4.417  0.5606 -0.3537  0.1133
  136MOL   C20349073   2.507   4.903   4.333  0.6681  0.4373  0.1680
  136MOL   C20449074   2.559   5.041   4.380  0.4244  0.2074  0.0574
  136MOL   C20549075   2.452   5.146   4.363  0.0439 -0.6111  0.5096
  136MOL   C20649076   2.505   5.285   4.365 -0.0737  0.0693  0.1235
  136MOL   O20749077   2.396   5.367   4.356  0.0493  0.2962  0.3319
  136MOL   H20849078   2.558   4.799   4.524 -1.8097 -0.1076 -0.1873
  136MOL   H20949079   2.518   4.702   4.380 -0.0462 -0.1845  0.5867
  136MOL   H21049080   2.401   4.892   4.358  1.1886 -1.2537  1.6771
  136MOL   H21149081   2.519   4.897   4.225  2.4011 -0.1247  0.3914
  136MOL   H21249082   2.647   5.069   4.321  0.2834 -0.8218 -0.6436
  136MOL   H21349083   2.591   5.045   4.484 -0.8692 -0.7925  0.4960
  136MOL   H21449084   2.380   5.133   4.443 -1.0056  0.5862 -0.2086
  136MOL   H21549085   2.397   5.139   4.269 -0.1275 -0.1539  0.5741
  136MOL   H21649086   2.564   5.297   4.455  1.5123  0.7788 -1.0028
  136MOL   H21749087   2.574   5.308   4.284 -1.2444  1.4248 -0.5317
  136MOL   C21849088   2.374   5.461   4.446  0.3956  0.2656  0.5063
  136MOL   O21949089   2.442   5.490   4.549 -0.2039 -0.1913 -0.4726
  136MOL   C22049090   2.245   5.539   4.412  0.2259  0.2340 -0.1765
  136MOL   C22149091   2.113   5.478   4.470 -0.6262 -0.4685  0.1398
  136MOL   C22249092   2.072   5.353   4.395 -0.1547  0.1543 -0.1577
  136MOL   C22349093   1.939   5.299   4.428  0.7960  0.5545 -0.7103
  136MOL   C22449094   1.938   5.255   4.568 -0.6531 -0.0707 -0.0576
  136MOL   O22549095   1.887   5.354   4.657  0.4032  0.2975 -0.3996
  136MOL   H22649096   2.239   5.529   4.304  0.0290  0.8872 -0.2280
  136MOL   H22749097   2.255   5.646   4.432  4.2113 -0.2671  1.0092
  136MOL   H22849098   2.039   5.554   4.445 -1.1622 -0.8478  0.5634
  136MOL   H22949099   2.120   5.452   4.576  0.9873 -3.0639 -0.5542
  136MOL   H23049100   2.136   5.265   4.396 -2.0588 -1.2737 -0.3281
  136MOL   H23149101   2.063   5.386   4.292 -1.7656  0.9821  0.2201
  136MOL   H23249102   1.902   5.215   4.370  2.2410  0.2394 -1.2189
  136MOL   H23349103   1.858   5.369   4.409 -0.2079 -0.6663 -0.9507
  136MOL   H23449104   1.880   5.163   4.578  0.8238 -1.0322 -0.2069
  136MOL   H23549105   2.039   5.224   4.597 -0.4350  0.1981 -0.5316
  136MOL   C23649106   1.756   5.353   4.673  0.0218 -0.1065  0.0916
  136MOL   O23749107   1.680   5.270   4.622 -0.1469  0.0708 -1.0173
  136MOL   C23849108   1.707   5.476   4.753 -0.0017  0.1410  0.3608
  136MOL   C23949109   1.559   5.485   4.791  0.1015 -0.4341  0.0365
  136MOL   C24049110   1.523   5.419   4.922  0.0928  0.1975  0.1223
  136MOL   C24149111   1.376   5.444   4.939  0.4013 -0.6037  0.1862
  136MOL   C24249112   1.340   5.412   5.084 -0.2476 -0.2588  0.4431
  136MOL   O24349113   1.196   5.409   5.099  0.0275  0.1877 -0.1577
  136MOL   H24449114   1.740   5.568   4.705  0.2513 -0.3435 -0.3990
  136MOL   H24549115   1.767   5.475   4.843  0.1649  0.6576  0.2599
  136MOL   H24649116   1.496   5.450   4.709  0.5846 -0.8189 -0.1753
  136MOL   H24749117   1.540   5.592   4.794 -0.4259 -0.5290  0.0440
  136MOL   H24849118   1.582   5.471   4.998  1.1692 -0.9604  0.0985
  136MOL   H24949119   1.541   5.311   4.920 -2.4285 -0.2678  0.3385
  136MOL   H25049120   1.324   5.368   4.881  1.9741 -1.7186  0.2190
  136MOL   H25149121   1.340   5.542   4.906  0.3209 -0.2612  1.2631
  136MOL   H25249122   1.383   5.316   5.113  0.9597  0.1486  0.0203
  136MOL   H25349123   1.385   5.485   5.151  1.0467 -0.6780  0.0362
  136MOL   C25449124   1.140   5.284   5.114 -0.4999  0.5602 -0.2347
  136MOL   O25549125   1.196   5.179   5.128  0.1649  0.1180  0.9648
  136MOL   C25649126   0.989   5.306   5.126 -0.1207  0.2634  0.2573
  136MOL   C25749127   0.944   5.374   4.999  0.2277  0.4141 -0.2462
  136MOL   C25849128   0.801   5.367   4.959 -0.2597  0.3928 -0.0035
  136MOL   C25949129   0.764   5.461   4.849 -0.5476 -0.2206  0.0336
  136MOL   C26049130   0.637   5.424   4.775  0.0505 -0.2576 -0.7221
  136MOL   O26149131   0.656   5.353   4.657 -0.8755 -0.5029  0.7957
  136MOL   H26249132   0.964   5.367   5.213  1.5780 -0.7557  1.4891
  136MOL   H26349133   0.946   5.206   5.115  0.2082  0.2941 -1.5107
  136MOL   H26449134   1.014   5.350   4.918  1.1109 -0.0868  0.6539
  136MOL   H26549135   0.963   5.481   5.004 -2.2365  0.9553 -2.0234
  136MOL   H26649136   0.739   5.380   5.048  0.8652 -0.1113  0.8613
  136MOL   H26749137   0.790   5.266   4.919 -0.5595 -1.2161  3.8991
  136MOL   H26849138   0.842   5.454   4.774 -0.0466  0.6107  0.4724
  136MOL   H26949139   0.752   5.566   4.877  0.2022  0.3773 -1.8527
  136MOL   H27049140   0.561   5.383   4.842 -0.3112  1.0767 -0.3021
  136MOL   H27149141   0.590   5.518   4.743 -1.3521 -1.5174 -2.5164
  136MOL   C27249142   0.565   5.349   4.562 -0.0241  0.6785  0.1468
  136MOL   O27349143   0.456   5.405   4.557 -0.2106 -0.3824  0.3813
  136MOL   C27449144   0.609   5.253   4.451 -0.6587 -0.3317  0.9985
  136MOL   C27549145   0.657   5.114   4.483 -0.1486  0.2248 -0.2764
  136MOL   C27649146   0.576   5.029   4.580  0.2535 -0.3361  0.2348
  136MOL   C27749147   0.665   4.907   4.618  0.1203  0.0157 -0.3433
  136MOL   C27849148   0.594   4.805   4.710 -0.5047 -0.6670 -0.3352
  136MOL   O27949149   0.516   4.865   4.811  0.0346 -0.1323 -0.1485
  136MOL   H28049150   0.684   5.306   4.392 -2.0025 -0.5278 -0.9421
  136MOL   H28149151   0.526   5.237   4.382 -1.1464 -0.1490  1.5442
  136MOL   H28249152   0.759   5.130   4.519  0.3305  0.0792 -1.5526
  136MOL   H28349153   0.663   5.057   4.390 -0.3966 -0.6852  0.2616
  136MOL   H28449154   0.475   5.003   4.550  1.0781 -2.4571 -0.8737
  136MOL   H28549155   0.576   5.089   4.671 -3.1020  0.0289  0.0383
  136MOL   H28649156   0.755   4.935   4.671 -0.4424  1.3681 -0.0899
  136MOL   H28749157   0.689   4.851   4.528  0.0967 -1.5753  0.6230
  136MOL   H28849158   0.522   4.746   4.653  0.3406  0.1815 -2.3579
  136MOL   H28949159   0.673   4.740   4.748  0.3280  1.1465  1.0944
  136MOL   C29049160   0.420   4.796   4.877  0.0325 -0.9185  0.6875
  136MOL   O29149161   0.408   4.672   4.872 -0.7310 -0.4468  0.3123
  136MOL   C29249162   0.336   4.887   4.971  0.3103 -0.1731 -0.0775
  136MOL   C29349163   0.296   5.029   4.920 -0.4165  0.9557  0.0366
  136MOL   C29449164   0.193   5.029   4.817  0.0464  0.6521  0.3987
  136MOL   C29549165   0.176   5.152   4.729 -0.4487  1.0227 -0.0204
  136MOL   C29649166   0.107   5.274   4.802  0.0803  0.4365  0.5124
  136MOL   O29749167   0.081   5.387   4.719  0.2855 -0.5106  0.3144
  136MOL   H29849168   0.387   4.894   5.068 -1.8396 -0.6872  1.1247
  136MOL   H29949169   0.243   4.833   4.984  0.2452  0.0260  0.3157
  136MOL   H30049170   0.377   5.098   4.897  0.9337  0.4095  3.0348
  136MOL   H30149171   0.254   5.086   5.003 -3.2807 -0.9617 -0.0102
  136MOL   H30249172   0.093   5.006   4.853 -0.2805  0.1832 -0.8056
  136MOL   H30349173   0.216   4.950   4.746 -2.1351  0.4950 -0.1670
  136MOL   H30449174   0.117   5.122   4.642 -1.4996  0.2123  0.9462
  136MOL   H30549175   0.267   5.192   4.685 -1.4371  0.4970 -2.6261
  136MOL   H30649176   0.008   5.246   4.836  0.0771 -0.3096 -0.1050
  136MOL   H30749177   0.152   5.292   4.900 -0.4296 -1.6120  1.1532
  136MOL   C30849178   0.156   5.502   4.735 -0.1723 -0.1193 -0.8575
  136MOL   O30949179   0.255   5.518   4.815  0.0852 -0.5396 -0.2505
  136MOL   C31049180   0.090   5.616   4.651  0.3916 -0.1841  1.0399
  136MOL   C31149181   0.009   5.721   4.736  0.0978 -0.1582  0.1158
  136MOL   C31249182   0.089   5.815   4.826 -0.1054 -0.5678 -0.1387
  136MOL   C31349183   0.212   5.884   4.751 -0.3626  0.2977 -0.2208
  136MOL   C31449184   0.309   5.951   4.849  0.2871 -0.1945  0.4245
  136MOL   O31549185   0.358   5.853   4.944  0.7787 -0.1285  0.0999
  136MOL   H31649186   0.037   5.570   4.568  2.1269  1.6602 -1.1587
  136MOL   H31749187   0.173   5.664   4.600 -0.0349  1.6383  1.9975
  136MOL   H31849188   7.774   5.667   4.787 -0.4752 -2.2230 -2.8607
  136MOL   H31949189   7.792   5.777   4.666  0.1840 -2.8870 -2.2404
  136MOL   H32049190   0.124   5.770   4.919  0.2173  1.1414  0.5718
  136MOL   H32149191   0.025   5.891   4.870  0.4791 -1.3220  2.0833
  136MOL   H32249192   0.178   5.963   4.684  1.7807  2.3305  1.0258
  136MOL   H32349193   0.263   5.813   4.686  0.3866 -0.6832  1.3952
  136MOL   H32449194   0.387   6.005   4.794 -0.1871 -0.1670 -0.2293
  136MOL   H32549195   0.253   6.027   4.903 -0.6277 -0.4343 -0.1837
  136MOL   C32649196   0.468   5.790   4.918  0.3408 -0.4519  0.3703
  136MOL   O32749197   0.532   5.783   4.816  0.0121  0.8518 -0.5032
  136MOL   C32849198   0.522   5.716   5.044 -0.0785  0.2348 -0.1141
  136MOL   C32949199   0.645   5.785   5.105  0.2158 -0.4685  0.4068
  136MOL   C33049200   0.711   5.686   5.201 -0.5111  0.1860 -0.2280
  136MOL   C33149201   0.853   5.725   5.246 -0.0475 -0.2245 -0.5098
  136MOL   C33249202   0.924   5.634   5.341  0.1516  0.3288 -0.2914
  136MOL   O33349203   0.838   5.611   5.462 -0.3154  0.0725 -0.1039
  136MOL   H33449204   0.541   5.613   5.015  0.8146  0.2950  0.2183
  136MOL   H33549205   0.444   5.712   5.120  0.5538 -0.5456  0.4992
  136MOL   H33649206   0.611   5.878   5.149  0.4012  0.1486 -0.7183
  136MOL   H33749207   0.716   5.801   5.023  0.0119 -0.4777  0.2277
  136MOL   H33849208   0.709   5.580   5.174  1.2142  0.6878 -2.4274
  136MOL   H33949209   0.652   5.685   5.293  0.6384 -1.2239  0.5060
  136MOL   H34049210   0.842   5.823   5.294 -0.9683 -1.1443  1.1902
  136MOL   H34149211   0.921   5.740   5.161  0.8522  1.5692  0.4921
  136MOL   H34249212   0.953   5.534   5.306 -0.4375  0.3532 -0.8653
  136MOL   H34349213   1.010   5.692   5.372 -0.5665  0.1243  2.2124
  136MOL   C34449214   0.822   5.482   5.505 -0.0205  0.0670 -0.9928
  136MOL   O34549215   0.858   5.379   5.452 -0.5232  0.4877  0.0124
  136MOL   C34649216   0.731   5.482   5.635 -0.2794  0.9490  0.0203
  136MOL   C34749217   0.586   5.502   5.598 -0.3452 -0.4675 -0.6256
  136MOL   C34849218   0.534   5.645   5.577  0.5002 -0.4507 -0.4403
  136MOL   C34949219   0.386   5.646   5.548 -0.3034 -0.5134  0.0164
  136MOL   C35049220   0.327   5.787   5.525  0.4284 -0.5377 -0.0263
  136MOL   O35149221   0.412   5.853   5.429 -0.0327  0.4494  0.1129
  136MOL   H35249222   0.765   5.559   5.704 -1.4758  0.3219  1.3378
  136MOL   H35349223   0.731   5.389   5.691  2.4210  0.1430 -1.2473
  136MOL   H35449224   0.524   5.460   5.677 -1.1415  3.4815  0.9772
  136MOL   H35549225   0.544   5.449   5.512  2.9536 -2.6701 -0.9644
  136MOL   H35649226   0.600   5.691   5.503  2.5666 -1.5888  0.6542
  136MOL   H35749227   0.538   5.701   5.670 -0.0714  0.3038 -0.8664
  136MOL   H35849228   0.329   5.603   5.629  0.5779 -1.9367 -0.0998
  136MOL   H35949229   0.374   5.578   5.464 -0.6542 -0.4253 -0.0033
  136MOL   H36049230   0.228   5.783   5.480  0.1205 -2.7849  0.7910
  136MOL   H36149231   0.317   5.852   5.612 -0.7147  0.2642 -0.7308
  136MOL   H36249232   0.502   5.839   5.453 -0.4948  0.0316  1.6553
  137MOL     C149233   0.913   7.789   6.979  0.1517 -0.4957 -0.0026
  137MOL     O249234   0.921   7.697   7.058  0.3538 -0.0723 -0.2306
  137MOL     C349235   0.798   7.779   6.876  0.7604  0.4925 -0.3368
  137MOL     C449236   0.825   7.712   6.736 -0.3024 -0.3433  0.7966
  137MOL     C549237   0.832   7.558   6.736 -0.5079  0.2074 -0.1035
  137MOL     C649238   0.884   7.502   6.605 -0.2165 -1.0690 -0.3746
  137MOL     C749239   0.946   7.371   6.636 -0.5838  0.4948  0.5616
  137MOL     O849240   0.853   7.272   6.669  0.9506 -0.2451 -0.4210
  137MOL     H949241   0.766   0.037   6.857 -2.1006  0.2178  2.6087
  137MOL    H1049242   0.716   7.730   6.928  0.6207  2.4374  1.3075
  137MOL    H1149243   0.917   7.760   6.701 -0.5690  0.6953  1.4909
  137MOL    H1249244   0.757   7.746   6.659  0.8464 -1.0785 -0.5618
  137MOL    H1349245   0.740   7.508   6.768 -1.0265  1.8994  1.1762
  137MOL    H1449246   0.901   7.526   6.814 -3.2138 -2.4103  1.3460
  137MOL    H1549247   0.965   7.564   6.567 -0.6369  0.1422  0.6603
  137MOL    H1649248   0.815   7.500   6.521 -0.5905 -0.3006 -0.0958
  137MOL    H1749249   1.001   7.335   6.549 -2.9094 -2.2685  0.1341
  137MOL    H1849250   1.020   7.369   6.716  0.4587 -0.4522 -0.3926
  137MOL    H1949251   0.987   0.025   6.967 -0.4319  0.1914  0.9759
  137MOL    C2049252   0.858   7.196   6.780 -0.3528  0.4529  0.3205
  137MOL    O2149253   0.950   7.199   6.867  0.1438  0.0669  0.4883
  137MOL    C2249254   0.743   7.099   6.792 -0.0894 -0.8445 -0.0720
  137MOL    C2349255   0.727   7.021   6.924  0.5164 -0.6278 -0.1941
  137MOL    C2449256   0.767   6.878   6.908 -0.0107 -0.9962  0.2940
  137MOL    C2549257   0.916   6.869   6.909 -0.2887 -0.0068 -0.0127
  137MOL    C2649258   0.960   6.724   6.901 -0.2936  0.0547 -0.5728
  137MOL    O2749259   1.102   6.718   6.940  0.1316  0.1631  0.1852
  137MOL    H2849260   0.749   7.038   6.702  1.1543 -2.6744  1.2315
  137MOL    H2949261   0.654   7.162   6.788  1.1090  0.7975 -2.3066
  137MOL    H3049262   0.621   7.025   6.949  0.3990  0.0607 -0.8153
  137MOL    H3149263   0.774   7.077   7.005  4.5579 -1.9902 -1.4898
  137MOL    H3249264   0.718   6.834   6.822 -0.2926 -0.2731  0.0786
  137MOL    H3349265   0.720   6.827   6.993  0.1104  1.2514  1.7562
  137MOL    H3449266   0.954   6.907   7.003 -0.5657 -0.7366  0.3969
  137MOL    H3549267   0.968   6.925   6.831 -0.5809  0.4217  0.1027
  137MOL    H3649268   0.899   6.673   6.974 -0.7829 -0.4618 -1.3309
  137MOL    H3749269   0.929   6.679   6.806 -1.7906 -0.2787  0.0777
  137MOL    C3849270   1.158   6.601   6.927  0.3930 -0.2193  0.0994
  137MOL    O3949271   1.099   6.504   6.886  0.2988 -0.1066  0.1078
  137MOL    C4049272   1.297   6.588   6.993  0.3718 -0.1165 -0.1970
  137MOL    C4149273   1.410   6.592   6.882  0.0059  0.9702 -0.0405
  137MOL    C4249274   1.435   6.730   6.821 -0.3529 -0.4407 -0.2573
  137MOL    C4349275   1.416   6.858   6.910 -0.1722 -0.6961  0.2579
  137MOL    C4449276   1.404   6.987   6.824 -0.5774 -0.5550 -0.7939
  137MOL    O4549277   1.377   7.094   6.913  0.0141 -0.3409 -0.4819
  137MOL    H4649278   1.315   6.492   7.040 -0.6135  0.1876  0.8377
  137MOL    H4749279   1.314   6.661   7.073 -1.5002  0.3811 -0.2372
  137MOL    H4849280   1.370   6.543   6.793 -0.4842 -0.4794  0.9534
  137MOL    H4949281   1.500   6.538   6.911 -0.9058 -0.4718  0.2014
  137MOL    H5049282   1.376   6.738   6.730  0.3356 -0.0284 -0.6767
  137MOL    H5149283   1.534   6.732   6.775 -0.4083 -1.0945 -0.4053
  137MOL    H5249284   1.499   6.869   6.980  0.6821  0.7436 -0.9273
  137MOL    H5349285   1.323   6.848   6.966 -0.3360 -2.2229 -0.2704
  137MOL    H5449286   1.484   7.030   6.764  0.7457  1.1983  2.1377
  137MOL    H5549287   1.325   6.969   6.751 -1.9474  0.8114  0.3291
  137MOL    C5649288   1.318   7.205   6.856 -0.3974 -0.3320 -0.0531
  137MOL    O5749289   1.300   7.224   6.737  0.3335  0.4897  0.3828
  137MOL    C5849290   1.282   7.311   6.968  0.2808 -0.1386  0.2440
  137MOL    C5949291   1.212   7.441   6.925  0.5013  0.4723  0.3652
  137MOL    C6049292   1.289   7.538   6.830  0.3008  0.2597 -0.2890
  137MOL    C6149293   1.228   7.675   6.814 -0.6072 -0.1045  0.2076
  137MOL    C6249294   1.327   7.775   6.753 -0.1312 -0.3941  0.0986
  137MOL    O6349295   1.271   0.063   6.764 -0.1820  0.4643 -0.0565
  137MOL    H6449296   1.374   7.337   7.019  0.5805 -0.8597  0.0724
  137MOL    H6549297   1.215   7.260   7.036  1.4936  0.3201  1.8069
  137MOL    H6649298   1.185   7.495   7.016  0.4241  1.3402 -0.1730
  137MOL    H6749299   1.123   7.420   6.867 -0.3283  0.4807  1.6282
  137MOL    H6849300   1.309   7.492   6.733 -0.1845  0.4461 -0.4756
  137MOL    H6949301   1.385   7.538   6.883  0.7769 -0.7567 -1.1169
  137MOL    H7049302   1.211   7.712   6.915 -0.6532  0.2778  0.0598
  137MOL    H7149303   1.133   7.665   6.762  0.3451  1.6645 -1.9222
  137MOL    H7249304   1.426   7.771   6.799  0.1623 -0.1282 -0.4890
  137MOL    H7349305   1.359   7.748   6.652 -0.3554 -0.8585  0.1507
  137MOL    C7449306   1.341   0.165   6.713 -0.3480 -0.2271 -0.1089
  137MOL    O7549307   1.458   0.158   6.670 -0.1197 -0.2019 -0.2966
  137MOL    C7649308   1.255   0.289   6.726  0.4726  0.3563  0.2664
  137MOL    C7749309   1.238   0.339   6.873  0.3035  0.4147 -0.8985
  137MOL    C7849310   1.131   0.441   6.900  0.1405  0.2241 -0.2807
  137MOL    C7949311   0.994   0.406   6.850  0.4446 -0.1549 -0.3685
  137MOL    C8049312   0.887   0.510   6.882  0.3114 -0.5908 -0.0302
  137MOL    O8149313   0.761   0.456   6.878  0.2997 -0.3471  0.4322
  137MOL    H8249314   1.170   0.255   6.667  0.9645 -1.8758  0.8018
  137MOL    H8349315   1.301   0.364   6.662 -0.3118  0.1878 -0.4901
  137MOL    H8449316   1.334   0.367   6.916  0.3660 -0.3187 -0.5485
  137MOL    H8549317   1.204   0.247   6.921  1.5470  0.5111  0.1846
  137MOL    H8649318   1.163   0.538   6.862  1.0129  0.9159  2.1537
  137MOL    H8749319   1.127   0.449   7.008 -0.5240 -3.9045  0.0525
  137MOL    H8849320   0.959   0.312   6.893 -0.5012  1.0664  1.6399
  137MOL    H8949321   1.005   0.380   6.745  0.5844 -0.3207 -0.3139
  137MOL    H9049322   0.904   0.556   6.979  0.0148 -1.3656  0.3896
  137MOL    H9149323   0.899   0.590   6.809 -1.7661  0.3278  0.6228
  137MOL    C9249324   0.659   0.540   6.899  0.3811  0.3181 -0.3731
  137MOL    O9349325   0.663   0.659   6.910 -0.6044  0.5031 -0.8361
  137MOL    C9449326   0.528   0.465   6.892 -0.0796 -0.0355  0.4476
  137MOL    C9549327   0.491   0.414   6.755  0.3542 -0.2280  0.3760
  137MOL    C9649328   0.574   0.303   6.694 -0.0611 -0.5367 -0.0811
  137MOL    C9749329   0.506   0.219   6.584 -0.3122  0.3095  0.3123
  137MOL    C9849330   0.587   0.101   6.556 -1.3628 -0.4525  0.6110
  137MOL    O9949331   0.708   0.145   6.495 -0.1665 -0.2901  0.0518
  137MOL   H10049332   0.446   0.529   6.926  0.9905  1.3899  0.3762
  137MOL   H10149333   0.536   0.383   6.962  1.2287 -0.9399 -0.7536
  137MOL   H10249334   0.474   0.499   6.689  0.7367  2.2797  3.3962
  137MOL   H10349335   0.389   0.376   6.755 -0.0222  0.7640 -1.0083
  137MOL   H10449336   0.602   0.234   6.774  0.8980 -1.1292 -0.9105
  137MOL   H10549337   0.666   0.344   6.651  1.7886 -4.2874  0.0036
  137MOL   H10649338   0.509   0.282   6.495 -1.4997  1.9456  1.4043
  137MOL   H10749339   0.401   0.199   6.606 -0.3458 -0.5006 -0.5554
  137MOL   H10849340   0.605   0.049   6.650 -1.3079 -0.2957  0.6879
  137MOL   H10949341   0.527   0.037   6.491 -1.0554  0.4202 -0.5717
  137MOL   C11049342   0.761   0.087   6.378  0.5281 -0.2742  0.6949
  137MOL   O11149343   0.705   7.840   6.315  0.2932  0.1383 -0.4758
  137MOL   C11249344   0.895   0.139   6.335  0.3982  0.1957  0.6289
  137MOL   C11349345   1.020   0.082   6.407 -0.8652  0.1881  0.5739
  137MOL   C11449346   1.073   7.793   6.348 -0.0880  0.0707 -0.0148
  137MOL   C11549347   1.206   7.754   6.412 -0.3134  0.2105  0.2342
  137MOL   C11649348   1.240   7.605   6.384 -0.7050  1.1878  0.3488
  137MOL   O11749349   1.368   7.578   6.440 -0.3769  0.0768 -0.9868
  137MOL   H11849350   0.893   0.245   6.362  0.2839  0.2816  0.2782
  137MOL   H11949351   0.912   0.133   6.228  0.5538 -2.4174  0.7732
  137MOL   H12049352   0.992   0.082   6.512 -3.5536 -1.1538 -0.1075
  137MOL   H12149353   1.095   0.160   6.396 -0.5486 -0.2508 -0.4096
  137MOL   H12249354   1.072   7.786   6.239  1.6438  1.0283 -0.1096
  137MOL   H12349355   0.999   7.715   6.369  0.1448 -0.7164 -2.0517
  137MOL   H12449356   1.186   7.763   6.519 -2.2589  3.1171 -0.3412
  137MOL   H12549357   1.292   7.818   6.392 -0.1087 -0.6972 -1.8871
  137MOL   H12649358   1.164   7.535   6.418 -0.7302  0.3074 -1.4522
  137MOL   H12749359   1.249   7.598   6.276 -2.1632  3.0084  0.0888
  137MOL   C12849360   1.443   7.471   6.397  0.4736 -0.3036  0.0645
  137MOL   O12949361   1.399   7.392   6.314  0.2815 -0.2479  0.1423
  137MOL   C13049362   1.583   7.469   6.447  0.1837 -0.3688  0.2329
  137MOL   C13149363   1.580   7.434   6.596  0.1408 -0.0054  0.1804
  137MOL   C13249364   1.725   7.425   6.651 -0.0094  0.3534 -0.4865
  137MOL   C13349365   1.733   7.451   6.803  0.2780  0.3944  0.3408
  137MOL   C13449366   1.852   7.384   6.877 -0.2970 -0.3222  0.0902
  137MOL   O13549367   1.977   7.436   6.841  0.1686  0.4595  0.1142
  137MOL   H13649368   1.628   7.567   6.427 -1.4884  0.6503  1.3052
  137MOL   H13749369   1.616   7.392   6.378  0.7807 -0.2217  0.3485
  137MOL   H13849370   1.517   7.348   6.618  0.2617 -0.7380 -2.2086
  137MOL   H13949371   1.528   7.513   6.650 -0.2853  0.5726 -1.0565
  137MOL   H14049372   1.794   7.498   6.609  4.2003 -3.9507 -1.4908
  137MOL   H14149373   1.765   7.325   6.634  1.6180  1.0321 -0.7412
  137MOL   H14249374   1.646   7.424   6.862  0.0904  0.3494  0.0461
  137MOL   H14349375   1.743   7.557   6.830  0.3926 -0.3707  3.5043
  137MOL   H14449376   1.833   7.394   6.984  2.8431 -5.8098  1.3697
  137MOL   H14549377   1.842   7.276   6.862  1.3746 -0.0484 -3.6324
  137MOL   C14649378   2.088   7.374   6.877  0.1094  0.7446  0.2444
  137MOL   O14749379   2.100   7.266   6.933 -0.1726  0.1609  0.3525
  137MOL   C14849380   2.212   7.447   6.828  0.5218  0.4416 -0.8545
  137MOL   C14949381   2.349   7.374   6.860  0.1721  0.5379 -0.7680
  137MOL   C15049382   2.483   7.443   6.815  0.0100  1.0843  0.0461
  137MOL   C15149383   2.609   7.372   6.854 -0.4076 -1.2918 -0.3196
  137MOL   C15249384   2.701   7.337   6.739  0.5940 -0.0700 -0.3667
  137MOL   O15349385   2.807   7.256   6.787  0.7683  0.2176  0.1835
  137MOL   H15449386   2.211   7.543   6.880  0.3191 -0.1591  0.2707
  137MOL   H15549387   2.203   7.463   6.721 -1.5106 -2.1182 -1.0985
  137MOL   H15649388   2.344   7.273   6.820 -0.8277  1.2434 -2.4331
  137MOL   H15749389   2.360   7.369   6.969  0.4422 -1.5738 -0.8640
  137MOL   H15849390   2.483   7.546   6.848  0.1775  1.0517  0.1528
  137MOL   H15949391   2.487   7.444   6.706 -0.0954  1.5235  0.0457
  137MOL   H16049392   2.587   7.285   6.916  0.5810 -0.5079  1.1635
  137MOL   H16149393   2.660   7.429   6.932  1.6762 -0.3732 -2.2848
  137MOL   H16249394   2.656   7.275   6.662 -0.6805  1.0356 -0.5305
  137MOL   H16349395   2.724   7.431   6.691 -1.4767  1.4648  1.5301
  137MOL   C16449396   2.933   7.281   6.756 -0.7169  0.6515  0.4118
  137MOL   O16549397   2.981   7.385   6.719 -0.2378  0.3294  0.0563
  137MOL   C16649398   3.024   7.166   6.799 -0.2431 -0.2032  0.7165
  137MOL   C16749399   3.165   7.182   6.742  0.8581 -0.1718 -0.1789
  137MOL   C16849400   3.244   7.053   6.766  0.1830 -0.4539  0.1957
  137MOL   C16949401   3.388   7.065   6.719  0.2365  0.4638 -0.2068
  137MOL   C17049402   3.469   6.934   6.715 -0.3834 -0.0746 -0.1037
  137MOL   O17149403   3.607   6.967   6.707  0.0793 -0.1164 -0.1549
  137MOL   H17249404   2.981   7.069   6.777 -1.2834  0.2066  0.8855
  137MOL   H17349405   3.044   7.169   6.907  0.4033 -2.3280  0.6749
  137MOL   H17449406   3.204   7.269   6.795  1.1214 -0.9167  0.8699
  137MOL   H17549407   3.154   7.200   6.636  2.0452  1.2306 -0.0834
  137MOL   H17649408   3.197   6.970   6.714  0.6461  0.0696 -1.0788
  137MOL   H17749409   3.235   7.031   6.872 -1.7156  1.6884  0.5223
  137MOL   H17849410   3.449   7.126   6.785  0.3511  0.4104 -0.2653
  137MOL   H17949411   3.394   7.115   6.623 -1.6875  1.2717  0.0582
  137MOL   H18049412   3.441   6.893   6.813 -2.9135  0.6119 -0.5036
  137MOL   H18149413   3.436   6.872   6.632  1.8550 -0.3402 -0.8296
  137MOL   C18249414   3.656   6.994   6.575  0.2519  0.1959  0.1451
  137MOL   O18349415   3.596   6.968   6.471 -0.1584  0.9955 -0.6480
  137MOL   C18449416   3.792   7.066   6.575 -0.1428 -0.1139 -0.2882
  137MOL   C18549417   3.898   6.964   6.528  0.5574 -0.5301  0.4973
  137MOL   C18649418   4.038   7.025   6.507 -0.4578 -0.6427 -0.5347
  137MOL   C18749419   4.095   7.080   6.645  0.6593  0.2226  0.1708
  137MOL   C18849420   4.235   7.147   6.633 -0.8240 -0.2144 -0.3040
  137MOL   O18949421   4.208   7.265   6.559 -0.1460  0.4609 -0.1809
  137MOL   H19049422   3.806   7.116   6.671 -1.5778 -1.1981  0.5112
  137MOL   H19149423   3.771   7.152   6.512  0.9717  1.3980  1.3518
  137MOL   H19249424   3.860   6.922   6.435 -0.5130 -0.4911  0.9091
  137MOL   H19349425   3.907   6.884   6.601  1.2073  0.2192  1.2540
  137MOL   H19449426   4.018   7.103   6.434  0.5322  0.6004  0.5023
  137MOL   H19549427   4.115   6.967   6.456  0.6399 -0.4121  0.8374
  137MOL   H19649428   4.104   7.009   6.727  0.3859  1.5583  1.3880
  137MOL   H19749429   4.024   7.154   6.682  1.3695  0.6851  0.6276
  137MOL   H19849430   4.267   7.172   6.734  1.5309 -1.4314 -0.6997
  137MOL   H19949431   4.310   7.083   6.587 -0.5045  1.5035 -2.2177
  137MOL   C20049432   4.306   7.315   6.475  0.0944 -0.0841  0.0821
  137MOL   O20149433   4.414   7.259   6.448 -0.1788 -0.2445  0.1725
  137MOL   C20249434   4.266   7.449   6.421 -0.4946  0.3406 -0.2345
  137MOL   C20349435   4.348   7.502   6.303 -0.6268  0.0194  0.3649
  137MOL   C20449436   4.283   7.609   6.217  0.3779  0.6020 -1.0842
  137MOL   C20549437   4.359   7.655   6.088 -0.5787 -0.5240  0.0312
  137MOL   C20649438   4.269   7.747   6.001 -0.5789  0.1226  0.3848
  137MOL   O20749439   4.150   7.674   5.973  0.0234  0.5255 -0.4717
  137MOL   H20849440   4.269   7.522   6.502 -0.3656 -0.6705  0.6766
  137MOL   H20949441   4.161   7.448   6.391 -0.9492  0.5672  1.3026
  137MOL   H21049442   4.376   7.429   6.227 -1.0371  0.3056 -0.0629
  137MOL   H21149443   4.438   7.547   6.344 -1.2227  0.6426  1.0212
  137MOL   H21249444   4.265   7.687   6.292  1.1614  1.3404 -1.6594
  137MOL   H21349445   4.184   7.579   6.182  0.1872 -0.6279  0.4391
  137MOL   H21449446   4.390   7.563   6.038 -0.6554 -0.2050 -0.5995
  137MOL   H21549447   4.446   7.708   6.127 -1.3137 -0.3601  1.5074
  137MOL   H21649448   4.253   0.000   6.046 -0.2111  0.2863  0.1635
  137MOL   H21749449   4.318   7.754   5.904 -0.6770  0.9068  0.3943
  137MOL   C21849450   4.063   7.731   5.895  0.5579 -0.5766  0.6511
  137MOL   O21949451   4.082   0.000   5.848 -0.2003 -0.4756  0.2908
  137MOL   C22049452   3.927   7.660   5.864  0.4452  0.3475 -0.9860
  137MOL   C22149453   3.842   7.616   5.988 -0.1632 -0.9151  0.0526
  137MOL   C22249454   3.740   7.507   5.971 -0.1227  0.6956  0.2904
  137MOL   C22349455   3.611   7.551   5.920 -0.1463  0.1035 -0.2220
  137MOL   C22449456   3.512   7.441   5.919 -0.3823  0.8659  0.7843
  137MOL   O22549457   3.548   7.328   5.838 -0.6884  0.2735  0.1384
  137MOL   H22649458   3.948   7.574   5.801  0.8774  1.2057 -2.0174
  137MOL   H22749459   3.871   7.735   5.809 -1.3191  0.0070  0.2975
  137MOL   H22849460   3.788   7.702   6.028  0.4598 -0.6417  0.3101
  137MOL   H22949461   3.914   7.588   6.065  0.1686 -0.8435 -0.2297
  137MOL   H23049462   3.717   7.460   6.067  2.5805  1.4231  1.3239
  137MOL   H23149463   3.785   7.422   5.919 -1.3131 -0.6872  1.4490
  137MOL   H23249464   3.618   7.587   5.817 -2.4112  0.6800 -0.1994
  137MOL   H23349465   3.577   7.628   5.989  0.9800  2.1136 -1.8429
  137MOL   H23449466   3.490   7.409   6.021 -1.6413  1.2288  0.6267
  137MOL   H23549467   3.420   7.472   5.870  0.0565 -0.4608 -0.9141
  137MOL   C23649468   3.453   7.240   5.806  0.3284 -0.0978 -0.2942
  137MOL   O23749469   3.351   7.220   5.866  0.1049 -0.0172  0.0221
  137MOL   C23849470   3.492   7.152   5.690  0.2742 -0.3400 -0.4029
  137MOL   C23949471   3.626   7.080   5.711  0.1946 -0.0523  0.4126
  137MOL   C24049472   3.659   6.982   5.592 -0.6089 -0.3122  0.2701
  137MOL   C24149473   3.783   6.907   5.627 -0.4467  0.6258 -0.1937
  137MOL   C24249474   3.813   6.786   5.534 -0.4712 -0.3122 -0.3244
  137MOL   O24349475   3.839   6.834   5.402  0.4482  0.0388 -0.2229
  137MOL   H24449476   3.495   7.217   5.603  0.3957 -0.2350 -0.3210
  137MOL   H24549477   3.412   7.078   5.683  0.5699 -0.8043  0.8873
  137MOL   H24649478   3.627   7.019   5.802 -0.5820  0.0730  0.5059
  137MOL   H24749479   3.706   7.151   5.733  1.2241 -0.3766 -2.1191
  137MOL   H24849480   3.674   7.027   5.493 -1.8683  2.8229  1.4130
  137MOL   H24949481   3.583   6.904   5.582  1.2724 -2.2664  0.9386
  137MOL   H25049482   3.761   6.855   5.720 -0.2758  2.6518  0.9919
  137MOL   H25149483   3.874   6.966   5.636 -0.9666  1.3818  0.1306
  137MOL   H25249484   3.893   6.724   5.575 -0.4521  1.2401  2.1265
  137MOL   H25349485   3.727   6.719   5.526 -1.3596  0.6931  0.7065
  137MOL   C25449486   3.916   6.757   5.314 -0.1370 -0.0443  0.3795
  137MOL   O25549487   3.974   6.656   5.348 -0.0964 -0.0197 -0.1073
  137MOL   C25649488   3.943   6.809   5.173  0.0538 -0.3675 -0.3166
  137MOL   C25749489   3.902   6.956   5.155  0.1133 -0.1533  0.5034
  137MOL   C25849490   3.751   6.989   5.164  0.4503 -0.4540  0.2931
  137MOL   C25949491   3.715   7.132   5.122 -0.9559  0.0303 -0.4979
  137MOL   C26049492   3.565   7.164   5.153  0.0740  0.3151 -0.1318
  137MOL   O26149493   3.557   7.301   5.119 -0.3278 -0.2608 -0.0169
  137MOL   H26249494   3.900   6.739   5.101 -0.3362  0.8527 -1.2867
  137MOL   H26349495   4.052   6.809   5.168  0.0561 -2.0447 -0.5381
  137MOL   H26449496   3.950   7.007   5.071 -0.8255  1.7188  1.0733
  137MOL   H26549497   3.936   7.000   5.249  0.5898 -1.1556  0.8073
  137MOL   H26649498   3.710   6.976   5.264  1.8161  0.6464  1.0227
  137MOL   H26749499   3.700   6.925   5.092 -0.2440  0.5204 -0.0933
  137MOL   H26849500   3.748   7.155   5.021  0.0120  1.7976  0.1978
  137MOL   H26949501   3.778   7.192   5.188 -2.7737  0.5214  0.8187
  137MOL   H27049502   3.492   7.106   5.096 -0.3011  2.8442 -2.3733
  137MOL   H27149503   3.528   7.152   5.254 -0.7135  0.7566 -0.3583
  137MOL   C27249504   3.514   7.339   4.991 -0.2529 -0.0420 -0.1400
  137MOL   O27349505   3.479   7.260   4.903  0.0915  0.8357  0.7909
  137MOL   C27449506   3.500   7.490   4.973 -0.8020 -0.0885 -0.0724
  137MOL   C27549507   3.638   7.551   4.941  0.0135 -0.8107  0.0918
  137MOL   C27649508   3.725   7.602   5.060 -0.1094 -0.0243 -0.3395
  137MOL   C27749509   3.832   7.704   5.008 -0.0998 -0.8348 -0.5054
  137MOL   C27849510   3.962   7.653   4.948  0.3970 -0.1839  1.0211
  137MOL   O27949511   4.048   7.599   5.047 -0.1617 -0.2001  0.0184
  137MOL   H28049512   3.447   7.525   5.062  0.3490 -0.5305  0.8064
  137MOL   H28149513   3.437   7.519   4.889  1.3928 -0.1277 -1.7625
  137MOL   H28249514   3.616   7.637   4.878  2.3674 -0.3654 -0.1596
  137MOL   H28349515   3.694   7.476   4.885 -0.0710 -0.8448  0.0535
  137MOL   H28449516   3.771   7.519   5.113 -1.4816 -1.8474 -1.9715
  137MOL   H28549517   3.659   7.658   5.126  2.2012 -0.7525  2.6608
  137MOL   H28649518   3.858   7.774   5.087  0.6868  1.0274 -2.3725
  137MOL   H28749519   3.786   7.771   4.935  0.3927 -0.0714 -0.1243
  137MOL   H28849520   3.934   7.583   4.869 -1.9011  1.1830  0.5477
  137MOL   H28949521   4.022   7.721   4.888  0.6882 -1.2615  0.0661
  137MOL   C29049522   4.073   7.467   5.037  0.3774 -0.0395 -0.6380
  137MOL   O29149523   4.007   7.391   4.961  0.8455 -0.7723 -0.2282
  137MOL   C29249524   4.168   7.419   5.137  0.6905 -0.5519 -0.0449
  137MOL   C29349525   4.184   7.266   5.141  0.7248 -0.3842 -0.4650
  137MOL   C29449526   4.245   7.203   5.017  0.4355 -0.1913 -0.2708
  137MOL   C29549527   4.279   7.051   5.043  0.6015 -0.3558  0.8953
  137MOL   C29649528   4.352   6.980   4.932 -0.0009 -0.1621  0.5183
  137MOL   O29749529   4.257   6.958   4.824  0.4568  0.1780  0.4550
  137MOL   H29849530   4.138   7.456   5.235 -0.2371 -1.8995  0.1930
  137MOL   H29949531   4.261   7.468   5.105 -0.2384  1.5390  0.3872
  137MOL   H30049532   4.089   7.213   5.147 -1.3304  3.3767  2.4842
  137MOL   H30149533   4.242   7.247   5.231 -1.9672 -2.0224  0.9871
  137MOL   H30249534   4.342   7.253   5.010  0.4922 -0.3832 -0.8941
  137MOL   H30349535   4.193   7.214   4.922 -1.1339 -1.7526  0.3775
  137MOL   H30449536   4.193   6.990   5.071  0.2762  0.7446  2.3635
  137MOL   H30549537   4.339   7.048   5.134 -0.1546 -1.9487  1.3628
  137MOL   H30649538   4.437   7.037   4.896 -0.7791  0.2771 -0.6588
  137MOL   H30749539   4.396   6.890   4.975 -1.1907 -0.2355  1.6304
  137MOL   C30849540   4.192   6.840   4.824  0.8208  0.4780 -0.1702
  137MOL   O30949541   4.181   6.761   4.918  0.1740  0.7802  0.1463
  137MOL   C31049542   4.110   6.825   4.690 -0.0662  0.2810 -0.2387
  137MOL   C31149543   3.965   6.772   4.697 -0.0851 -0.2119 -0.1810
  137MOL   C31249544   3.872   6.856   4.789  0.0788  0.8832 -0.2098
  137MOL   C31349545   3.719   6.820   4.783  0.2666 -0.1396 -0.0433
  137MOL   C31449546   3.692   6.691   4.873  0.0171  0.3590 -0.0683
  137MOL   O31549547   3.554   6.647   4.892  0.2228  0.4102  0.0303
  137MOL   H31649548   4.153   6.739   4.638  0.6582  0.2210  0.4508
  137MOL   H31749549   4.125   6.914   4.630  0.9364  0.1988 -0.1234
  137MOL   H31849550   3.967   6.671   4.738  0.4617 -0.0510  0.1943
  137MOL   H31949551   3.924   6.749   4.599 -1.9484 -1.6934  0.8990
  137MOL   H32049552   3.902   6.961   4.784  0.6687  0.7137 -0.3218
  137MOL   H32149553   3.903   6.839   4.892 -0.8610  0.3475 -0.0149
  137MOL   H32249554   3.687   6.794   4.682 -1.8664 -3.1398  1.3287
  137MOL   H32349555   3.674   6.910   4.824 -0.4835 -0.5518  0.0491
  137MOL   H32449556   3.749   6.606   4.836 -0.7466 -0.1777 -0.0184
  137MOL   H32549557   3.740   6.712   4.968 -1.6022 -0.1442  0.8832
  137MOL   C32649558   3.509   6.625   5.022  0.2971 -0.5106 -0.5943
  137MOL   O32749559   3.576   6.652   5.119  0.3727 -0.8826  0.1913
  137MOL   C32849560   3.372   6.558   5.038 -0.5473 -0.4549  0.4808
  137MOL   C32949561   3.327   6.470   4.921 -0.0348  0.9616  0.2077
  137MOL   C33049562   3.376   6.323   4.917  0.1563  0.5036 -0.4957
  137MOL   C33149563   3.314   6.237   4.812 -0.5947 -0.2205  0.1684
  137MOL   C33249564   3.383   6.105   4.792  0.1347  0.1449  0.4990
  137MOL   O33349565   3.321   6.029   4.696  0.1316 -0.7498 -0.3075
  137MOL   H33449566   3.298   6.632   5.068 -1.2642 -0.3417 -1.4648
  137MOL   H33549567   3.382   6.492   5.125  0.8644 -0.5995  0.2228
  137MOL   H33649568   3.352   6.514   4.825 -0.9415  0.0544 -0.4599
  137MOL   H33749569   3.218   6.470   4.914  0.0083  2.4364 -0.7017
  137MOL   H33849570   3.372   6.277   5.016 -0.8515 -1.7400 -1.5657
  137MOL   H33949571   3.480   6.326   4.884  1.4291 -2.2539  2.9115
  137MOL   H34049572   3.309   6.288   4.716 -1.2899 -1.2897 -0.3697
  137MOL   H34149573   3.217   6.216   4.858 -0.7627  0.8417  0.3173
  137MOL   H34249574   3.485   6.124   4.760 -0.1635  0.7762 -0.0870
  137MOL   H34349575   3.394   6.046   4.884 -0.4613  1.3056  1.3259
  137MOL   C34449576   3.221   5.943   4.727  0.5885  0.0263  0.3943
  137MOL   O34549577   3.181   5.920   4.841 -0.2777  0.6037 -0.4701
  137MOL   C34649578   3.151   5.881   4.606 -1.0056  0.2906 -0.6095
  137MOL   C34749579   3.067   5.763   4.624  0.3485 -0.1442 -0.6706
  137MOL   C34849580   3.012   5.697   4.498  0.1666 -0.1054 -0.7300
  137MOL   C34949581   3.111   5.627   4.413  0.1945  0.3612  0.0414
  137MOL   C35049582   3.043   5.559   4.289  0.2568 -0.0016  0.3907
  137MOL   O35149583   2.972   5.650   4.200  0.1579 -0.0812  0.4352
  137MOL   H35249584   3.224   5.866   4.526  0.3529  0.4233  0.5777
  137MOL   H35349585   3.090   5.965   4.572 -0.2381  2.8987  4.0976
  137MOL   H35449586   2.991   5.780   4.701 -1.1684  0.6100 -2.2788
  137MOL   H35549587   3.127   5.687   4.673  1.0090  0.7169 -0.1349
  137MOL   H35649588   2.965   5.778   4.442  0.8377  0.4392 -0.5085
  137MOL   H35749589   2.927   5.635   4.528  0.7408 -0.1296  0.8688
  137MOL   H35849590   3.173   5.559   4.471  1.5584  0.6338 -1.0802
  137MOL   H35949591   3.192   5.689   4.376  0.2802  1.2369  1.6462
  137MOL   H36049592   3.126   5.502   4.249  0.9582  0.6381  0.9147
  137MOL   H36149593   2.967   5.484   4.311 -2.6909  2.2602 -1.6736
  137MOL   H36249594   2.935   5.608   4.124 -0.6804 -0.1816  0.8937
  138MOL     C149595   2.231   3.360   3.122 -0.3417 -0.5360 -0.6787
  138MOL     O249596   2.223   3.470   3.181 -0.3703  0.3810 -0.4666
  138MOL     C349597   2.118   3.299   3.055  0.3683  0.1477 -0.0905
  138MOL     C449598   2.100   3.340   2.907 -0.0348  0.0967  0.1955
  138MOL     C549599   2.064   3.489   2.897  0.1049  0.3336  0.2657
  138MOL     C649600   2.009   3.514   2.761 -0.8491 -0.5163  0.2162
  138MOL     C749601   1.990   3.670   2.734 -0.5128  0.0772 -0.5362
  138MOL     O849602   2.118   3.736   2.736 -0.4809  0.3227 -0.2176
  138MOL     H949603   2.030   3.328   3.113  0.8122  1.9736 -0.3054
  138MOL    H1049604   2.145   3.194   3.068  2.6413  0.8759  1.5186
  138MOL    H1149605   2.013   3.288   2.867  0.7006  0.0286 -1.3810
  138MOL    H1249606   2.180   3.318   2.836 -0.2914 -1.8929  0.5060
  138MOL    H1349607   2.156   3.545   2.914  0.8708 -0.8062  0.0076
  138MOL    H1449608   1.981   3.512   2.963  0.7548 -1.8416  1.8812
  138MOL    H1549609   1.910   3.469   2.751 -1.3252  0.5643 -0.1124
  138MOL    H1649610   2.081   3.463   2.697 -1.4771 -0.3832 -0.5999
  138MOL    H1749611   1.947   3.694   2.637 -1.1454  1.2573  0.0224
  138MOL    H1849612   1.922   3.719   2.804 -0.0688 -0.8255  0.5380
  138MOL    H1949613   2.316   3.291   3.119  0.3579  0.2984 -0.3081
  138MOL    C2049614   2.137   3.871   2.734  0.0762  0.3252 -0.1547
  138MOL    O2149615   2.038   3.951   2.748 -0.0569 -0.7792  0.0736
  138MOL    C2249616   2.282   3.911   2.733  0.2441 -0.2403 -0.1690
  138MOL    C2349617   2.345   3.936   2.878 -0.2933  0.9707  0.5363
  138MOL    C2449618   2.294   4.072   2.929 -0.1092  0.1412  0.8402
  138MOL    C2549619   2.340   4.106   3.072  1.0376  1.0543  0.3915
  138MOL    C2649620   2.492   4.087   3.085 -0.2584 -0.6432 -0.2996
  138MOL    O2749621   2.560   4.167   2.987 -0.3401  0.4796 -0.1418
  138MOL    H2849622   2.296   3.987   2.657 -1.3045 -1.3943 -1.6457
  138MOL    H2949623   2.340   3.827   2.695 -0.1249 -0.2404 -0.7385
  138MOL    H3049624   2.451   3.939   2.854  0.1710 -2.3503  1.8413
  138MOL    H3149625   2.330   3.855   2.949  0.4693  3.2898  3.4062
  138MOL    H3249626   2.185   4.066   2.940 -0.0932 -0.2433  0.8048
  138MOL    H3349627   2.305   4.155   2.860  0.2763 -0.4965  0.1207
  138MOL    H3449628   2.291   4.046   3.149 -1.4565 -0.0269 -1.9486
  138MOL    H3549629   2.316   4.212   3.087 -1.1828  0.2600  2.9493
  138MOL    H3649630   2.527   4.124   3.182 -2.7254  0.6149  0.1521
  138MOL    H3749631   2.526   3.983   3.078  0.1798 -0.4951 -0.3505
  138MOL    C3849632   2.701   4.163   2.983 -0.4138  0.2067 -0.4593
  138MOL    O3949633   2.782   4.095   3.053 -0.1655  0.2145 -0.4400
  138MOL    C4049634   2.755   4.269   2.885  0.4350 -1.1383 -0.1993
  138MOL    C4149635   2.661   4.304   2.767  0.0209 -0.1933 -0.3631
  138MOL    C4249636   2.627   4.189   2.667 -0.0779  0.7941  0.3219
  138MOL    C4349637   2.545   4.252   2.552 -0.3604  0.2805  0.2602
  138MOL    C4449638   2.482   4.153   2.462  0.5291  0.3982 -0.4821
  138MOL    O4549639   2.443   4.208   2.342  0.3907  0.4820  0.0911
  138MOL    H4649640   2.852   4.240   2.846  0.5978  0.7469 -1.2712
  138MOL    H4749641   2.775   4.358   2.945 -0.2156 -1.2402  0.1785
  138MOL    H4849642   2.698   4.394   2.718 -0.9350 -0.4652 -1.5995
  138MOL    H4949643   2.570   4.342   2.812 -0.8034 -1.5694 -0.8524
  138MOL    H5049644   2.565   4.112   2.712  0.8067  0.3908  0.8671
  138MOL    H5149645   2.722   4.145   2.636  0.1728  0.3739  1.6525
  138MOL    H5249646   2.619   4.299   2.488 -1.5095 -0.8036 -1.9374
  138MOL    H5349647   2.479   4.334   2.579  3.0331  2.9701  0.7982
  138MOL    H5449648   2.551   4.074   2.430 -0.1203  0.1286 -1.2261
  138MOL    H5549649   2.397   4.116   2.519  2.0760 -2.6718 -0.0645
  138MOL    C5649650   2.344   4.157   2.267 -0.0047 -0.0303  0.0303
  138MOL    O5749651   2.308   4.038   2.276 -0.1228  0.5585 -0.4640
  138MOL    C5849652   2.295   4.259   2.160  0.6129 -0.1175  0.0394
  138MOL    C5949653   2.156   4.221   2.099  0.4547 -0.3922 -0.4574
  138MOL    C6049654   2.041   4.254   2.198 -0.9713  0.8892 -0.0345
  138MOL    C6149655   1.908   4.207   2.131  0.1090 -0.3718 -0.2689
  138MOL    C6249656   1.780   4.248   2.203 -0.3143  0.0193  0.3363
  138MOL    O6349657   1.802   4.264   2.340 -0.2916 -0.0330  0.5992
  138MOL    H6449658   2.364   4.257   2.076  0.4357 -0.4813 -0.0991
  138MOL    H6549659   2.282   4.362   2.192  0.7733  0.3489 -1.3650
  138MOL    H6649660   2.151   4.116   2.070 -0.0078 -0.1428 -1.2976
  138MOL    H6749661   2.133   4.275   2.007  0.5968  1.3333  0.5046
  138MOL    H6849662   2.034   4.357   2.232  0.5401  0.3111  2.1436
  138MOL    H6949663   2.044   4.184   2.282  0.8725 -0.5306 -1.2325
  138MOL    H7049664   1.896   4.100   2.113 -0.3186 -0.5600  1.0573
  138MOL    H7149665   1.910   4.246   2.030  0.0274 -2.0952 -0.9461
  138MOL    H7249666   1.751   4.342   2.157 -1.4813 -0.1468  0.7131
  138MOL    H7349667   1.708   4.170   2.177 -0.6027  0.9047 -1.5793
  138MOL    C7449668   1.692   4.284   2.412  0.1050  0.0791  0.2426
  138MOL    O7549669   1.585   4.265   2.364  0.4446 -0.2425 -0.4127
  138MOL    C7649670   1.711   4.322   2.560  0.3023  0.1228 -0.4569
  138MOL    C7749671   1.620   4.248   2.661  0.2550  0.4336  0.6156
  138MOL    C7849672   1.478   4.308   2.667 -0.2470 -0.5847  0.2006
  138MOL    C7949673   1.379   4.228   2.751  0.0072  0.4175 -0.0381
  138MOL    C8049674   1.241   4.293   2.768 -0.0396  1.0280 -0.5920
  138MOL    O8149675   1.178   4.228   2.876 -0.0353 -0.1633  0.1744
  138MOL    H8249676   1.705   4.430   2.571  2.4109  0.0303  2.2792
  138MOL    H8349677   1.812   4.287   2.581 -0.5333 -0.7468  2.3843
  138MOL    H8449678   1.666   4.250   2.760 -1.4099 -3.3435  1.5593
  138MOL    H8549679   1.618   4.139   2.650 -2.4654  0.4435  0.7283
  138MOL    H8649680   1.444   4.325   2.565  0.4735  1.5800  0.2990
  138MOL    H8749681   1.471   4.410   2.705 -1.2293  0.2654 -2.1717
  138MOL    H8849682   1.428   4.225   2.848  1.1560 -0.1470 -0.6276
  138MOL    H8949683   1.370   4.123   2.721  1.1768 -0.0796  1.3264
  138MOL    H9049684   1.256   4.399   2.792  0.5060  0.8818 -0.2723
  138MOL    H9149685   1.178   4.284   2.680 -2.0079 -1.5704  1.0265
  138MOL    C9249686   1.136   4.293   2.985  0.3250 -0.5981  0.2983
  138MOL    O9349687   1.166   4.414   3.011  0.0311 -0.4556 -0.2773
  138MOL    C9449688   1.048   4.204   3.072  0.2772  0.1858 -0.2028
  138MOL    C9549689   0.902   4.200   3.029  0.1721  0.1159 -0.0115
  138MOL    C9649690   0.825   4.079   3.095 -0.2705 -0.6676  0.4571
  138MOL    C9749691   0.679   4.058   3.046  0.3267 -0.2084  0.2097
  138MOL    C9849692   0.592   3.954   3.102  0.3218  0.2583  0.1347
  138MOL    O9949693   0.596   3.955   3.243 -0.4910  0.1044  0.4501
  138MOL   H10049694   1.060   4.223   3.179  1.8026  0.5725 -0.4232
  138MOL   H10149695   1.081   4.100   3.061 -0.4806 -0.2718  1.6634
  138MOL   H10249696   0.899   4.179   2.922  0.2569  0.2299 -0.0356
  138MOL   H10349697   0.844   4.292   3.039 -1.7200 -0.9329 -1.0238
  138MOL   H10449698   0.823   4.100   3.202  3.2995  3.8476 -0.2105
  138MOL   H10549699   0.885   3.989   3.082 -0.2466 -0.4329 -1.1849
  138MOL   H10649700   0.676   4.049   2.937 -1.0318 -1.3132  0.3186
  138MOL   H10749701   0.626   4.152   3.057  1.1682  0.0604  2.1414
  138MOL   H10849702   0.490   3.964   3.064  0.6749 -1.6838 -1.3718
  138MOL   H10949703   0.625   3.861   3.057  1.9921 -0.2922  2.4075
  138MOL   C11049704   0.521   3.883   3.316 -0.0356  0.9888  0.5088
  138MOL   O11149705   0.422   3.818   3.270  0.3659 -0.1820 -0.5239
  138MOL   C11249706   0.531   3.905   3.466 -0.3381 -0.1859  0.1042
  138MOL   C11349707   0.463   3.789   3.554 -0.2940  0.2851  0.1659
  138MOL   C11449708   0.537   3.656   3.572  1.1898  0.3085 -1.0674
  138MOL   C11549709   0.674   3.668   3.634  0.4265 -0.0700  0.8038
  138MOL   C11649710   0.724   3.539   3.691  0.3666  0.2897 -0.4924
  138MOL   O11749711   0.739   3.443   3.586  0.1591 -0.2592  0.0916
  138MOL   H11849712   0.468   3.991   3.491  1.1652  0.7998  0.5596
  138MOL   H11949713   0.635   3.922   3.494 -0.7695  1.1057  1.0075
  138MOL   H12049714   0.363   3.776   3.512  0.1010  0.8871 -0.9852
  138MOL   H12149715   0.449   3.846   3.645 -1.2356  0.4527 -0.0806
  138MOL   H12249716   0.540   3.593   3.483  2.3178 -0.2306 -0.6607
  138MOL   H12349717   0.478   3.595   3.641 -0.7367  0.5278 -2.4887
  138MOL   H12449718   0.664   3.736   3.719  1.4240 -2.2010  2.7058
  138MOL   H12549719   0.744   3.705   3.559 -0.5855 -2.2469 -1.2690
  138MOL   H12649720   0.814   3.553   3.751  0.1368  0.5485 -0.2043
  138MOL   H12749721   0.645   3.495   3.751 -1.0085 -0.9365 -3.1159
  138MOL   C12849722   0.864   3.426   3.527 -0.8209 -0.7106 -0.2573
  138MOL   O12949723   0.955   3.504   3.554  0.7023  0.5333  0.0730
  138MOL   C13049724   0.882   3.305   3.432 -0.5825 -0.2174  0.3168
  138MOL   C13149725   0.758   3.269   3.344 -0.0875 -0.8014 -0.7038
  138MOL   C13249726   0.744   3.336   3.204  0.4311 -0.7868  0.1677
  138MOL   C13349727   0.681   3.475   3.215  0.2015 -0.3076 -0.2512
  138MOL   C13449728   0.710   3.579   3.103 -0.5165  0.5547  1.0152
  138MOL   O13549729   0.850   3.599   3.085 -0.4201 -0.0725  0.2622
  138MOL   H13649730   0.904   3.221   3.499 -1.5401 -0.4717  0.3268
  138MOL   H13749731   0.973   3.323   3.377 -0.2587  0.2491  1.0031
  138MOL   H13849732   0.665   3.282   3.400  0.6799  2.3933 -0.0612
  138MOL   H13949733   0.769   3.160   3.343 -1.4444 -0.9380 -1.2703
  138MOL   H14049734   0.677   3.283   3.137 -0.9723  1.4079 -0.2110
  138MOL   H14149735   0.845   3.330   3.162  0.8183  0.0351  0.9753
  138MOL   H14249736   0.730   3.524   3.300 -1.1372 -0.1420  0.4371
  138MOL   H14349737   0.578   3.460   3.247 -0.0809 -1.3894 -1.6128
  138MOL   H14449738   0.664   3.553   3.008 -1.8130 -3.7286  2.6739
  138MOL   H14549739   0.667   3.676   3.125  1.6423  1.2997  2.1443
  138MOL   C14649740   0.910   3.681   3.160 -0.1559  0.3146  0.1995
  138MOL   O14749741   0.860   3.764   3.229  0.2824 -0.4401 -0.3978
  138MOL   C14849742   1.065   3.680   3.142 -0.4301 -0.4753  0.7821
  138MOL   C14949743   1.137   3.771   3.034  0.0160  0.4986 -0.5663
  138MOL   C15049744   1.079   3.763   2.889 -0.4460 -0.2469 -0.1626
  138MOL   C15149745   1.118   3.889   2.810 -0.3105 -0.7975  0.1933
  138MOL   C15249746   1.048   3.894   2.674  0.7825  0.8044  0.3098
  138MOL   O15349747   0.938   3.989   2.684  0.2852 -0.1502  0.3275
  138MOL   H15449748   1.080   3.574   3.122 -0.6055 -0.5606  1.1155
  138MOL   H15549749   1.112   3.711   3.235 -0.9658  2.2245  0.1946
  138MOL   H15649750   1.245   3.767   3.054 -0.1279  1.2571  0.4283
  138MOL   H15749751   1.114   3.871   3.070  0.1917  0.3309  0.0180
  138MOL   H15849752   0.971   3.750   2.891 -0.2313 -2.0466  2.8469
  138MOL   H15949753   1.125   3.675   2.843  2.3181  0.4918  1.0767
  138MOL   H16049754   1.226   3.898   2.799 -0.6125  2.9331 -0.6065
  138MOL   H16149755   1.089   3.975   2.870 -0.6150 -0.5784 -0.2661
  138MOL   H16249756   1.109   3.935   2.594  1.5228 -0.3512  0.2610
  138MOL   H16349757   1.023   3.792   2.645  0.9964  0.6472  0.6669
  138MOL   C16449758   0.936   4.102   2.602 -0.2344  0.1344  0.6550
  138MOL   O16549759   1.031   4.139   2.537 -0.4684 -0.2269  0.3481
  138MOL   C16649760   0.806   4.184   2.603  0.2752  0.5547  0.5203
  138MOL   C16749761   0.815   4.345   2.582  0.3479  0.5768 -0.6826
  138MOL   C16849762   0.677   4.419   2.577 -0.0152  0.6029 -0.3066
  138MOL   C16949763   0.594   4.389   2.706  0.4231 -0.1140  0.7973
  138MOL   C17049764   0.491   4.497   2.737 -0.0436 -1.5221  0.0678
  138MOL   O17149765   0.561   4.605   2.800  0.0745 -0.0073  0.5115
  138MOL   H17249766   0.760   4.171   2.700 -0.7696 -0.3154 -0.0861
  138MOL   H17349767   0.744   4.153   2.519 -0.3322  0.3660  1.0326
  138MOL   H17449768   0.870   4.370   2.491  0.1755 -0.9178 -1.2201
  138MOL   H17549769   0.881   4.386   2.658 -1.1978  0.3525  0.8055
  138MOL   H17649770   0.616   4.387   2.493  1.9731 -0.8808 -1.2320
  138MOL   H17749771   0.689   4.527   2.564 -0.0689  0.8592  1.6615
  138MOL   H17849772   0.657   4.367   2.792 -0.4423 -2.8614  0.7774
  138MOL   H17949773   0.528   4.302   2.705  1.3558 -0.8187  0.7412
  138MOL   H18049774   0.452   4.540   2.645 -0.8350 -1.4273  0.4505
  138MOL   H18149775   0.410   4.461   2.800  0.9344  0.4716  2.5575
  138MOL   C18249776   0.502   4.691   2.877  0.3898  0.6772 -0.4393
  138MOL   O18349777   0.378   4.688   2.908  0.4346  0.4449  0.0988
  138MOL   C18449778   0.591   4.794   2.936 -0.3644  0.8677 -0.0515
  138MOL   C18549779   0.505   4.923   2.982 -0.3013 -0.5436 -0.2351
  138MOL   C18649780   0.456   5.007   2.860  0.2056 -0.4512 -0.4556
  138MOL   C18749781   0.350   5.111   2.912 -0.5235 -0.1359 -0.6164
  138MOL   C18849782   0.288   5.213   2.811  0.2119 -0.5475  0.5042
  138MOL   O18949783   0.239   5.137   2.707 -0.1998  0.1321  0.4257
  138MOL   H19049784   0.660   4.805   2.853 -0.9379 -2.1067 -0.9568
  138MOL   H19149785   0.643   4.750   3.021 -2.7893 -1.2636  0.4049
  138MOL   H19249786   0.580   4.973   3.042 -1.0555 -0.5812  0.7512
  138MOL   H19349787   0.433   4.894   3.058  0.8913 -0.6806  0.8596
  138MOL   H19449788   0.408   4.936   2.792  1.6097 -2.3569  0.4891
  138MOL   H19549789   0.529   5.069   2.807  0.5406  1.6822  2.4171
  138MOL   H19649790   0.392   5.168   2.995  0.3358 -0.1397 -1.0558
  138MOL   H19749791   0.264   5.060   2.956  0.6735  0.1423  2.1436
  138MOL   H19849792   0.213   5.277   2.857 -0.2581 -0.0644 -0.9189
  138MOL   H19949793   0.364   5.289   2.792 -0.3553  0.8250  3.4431
  138MOL   C20049794   0.275   5.161   2.575 -0.3964  0.1637  0.2067
  138MOL   O20149795   0.323   5.262   2.530  0.3332 -0.2947 -0.2582
  138MOL   C20249796   0.218   5.059   2.481  0.3167  0.2216  0.1028
  138MOL   C20349797   0.279   4.918   2.496 -0.5208 -0.5653 -0.5503
  138MOL   C20449798   0.419   4.898   2.452 -0.2208  0.3981 -0.2105
  138MOL   C20549799   0.469   4.756   2.472 -0.1030  0.1193 -0.3825
  138MOL   C20649800   0.609   4.737   2.424 -0.1444 -0.1615  0.3229
  138MOL   O20749801   0.710   4.771   2.521 -0.2205 -0.1287 -0.5636
  138MOL   H20849802   0.226   5.103   2.381 -1.8084 -1.1120 -0.7053
  138MOL   H20949803   0.110   5.053   2.494 -0.1053 -0.2781 -3.2328
  138MOL   H21049804   0.216   4.848   2.442 -0.8238 -0.1933 -0.6819
  138MOL   H21149805   0.244   4.882   2.593  2.4254 -1.3403  0.2587
  138MOL   H21249806   0.484   4.970   2.501  1.6940 -2.4194  1.5049
  138MOL   H21349807   0.426   4.924   2.346  1.3800 -0.0319 -0.2291
  138MOL   H21449808   0.418   4.681   2.412  1.9802 -0.2358 -1.7645
  138MOL   H21549809   0.472   4.741   2.580 -4.7573 -1.5706 -0.3771
  138MOL   H21649810   0.610   4.631   2.398  1.5429  0.0968 -0.7450
  138MOL   H21749811   0.616   4.787   2.327  0.6261 -0.5612  0.1701
  138MOL   C21849812   0.815   4.856   2.497 -0.2770  0.8005  0.0674
  138MOL   O21949813   0.862   4.870   2.386 -0.1294  0.3792 -0.1673
  138MOL   C22049814   0.890   4.907   2.623  0.4565  0.1910  0.5375
  138MOL   C22149815   0.996   4.802   2.671  0.4424 -0.5406  0.6409
  138MOL   C22249816   0.938   4.694   2.757 -0.6733 -0.6134 -0.1654
  138MOL   C22349817   0.942   4.727   2.911  0.0871 -0.5082  0.1168
  138MOL   C22449818   0.892   4.615   3.009  0.0114 -0.3969 -0.0601
  138MOL   O22549819   0.956   4.625   3.133  0.4942  0.3335  0.8943
  138MOL   H22649820   0.815   4.940   2.695 -0.6410 -1.4341  0.1813
  138MOL   H22749821   0.945   4.994   2.589  1.3863 -0.9239 -0.8954
  138MOL   H22849822   1.069   4.856   2.731  0.2184  0.1714  0.2910
  138MOL   H22949823   1.060   4.767   2.590 -0.8351  1.3131 -1.2423
  138MOL   H23049824   0.994   4.602   2.738  0.0011 -0.1885 -0.2295
  138MOL   H23149825   0.835   4.673   2.727 -0.4660  2.9755 -3.8179
  138MOL   H23249826   0.887   4.818   2.934  0.4377 -0.5709  1.2651
  138MOL   H23349827   1.046   4.754   2.932  0.2158 -2.0888  1.6603
  138MOL   H23449828   0.784   4.626   3.016 -0.0839 -2.3080  2.2966
  138MOL   H23549829   0.900   4.512   2.973  2.7383 -0.7828  1.4766
  138MOL   C23649830   0.922   4.716   3.226 -0.2016  0.0043  0.1494
  138MOL   O23749831   0.845   4.816   3.208 -0.3462  0.0391  0.0674
  138MOL   C23849832   1.004   4.703   3.355  0.3022  0.6001  0.1226
  138MOL   C23949833   0.979   4.560   3.420 -0.4957  0.0660  0.0485
  138MOL   C24049834   1.105   4.465   3.414 -0.1675 -0.1354 -0.2223
  138MOL   C24149835   1.239   4.506   3.488  0.2967  0.3388  0.4051
  138MOL   C24249836   1.343   4.394   3.469 -0.4011 -0.4822 -0.5237
  138MOL   O24349837   1.460   4.427   3.540 -0.2273  0.5064 -0.7614
  138MOL   H24449838   0.964   4.779   3.421  1.7450  1.5237 -0.0389
  138MOL   H24549839   1.109   4.731   3.353  0.2750  0.9954  2.4292
  138MOL   H24649840   0.896   4.509   3.370 -1.1942  0.1184  1.1310
  138MOL   H24749841   0.943   4.563   3.523 -0.0753 -2.3468  0.2836
  138MOL   H24849842   1.144   4.450   3.313 -0.9072  0.2805 -0.5801
  138MOL   H24949843   1.075   4.370   3.459 -0.1506  0.2212  0.5453
  138MOL   H25049844   1.222   4.505   3.595 -0.2353 -0.3219  0.3197
  138MOL   H25149845   1.266   4.605   3.453 -1.0694  0.3492 -0.7013
  138MOL   H25249846   1.290   4.302   3.495  1.4245 -1.5395 -0.4602
  138MOL   H25349847   1.370   4.371   3.366  1.9728  2.3798 -0.5974
  138MOL   C25449848   1.537   4.340   3.600 -0.1515 -1.6120 -0.0529
  138MOL   O25549849   1.521   4.218   3.605  0.0714 -0.2642  0.5490
  138MOL   C25649850   1.660   4.403   3.670 -0.1911 -0.2940  0.2791
  138MOL   C25749851   1.625   4.530   3.758 -0.3433 -0.5333 -0.3650
  138MOL   C25849852   1.520   4.512   3.863  0.3909 -0.1932 -0.3199
  138MOL   C25949853   1.530   4.611   3.980  0.6454 -0.0598  0.2112
  138MOL   C26049854   1.429   4.592   4.092 -0.8384  0.0193  0.6286
  138MOL   O26149855   1.454   4.469   4.169 -0.0562  0.2379 -0.0457
  138MOL   H26249856   1.747   4.421   3.607 -0.6089 -2.5433 -0.9780
  138MOL   H26349857   1.700   4.333   3.744  1.6104  2.2406  1.7927
  138MOL   H26449858   1.605   4.621   3.702  2.1315  2.3859  3.1991
  138MOL   H26549859   1.710   4.567   3.816 -1.8423 -0.4781  1.8951
  138MOL   H26649860   1.506   4.411   3.903  1.1932 -0.9352 -1.8666
  138MOL   H26749861   1.421   4.527   3.820 -0.9575 -3.4486  1.4911
  138MOL   H26849862   1.517   4.711   3.941  0.1876 -0.2442 -0.1097
  138MOL   H26949863   1.629   4.605   4.025 -0.5904  0.6472  3.1462
  138MOL   H27049864   1.427   4.679   4.158 -0.9845 -0.6669  1.5458
  138MOL   H27149865   1.329   4.585   4.049 -0.5259 -0.2045 -0.0534
  138MOL   C27249866   1.527   4.481   4.277  0.4247 -0.4810 -0.0295
  138MOL   O27349867   1.595   4.588   4.302  0.1752  0.0920 -0.1177
  138MOL   C27449868   1.522   4.350   4.365 -0.2156 -0.0276  0.2660
  138MOL   C27549869   1.390   4.352   4.435 -0.1184  0.9467 -0.1657
  138MOL   C27649870   1.387   4.262   4.563  0.1347 -0.0828  0.2618
  138MOL   C27749871   1.456   4.341   4.679 -0.5160  0.3068  0.4590
  138MOL   C27849872   1.458   4.271   4.812  0.6858  0.7135  0.5023
  138MOL   O27949873   1.536   4.335   4.914  0.1542 -0.4529 -0.1517
  138MOL   H28049874   1.607   4.345   4.434 -0.1857 -1.5773  0.1307
  138MOL   H28149875   1.533   4.269   4.293 -0.4036 -0.1942  0.4239
  138MOL   H28249876   1.321   4.300   4.369 -1.3377  1.9145  0.3305
  138MOL   H28349877   1.348   4.450   4.458  0.8068  1.7004 -1.6607
  138MOL   H28449878   1.442   4.170   4.543 -2.0862 -1.5443  0.6240
  138MOL   H28549879   1.291   4.234   4.605 -0.0168  1.2787  0.8534
  138MOL   H28649880   1.413   4.437   4.706 -0.3372  0.9416 -1.4554
  138MOL   H28749881   1.561   4.356   4.655 -0.6607  0.8393  0.1530
  138MOL   H28849882   1.355   4.252   4.842 -0.1992 -1.9678 -3.7879
  138MOL   H28949883   1.506   4.175   4.794 -1.3932 -0.8279  2.8671
  138MOL   C29049884   1.479   4.441   4.983 -0.3005 -0.4258 -0.0656
  138MOL   O29149885   1.366   4.479   4.971 -0.3953  0.3025  0.0546
  138MOL   C29249886   1.576   4.511   5.076  0.3897 -0.3270  0.8963
  138MOL   C29349887   1.528   4.656   5.114 -0.0885 -0.1296 -0.0894
  138MOL   C29449888   1.560   4.759   5.006 -0.2517  0.9404 -0.3955
  138MOL   C29549889   1.502   4.891   5.053  0.7895 -0.2005  0.1085
  138MOL   C29649890   1.533   5.014   4.970  0.1936  0.1715  0.6822
  138MOL   O29749891   1.672   5.031   4.964 -0.1818 -0.3561  0.1607
  138MOL   H29849892   1.676   4.508   5.033  0.3275 -1.9610  0.8484
  138MOL   H29949893   1.576   4.450   5.167  1.5688  2.0965  2.5973
  138MOL   H30049894   1.574   4.690   5.207  2.9316 -0.0508 -1.5769
  138MOL   H30149895   1.421   4.658   5.136 -0.6810 -1.5247 -2.6404
  138MOL   H30249896   1.520   4.732   4.909 -0.9413 -0.4390  0.2524
  138MOL   H30349897   1.666   4.777   4.994  0.1185 -0.8066  0.0245
  138MOL   H30449898   1.536   4.918   5.153 -1.6268  0.0617  0.9094
  138MOL   H30549899   1.393   4.885   5.059  0.6672  1.0169 -0.6572
  138MOL   H30649900   1.506   5.017   4.864  3.5104  2.3531 -0.2185
  138MOL   H30749901   1.492   5.097   5.027 -0.3531  0.4257 -0.0786
  138MOL   C30849902   1.732   5.130   5.032  1.0542  0.2345  0.1867
  138MOL   O30949903   1.678   5.196   5.124  0.1638  0.0361 -0.4455
  138MOL   C31049904   1.878   5.153   5.007 -0.1217  0.1763  0.3752
  138MOL   C31149905   1.946   5.266   5.088  0.0163 -0.0723 -0.1779
  138MOL   C31249906   2.088   5.271   5.038  0.0351 -0.1902  0.4452
  138MOL   C31349907   2.113   5.313   4.887 -0.4525  0.7734 -0.2115
  138MOL   C31449908   2.251   5.306   4.842  1.2195  0.3061 -0.0637
  138MOL   O31549909   2.294   5.165   4.834  0.0096 -0.8784  0.0427
  138MOL   H31649910   1.893   5.161   4.899  0.4611 -0.2058  0.4256
  138MOL   H31749911   1.930   5.057   5.015  1.9486  1.4148  2.2242
  138MOL   H31849912   1.952   5.237   5.192  1.3664 -1.1557 -0.5380
  138MOL   H31949913   1.892   5.360   5.075 -1.7337 -1.0971 -0.5389
  138MOL   H32049914   2.126   5.170   5.051  1.5353  0.2892 -0.0689
  138MOL   H32149915   2.140   5.349   5.093 -1.4607  0.2845  1.2211
  138MOL   H32249916   2.073   5.413   4.873 -1.2143  0.5721  0.5071
  138MOL   H32349917   2.055   5.257   4.814  0.5791 -0.4336 -0.1364
  138MOL   H32449918   2.249   5.341   4.739 -4.0190 -2.2399 -1.0076
  138MOL   H32549919   2.318   5.362   4.908 -0.6763  1.4907  0.8853
  138MOL   C32649920   2.371   5.125   4.732  0.8094  0.1041 -0.2119
  138MOL   O32749921   2.423   5.198   4.661  0.3461  0.0148  0.5439
  138MOL   C32849922   2.417   4.980   4.737  1.0043 -0.1979 -0.0005
  138MOL   C32949923   2.315   4.889   4.663  0.3139 -0.5539 -0.0441
  138MOL   C33049924   2.181   4.880   4.738 -0.2101 -0.2982  0.1179
  138MOL   C33149925   2.189   4.827   4.888 -0.0938 -0.0554  0.6277
  138MOL   C33249926   2.226   4.679   4.892 -0.2565  0.1577 -0.2345
  138MOL   O33349927   2.300   4.660   5.012 -0.8905 -0.2745  0.0324
  138MOL   H33449928   2.430   4.954   4.842 -3.8679 -0.5550  0.6298
  138MOL   H33549929   2.517   4.974   4.695  1.5348  2.5278  0.7882
  138MOL   H33649930   2.363   4.791   4.656  0.0021 -0.6365 -1.0875
  138MOL   H33749931   2.292   4.908   4.558  0.0061 -2.3743 -0.3252
  138MOL   H33849932   2.131   4.802   4.680 -1.1095 -0.3737  0.9795
  138MOL   H33949933   2.111   4.963   4.735 -1.1108 -1.0795 -0.4957
  138MOL   H34049934   2.086   4.830   4.923  0.2969  1.6717  1.6930
  138MOL   H34149935   2.245   4.899   4.948 -0.9249 -0.6651  2.1301
  138MOL   H34249936   2.135   4.619   4.892  1.8229 -3.2300 -3.0427
  138MOL   H34349937   2.302   4.664   4.815  1.6101 -1.0589  1.7576
  138MOL   C34449938   2.317   4.540   5.069 -0.6945 -0.2137 -0.6751
  138MOL   O34549939   2.286   4.441   5.006 -0.0472 -0.3754  0.9809
  138MOL   C34649940   2.393   4.531   5.200  0.0861  0.4532  0.2862
  138MOL   C34749941   2.547   4.500   5.191  0.8081  0.1777  0.0436
  138MOL   C34849942   2.582   4.363   5.155  0.2240 -0.0686  0.0101
  138MOL   C34949943   2.726   4.327   5.168 -0.4531  0.4296  0.1309
  138MOL   C35049944   2.763   4.202   5.098  0.1320  0.2208 -0.1900
  138MOL   O35149945   2.892   4.152   5.138 -0.6019 -0.2997  0.0465
  138MOL   H35249946   2.341   4.458   5.261 -2.0473 -0.1860 -2.2248
  138MOL   H35349947   2.389   4.629   5.246  0.0074  2.5904 -3.9946
  138MOL   H35449948   2.592   4.507   5.290  1.4876  1.9186 -0.3827
  138MOL   H35549949   2.603   4.573   5.135  2.5430 -0.4622  0.9147
  138MOL   H35649950   2.552   4.350   5.051  1.3934  1.0005 -0.4811
  138MOL   H35749951   2.529   4.287   5.213  0.6782 -0.2066  0.2475
  138MOL   H35849952   2.742   4.317   5.275 -0.4040 -2.1231 -0.0959
  138MOL   H35949953   2.803   4.403   5.150 -0.1307 -0.0302 -0.4647
  138MOL   H36049954   2.687   4.126   5.114 -1.5717  1.8418 -0.4277
  138MOL   H36149955   2.760   4.227   4.992 -0.7281  2.6055  0.3625
  138MOL   H36249956   2.940   4.118   5.064  0.2089  0.6986  0.1027
   7.84439   7.84439   7.84439
