;
; Gromacs include topology (itp) file.
; For Molecular Group XYZ
; Force field scheme: opls2005
; Produced from DL_FIELD v4.11
;


[ moleculetype ]
; name    nrexcl
XYZ    3

[ atoms ]
; nr   type   resnr   residu    atom    cgnr    charge    mass
    1       OAL    1  MOL      O1     1  -0.6830000   15.9994
    2        CT    1  MOL      C2     2   0.1450000   12.0115
    3        CT    1  MOL      C3     3  -0.1200000   12.0115
    4        CT    1  MOL      C4     4   0.1400000   12.0115
    5        HC    1  MOL      H5     5   0.0600000    1.0080
    6        HC    1  MOL      H6     6   0.0600000    1.0080
    7        HC    1  MOL      H7     7   0.0600000    1.0080
    8        HC    1  MOL      H8     8   0.0600000    1.0080
    9        HC    1  MOL      H9     9   0.0300000    1.0080
   10        HC    1  MOL     H10    10   0.0300000    1.0080
   11        HO    1  MOL     H11    11   0.4180000    1.0080
   12        OS    1  MOL     O12    12  -0.4000000   15.9994
   13        CT    1  MOL     C13    13   0.1400000   12.0115
   14        CT    1  MOL     C14    14  -0.1200000   12.0115
   15        CT    1  MOL     C15    15   0.1400000   12.0115
   16        HC    1  MOL     H16    16   0.0300000    1.0080
   17        HC    1  MOL     H17    17   0.0300000    1.0080
   18        HC    1  MOL     H18    18   0.0600000    1.0080
   19        HC    1  MOL     H19    19   0.0600000    1.0080
   20        HC    1  MOL     H20    20   0.0300000    1.0080
   21        HC    1  MOL     H21    21   0.0300000    1.0080
   22        OS    1  MOL     O22    22  -0.4000000   15.9994
   23        CT    1  MOL     C23    23   0.1400000   12.0115
   24        CT    1  MOL     C24    24  -0.1200000   12.0115
   25        CT    1  MOL     C25    25   0.1400000   12.0115
   26        HC    1  MOL     H26    26   0.0300000    1.0080
   27        HC    1  MOL     H27    27   0.0300000    1.0080
   28        HC    1  MOL     H28    28   0.0600000    1.0080
   29        HC    1  MOL     H29    29   0.0600000    1.0080
   30        HC    1  MOL     H30    30   0.0300000    1.0080
   31        HC    1  MOL     H31    31   0.0300000    1.0080
   32        OS    1  MOL     O32    32  -0.4000000   15.9994
   33        CT    1  MOL     C33    33   0.1400000   12.0115
   34        CT    1  MOL     C34    34  -0.1200000   12.0115
   35        CT    1  MOL     C35    35   0.1400000   12.0115
   36        HC    1  MOL     H36    36   0.0300000    1.0080
   37        HC    1  MOL     H37    37   0.0300000    1.0080
   38        HC    1  MOL     H38    38   0.0600000    1.0080
   39        HC    1  MOL     H39    39   0.0600000    1.0080
   40        HC    1  MOL     H40    40   0.0300000    1.0080
   41        HC    1  MOL     H41    41   0.0300000    1.0080
   42        OS    1  MOL     O42    42  -0.4000000   15.9994
   43        CT    1  MOL     C43    43   0.1400000   12.0115
   44        CT    1  MOL     C44    44  -0.1200000   12.0115
   45        CT    1  MOL     C45    45   0.1400000   12.0115
   46        HC    1  MOL     H46    46   0.0300000    1.0080
   47        HC    1  MOL     H47    47   0.0300000    1.0080
   48        HC    1  MOL     H48    48   0.0600000    1.0080
   49        HC    1  MOL     H49    49   0.0600000    1.0080
   50        HC    1  MOL     H50    50   0.0300000    1.0080
   51        HC    1  MOL     H51    51   0.0300000    1.0080
   52        OS    1  MOL     O52    52  -0.4000000   15.9994
   53        CT    1  MOL     C53    53   0.1400000   12.0115
   54        CT    1  MOL     C54    54  -0.1200000   12.0115
   55        CT    1  MOL     C55    55   0.1400000   12.0115
   56        HC    1  MOL     H56    56   0.0300000    1.0080
   57        HC    1  MOL     H57    57   0.0300000    1.0080
   58        HC    1  MOL     H58    58   0.0600000    1.0080
   59        HC    1  MOL     H59    59   0.0600000    1.0080
   60        HC    1  MOL     H60    60   0.0300000    1.0080
   61        HC    1  MOL     H61    61   0.0300000    1.0080
   62        OS    1  MOL     O62    62  -0.4000000   15.9994
   63        CT    1  MOL     C63    63   0.1400000   12.0115
   64        CT    1  MOL     C64    64  -0.1200000   12.0115
   65        CT    1  MOL     C65    65   0.1400000   12.0115
   66        HC    1  MOL     H66    66   0.0300000    1.0080
   67        HC    1  MOL     H67    67   0.0300000    1.0080
   68        HC    1  MOL     H68    68   0.0600000    1.0080
   69        HC    1  MOL     H69    69   0.0600000    1.0080
   70        HC    1  MOL     H70    70   0.0300000    1.0080
   71        HC    1  MOL     H71    71   0.0300000    1.0080
   72        OS    1  MOL     O72    72  -0.4000000   15.9994
   73        CT    1  MOL     C73    73   0.1400000   12.0115
   74        CT    1  MOL     C74    74  -0.1200000   12.0115
   75        CT    1  MOL     C75    75   0.1400000   12.0115
   76        HC    1  MOL     H76    76   0.0300000    1.0080
   77        HC    1  MOL     H77    77   0.0300000    1.0080
   78        HC    1  MOL     H78    78   0.0600000    1.0080
   79        HC    1  MOL     H79    79   0.0600000    1.0080
   80        HC    1  MOL     H80    80   0.0300000    1.0080
   81        HC    1  MOL     H81    81   0.0300000    1.0080
   82        OS    1  MOL     O82    82  -0.4000000   15.9994
   83        CT    1  MOL     C83    83   0.1400000   12.0115
   84        CT    1  MOL     C84    84  -0.1200000   12.0115
   85        CT    1  MOL     C85    85   0.1400000   12.0115
   86        HC    1  MOL     H86    86   0.0300000    1.0080
   87        HC    1  MOL     H87    87   0.0300000    1.0080
   88        HC    1  MOL     H88    88   0.0600000    1.0080
   89        HC    1  MOL     H89    89   0.0600000    1.0080
   90        HC    1  MOL     H90    90   0.0300000    1.0080
   91        HC    1  MOL     H91    91   0.0300000    1.0080
   92        OS    1  MOL     O92    92  -0.4000000   15.9994
   93        CT    1  MOL     C93    93   0.1400000   12.0115
   94        CT    1  MOL     C94    94  -0.1200000   12.0115
   95        CT    1  MOL     C95    95   0.1400000   12.0115
   96        HC    1  MOL     H96    96   0.0300000    1.0080
   97        HC    1  MOL     H97    97   0.0300000    1.0080
   98        HC    1  MOL     H98    98   0.0600000    1.0080
   99        HC    1  MOL     H99    99   0.0600000    1.0080
  100        HC    1  MOL    H100   100   0.0300000    1.0080
  101        HC    1  MOL    H101   101   0.0300000    1.0080
  102        OS    1  MOL    O102   102  -0.4000000   15.9994
  103        CT    1  MOL    C103   103   0.1400000   12.0115
  104        CT    1  MOL    C104   104  -0.1200000   12.0115
  105        CT    1  MOL    C105   105   0.1400000   12.0115
  106        HC    1  MOL    H106   106   0.0300000    1.0080
  107        HC    1  MOL    H107   107   0.0300000    1.0080
  108        HC    1  MOL    H108   108   0.0600000    1.0080
  109        HC    1  MOL    H109   109   0.0600000    1.0080
  110        HC    1  MOL    H110   110   0.0300000    1.0080
  111        HC    1  MOL    H111   111   0.0300000    1.0080
  112        OS    1  MOL    O112   112  -0.4000000   15.9994
  113        CT    1  MOL    C113   113   0.1400000   12.0115
  114        CT    1  MOL    C114   114  -0.1200000   12.0115
  115        CT    1  MOL    C115   115   0.1400000   12.0115
  116        HC    1  MOL    H116   116   0.0300000    1.0080
  117        HC    1  MOL    H117   117   0.0300000    1.0080
  118        HC    1  MOL    H118   118   0.0600000    1.0080
  119        HC    1  MOL    H119   119   0.0600000    1.0080
  120        HC    1  MOL    H120   120   0.0300000    1.0080
  121        HC    1  MOL    H121   121   0.0300000    1.0080
  122        OS    1  MOL    O122   122  -0.4000000   15.9994
  123        CT    1  MOL    C123   123   0.1400000   12.0115
  124        CT    1  MOL    C124   124  -0.1200000   12.0115
  125        CT    1  MOL    C125   125   0.1400000   12.0115
  126        HC    1  MOL    H126   126   0.0300000    1.0080
  127        HC    1  MOL    H127   127   0.0300000    1.0080
  128        HC    1  MOL    H128   128   0.0600000    1.0080
  129        HC    1  MOL    H129   129   0.0600000    1.0080
  130        HC    1  MOL    H130   130   0.0300000    1.0080
  131        HC    1  MOL    H131   131   0.0300000    1.0080
  132        OS    1  MOL    O132   132  -0.4000000   15.9994
  133        CT    1  MOL    C133   133   0.1400000   12.0115
  134        CT    1  MOL    C134   134  -0.1200000   12.0115
  135        CT    1  MOL    C135   135   0.1400000   12.0115
  136        HC    1  MOL    H136   136   0.0300000    1.0080
  137        HC    1  MOL    H137   137   0.0300000    1.0080
  138        HC    1  MOL    H138   138   0.0600000    1.0080
  139        HC    1  MOL    H139   139   0.0600000    1.0080
  140        HC    1  MOL    H140   140   0.0300000    1.0080
  141        HC    1  MOL    H141   141   0.0300000    1.0080
  142        OS    1  MOL    O142   142  -0.4000000   15.9994
  143        CT    1  MOL    C143   143   0.1400000   12.0115
  144        CT    1  MOL    C144   144  -0.1200000   12.0115
  145        CT    1  MOL    C145   145   0.1400000   12.0115
  146        HC    1  MOL    H146   146   0.0300000    1.0080
  147        HC    1  MOL    H147   147   0.0300000    1.0080
  148        HC    1  MOL    H148   148   0.0600000    1.0080
  149        HC    1  MOL    H149   149   0.0600000    1.0080
  150        HC    1  MOL    H150   150   0.0300000    1.0080
  151        HC    1  MOL    H151   151   0.0300000    1.0080
  152        OS    1  MOL    O152   152  -0.4000000   15.9994
  153        CT    1  MOL    C153   153   0.1400000   12.0115
  154        CT    1  MOL    C154   154  -0.1200000   12.0115
  155        CT    1  MOL    C155   155   0.1400000   12.0115
  156        HC    1  MOL    H156   156   0.0300000    1.0080
  157        HC    1  MOL    H157   157   0.0300000    1.0080
  158        HC    1  MOL    H158   158   0.0600000    1.0080
  159        HC    1  MOL    H159   159   0.0600000    1.0080
  160        HC    1  MOL    H160   160   0.0300000    1.0080
  161        HC    1  MOL    H161   161   0.0300000    1.0080
  162        OS    1  MOL    O162   162  -0.4000000   15.9994
  163        CT    1  MOL    C163   163   0.1400000   12.0115
  164        CT    1  MOL    C164   164  -0.1200000   12.0115
  165        CT    1  MOL    C165   165   0.1400000   12.0115
  166        HC    1  MOL    H166   166   0.0300000    1.0080
  167        HC    1  MOL    H167   167   0.0300000    1.0080
  168        HC    1  MOL    H168   168   0.0600000    1.0080
  169        HC    1  MOL    H169   169   0.0600000    1.0080
  170        HC    1  MOL    H170   170   0.0300000    1.0080
  171        HC    1  MOL    H171   171   0.0300000    1.0080
  172        OS    1  MOL    O172   172  -0.4000000   15.9994
  173        CT    1  MOL    C173   173   0.1400000   12.0115
  174        CT    1  MOL    C174   174  -0.1200000   12.0115
  175        CT    1  MOL    C175   175   0.1400000   12.0115
  176        HC    1  MOL    H176   176   0.0300000    1.0080
  177        HC    1  MOL    H177   177   0.0300000    1.0080
  178        HC    1  MOL    H178   178   0.0600000    1.0080
  179        HC    1  MOL    H179   179   0.0600000    1.0080
  180        HC    1  MOL    H180   180   0.0300000    1.0080
  181        HC    1  MOL    H181   181   0.0300000    1.0080
  182        OS    1  MOL    O182   182  -0.4000000   15.9994
  183        CT    1  MOL    C183   183   0.1400000   12.0115
  184        CT    1  MOL    C184   184  -0.1200000   12.0115
  185        CT    1  MOL    C185   185   0.1400000   12.0115
  186        HC    1  MOL    H186   186   0.0300000    1.0080
  187        HC    1  MOL    H187   187   0.0300000    1.0080
  188        HC    1  MOL    H188   188   0.0600000    1.0080
  189        HC    1  MOL    H189   189   0.0600000    1.0080
  190        HC    1  MOL    H190   190   0.0300000    1.0080
  191        HC    1  MOL    H191   191   0.0300000    1.0080
  192        OS    1  MOL    O192   192  -0.4000000   15.9994
  193        CT    1  MOL    C193   193   0.1400000   12.0115
  194        CT    1  MOL    C194   194  -0.1200000   12.0115
  195        CT    1  MOL    C195   195  -0.1800000   12.0115
  196        HC    1  MOL    H196   196   0.0300000    1.0080
  197        HC    1  MOL    H197   197   0.0300000    1.0080
  198        HC    1  MOL    H198   198   0.0600000    1.0080
  199        HC    1  MOL    H199   199   0.0600000    1.0080
  200        HC    1  MOL    H200   200   0.0600000    1.0080
  201        HC    1  MOL    H201   201   0.0600000    1.0080
  202        HC    1  MOL    H202   202   0.0600000    1.0080

[ bonds ]
      1      2   1      0.1410 267776.0000
      1     11   1      0.0945 462750.4000
      2      3   1      0.1529 224262.4000
      2      5   1      0.1090 284512.0000
      2      6   1      0.1090 284512.0000
      3      4   1      0.1529 224262.4000
      3      7   1      0.1090 284512.0000
      3      8   1      0.1090 284512.0000
      4      9   1      0.1090 284512.0000
      4     10   1      0.1090 284512.0000
      4     12   1      0.1410 267776.0000
     12     13   1      0.1410 267776.0000
     13     14   1      0.1529 224262.4000
     13     16   1      0.1090 284512.0000
     13     17   1      0.1090 284512.0000
     14     15   1      0.1529 224262.4000
     14     18   1      0.1090 284512.0000
     14     19   1      0.1090 284512.0000
     15     20   1      0.1090 284512.0000
     15     21   1      0.1090 284512.0000
     15     22   1      0.1410 267776.0000
     22     23   1      0.1410 267776.0000
     23     24   1      0.1529 224262.4000
     23     26   1      0.1090 284512.0000
     23     27   1      0.1090 284512.0000
     24     25   1      0.1529 224262.4000
     24     28   1      0.1090 284512.0000
     24     29   1      0.1090 284512.0000
     25     30   1      0.1090 284512.0000
     25     31   1      0.1090 284512.0000
     25     32   1      0.1410 267776.0000
     32     33   1      0.1410 267776.0000
     33     34   1      0.1529 224262.4000
     33     36   1      0.1090 284512.0000
     33     37   1      0.1090 284512.0000
     34     35   1      0.1529 224262.4000
     34     38   1      0.1090 284512.0000
     34     39   1      0.1090 284512.0000
     35     40   1      0.1090 284512.0000
     35     41   1      0.1090 284512.0000
     35     42   1      0.1410 267776.0000
     42     43   1      0.1410 267776.0000
     43     44   1      0.1529 224262.4000
     43     46   1      0.1090 284512.0000
     43     47   1      0.1090 284512.0000
     44     45   1      0.1529 224262.4000
     44     48   1      0.1090 284512.0000
     44     49   1      0.1090 284512.0000
     45     50   1      0.1090 284512.0000
     45     51   1      0.1090 284512.0000
     45     52   1      0.1410 267776.0000
     52     53   1      0.1410 267776.0000
     53     54   1      0.1529 224262.4000
     53     56   1      0.1090 284512.0000
     53     57   1      0.1090 284512.0000
     54     55   1      0.1529 224262.4000
     54     58   1      0.1090 284512.0000
     54     59   1      0.1090 284512.0000
     55     60   1      0.1090 284512.0000
     55     61   1      0.1090 284512.0000
     55     62   1      0.1410 267776.0000
     62     63   1      0.1410 267776.0000
     63     64   1      0.1529 224262.4000
     63     66   1      0.1090 284512.0000
     63     67   1      0.1090 284512.0000
     64     65   1      0.1529 224262.4000
     64     68   1      0.1090 284512.0000
     64     69   1      0.1090 284512.0000
     65     70   1      0.1090 284512.0000
     65     71   1      0.1090 284512.0000
     65     72   1      0.1410 267776.0000
     72     73   1      0.1410 267776.0000
     73     74   1      0.1529 224262.4000
     73     76   1      0.1090 284512.0000
     73     77   1      0.1090 284512.0000
     74     75   1      0.1529 224262.4000
     74     78   1      0.1090 284512.0000
     74     79   1      0.1090 284512.0000
     75     80   1      0.1090 284512.0000
     75     81   1      0.1090 284512.0000
     75     82   1      0.1410 267776.0000
     82     83   1      0.1410 267776.0000
     83     84   1      0.1529 224262.4000
     83     86   1      0.1090 284512.0000
     83     87   1      0.1090 284512.0000
     84     85   1      0.1529 224262.4000
     84     88   1      0.1090 284512.0000
     84     89   1      0.1090 284512.0000
     85     90   1      0.1090 284512.0000
     85     91   1      0.1090 284512.0000
     85     92   1      0.1410 267776.0000
     92     93   1      0.1410 267776.0000
     93     94   1      0.1529 224262.4000
     93     96   1      0.1090 284512.0000
     93     97   1      0.1090 284512.0000
     94     95   1      0.1529 224262.4000
     94     98   1      0.1090 284512.0000
     94     99   1      0.1090 284512.0000
     95    100   1      0.1090 284512.0000
     95    101   1      0.1090 284512.0000
     95    102   1      0.1410 267776.0000
    102    103   1      0.1410 267776.0000
    103    104   1      0.1529 224262.4000
    103    106   1      0.1090 284512.0000
    103    107   1      0.1090 284512.0000
    104    105   1      0.1529 224262.4000
    104    108   1      0.1090 284512.0000
    104    109   1      0.1090 284512.0000
    105    110   1      0.1090 284512.0000
    105    111   1      0.1090 284512.0000
    105    112   1      0.1410 267776.0000
    112    113   1      0.1410 267776.0000
    113    114   1      0.1529 224262.4000
    113    116   1      0.1090 284512.0000
    113    117   1      0.1090 284512.0000
    114    115   1      0.1529 224262.4000
    114    118   1      0.1090 284512.0000
    114    119   1      0.1090 284512.0000
    115    120   1      0.1090 284512.0000
    115    121   1      0.1090 284512.0000
    115    122   1      0.1410 267776.0000
    122    123   1      0.1410 267776.0000
    123    124   1      0.1529 224262.4000
    123    126   1      0.1090 284512.0000
    123    127   1      0.1090 284512.0000
    124    125   1      0.1529 224262.4000
    124    128   1      0.1090 284512.0000
    124    129   1      0.1090 284512.0000
    125    130   1      0.1090 284512.0000
    125    131   1      0.1090 284512.0000
    125    132   1      0.1410 267776.0000
    132    133   1      0.1410 267776.0000
    133    134   1      0.1529 224262.4000
    133    136   1      0.1090 284512.0000
    133    137   1      0.1090 284512.0000
    134    135   1      0.1529 224262.4000
    134    138   1      0.1090 284512.0000
    134    139   1      0.1090 284512.0000
    135    140   1      0.1090 284512.0000
    135    141   1      0.1090 284512.0000
    135    142   1      0.1410 267776.0000
    142    143   1      0.1410 267776.0000
    143    144   1      0.1529 224262.4000
    143    146   1      0.1090 284512.0000
    143    147   1      0.1090 284512.0000
    144    145   1      0.1529 224262.4000
    144    148   1      0.1090 284512.0000
    144    149   1      0.1090 284512.0000
    145    150   1      0.1090 284512.0000
    145    151   1      0.1090 284512.0000
    145    152   1      0.1410 267776.0000
    152    153   1      0.1410 267776.0000
    153    154   1      0.1529 224262.4000
    153    156   1      0.1090 284512.0000
    153    157   1      0.1090 284512.0000
    154    155   1      0.1529 224262.4000
    154    158   1      0.1090 284512.0000
    154    159   1      0.1090 284512.0000
    155    160   1      0.1090 284512.0000
    155    161   1      0.1090 284512.0000
    155    162   1      0.1410 267776.0000
    162    163   1      0.1410 267776.0000
    163    164   1      0.1529 224262.4000
    163    166   1      0.1090 284512.0000
    163    167   1      0.1090 284512.0000
    164    165   1      0.1529 224262.4000
    164    168   1      0.1090 284512.0000
    164    169   1      0.1090 284512.0000
    165    170   1      0.1090 284512.0000
    165    171   1      0.1090 284512.0000
    165    172   1      0.1410 267776.0000
    172    173   1      0.1410 267776.0000
    173    174   1      0.1529 224262.4000
    173    176   1      0.1090 284512.0000
    173    177   1      0.1090 284512.0000
    174    175   1      0.1529 224262.4000
    174    178   1      0.1090 284512.0000
    174    179   1      0.1090 284512.0000
    175    180   1      0.1090 284512.0000
    175    181   1      0.1090 284512.0000
    175    182   1      0.1410 267776.0000
    182    183   1      0.1410 267776.0000
    183    184   1      0.1529 224262.4000
    183    186   1      0.1090 284512.0000
    183    187   1      0.1090 284512.0000
    184    185   1      0.1529 224262.4000
    184    188   1      0.1090 284512.0000
    184    189   1      0.1090 284512.0000
    185    190   1      0.1090 284512.0000
    185    191   1      0.1090 284512.0000
    185    192   1      0.1410 267776.0000
    192    193   1      0.1410 267776.0000
    193    194   1      0.1529 224262.4000
    193    196   1      0.1090 284512.0000
    193    197   1      0.1090 284512.0000
    194    195   1      0.1529 224262.4000
    194    198   1      0.1090 284512.0000
    194    199   1      0.1090 284512.0000
    195    200   1      0.1090 284512.0000
    195    201   1      0.1090 284512.0000
    195    202   1      0.1090 284512.0000

[ pairs ]
; ai   aj   funct   fudge_QQ  charge_i   charge_j   c6    c12
     11      3   2   0.50000     0.4180000   -0.1200000   1.995577e-06  1.069504e-11
     11      5   2   0.50000     0.4180000    0.0600000   4.903125e-07  9.576416e-13
     11      6   2   0.50000     0.4180000    0.0600000   4.903125e-07  9.576416e-13
      1      4   2   0.50000    -0.6830000    0.1400000   1.154213e-03  1.502983e-06
      1      7   2   0.50000    -0.6830000    0.0600000   2.835898e-04  1.345781e-07
      1      8   2   0.50000    -0.6830000    0.0600000   2.835898e-04  1.345781e-07
      5      4   2   0.50000     0.0600000    0.1400000   2.494471e-04  1.671101e-07
      5      7   2   0.50000     0.0600000    0.0600000   6.128906e-05  1.496315e-08
      5      8   2   0.50000     0.0600000    0.0600000   6.128906e-05  1.496315e-08
      6      4   2   0.50000     0.0600000    0.1400000   2.494471e-04  1.671101e-07
      6      7   2   0.50000     0.0600000    0.0600000   6.128906e-05  1.496315e-08
      6      8   2   0.50000     0.0600000    0.0600000   6.128906e-05  1.496315e-08
      2      9   2   0.50000     0.1450000    0.0300000   2.494471e-04  1.671101e-07
      2     10   2   0.50000     0.1450000    0.0300000   2.494471e-04  1.671101e-07
      2     12   2   0.50000     0.1450000   -0.4000000   8.411158e-04  8.795366e-07
      7      9   2   0.50000     0.0600000    0.0300000   6.128906e-05  1.496315e-08
      7     10   2   0.50000     0.0600000    0.0300000   6.128906e-05  1.496315e-08
      7     12   2   0.50000     0.0600000   -0.4000000   2.066619e-04  7.875431e-08
      8      9   2   0.50000     0.0600000    0.0300000   6.128906e-05  1.496315e-08
      8     10   2   0.50000     0.0600000    0.0300000   6.128906e-05  1.496315e-08
      8     12   2   0.50000     0.0600000   -0.4000000   2.066619e-04  7.875431e-08
      3     13   2   0.50000    -0.1200000    0.1400000   1.015252e-03  1.866303e-06
      9     13   2   0.50000     0.0300000    0.1400000   2.494471e-04  1.671101e-07
     10     13   2   0.50000     0.0300000    0.1400000   2.494471e-04  1.671101e-07
      4     14   2   0.50000     0.1400000   -0.1200000   1.015252e-03  1.866303e-06
      4     16   2   0.50000     0.1400000    0.0300000   2.494471e-04  1.671101e-07
      4     17   2   0.50000     0.1400000    0.0300000   2.494471e-04  1.671101e-07
     12     15   2   0.50000    -0.4000000    0.1400000   8.411158e-04  8.795366e-07
     12     18   2   0.50000    -0.4000000    0.0600000   2.066619e-04  7.875431e-08
     12     19   2   0.50000    -0.4000000    0.0600000   2.066619e-04  7.875431e-08
     16     15   2   0.50000     0.0300000    0.1400000   2.494471e-04  1.671101e-07
     16     18   2   0.50000     0.0300000    0.0600000   6.128906e-05  1.496315e-08
     16     19   2   0.50000     0.0300000    0.0600000   6.128906e-05  1.496315e-08
     17     15   2   0.50000     0.0300000    0.1400000   2.494471e-04  1.671101e-07
     17     18   2   0.50000     0.0300000    0.0600000   6.128906e-05  1.496315e-08
     17     19   2   0.50000     0.0300000    0.0600000   6.128906e-05  1.496315e-08
     13     20   2   0.50000     0.1400000    0.0300000   2.494471e-04  1.671101e-07
     13     21   2   0.50000     0.1400000    0.0300000   2.494471e-04  1.671101e-07
     13     22   2   0.50000     0.1400000   -0.4000000   8.411158e-04  8.795366e-07
     18     20   2   0.50000     0.0600000    0.0300000   6.128906e-05  1.496315e-08
     18     21   2   0.50000     0.0600000    0.0300000   6.128906e-05  1.496315e-08
     18     22   2   0.50000     0.0600000   -0.4000000   2.066619e-04  7.875431e-08
     19     20   2   0.50000     0.0600000    0.0300000   6.128906e-05  1.496315e-08
     19     21   2   0.50000     0.0600000    0.0300000   6.128906e-05  1.496315e-08
     19     22   2   0.50000     0.0600000   -0.4000000   2.066619e-04  7.875431e-08
     14     23   2   0.50000    -0.1200000    0.1400000   1.015252e-03  1.866303e-06
     20     23   2   0.50000     0.0300000    0.1400000   2.494471e-04  1.671101e-07
     21     23   2   0.50000     0.0300000    0.1400000   2.494471e-04  1.671101e-07
     15     24   2   0.50000     0.1400000   -0.1200000   1.015252e-03  1.866303e-06
     15     26   2   0.50000     0.1400000    0.0300000   2.494471e-04  1.671101e-07
     15     27   2   0.50000     0.1400000    0.0300000   2.494471e-04  1.671101e-07
     22     25   2   0.50000    -0.4000000    0.1400000   8.411158e-04  8.795366e-07
     22     28   2   0.50000    -0.4000000    0.0600000   2.066619e-04  7.875431e-08
     22     29   2   0.50000    -0.4000000    0.0600000   2.066619e-04  7.875431e-08
     26     25   2   0.50000     0.0300000    0.1400000   2.494471e-04  1.671101e-07
     26     28   2   0.50000     0.0300000    0.0600000   6.128906e-05  1.496315e-08
     26     29   2   0.50000     0.0300000    0.0600000   6.128906e-05  1.496315e-08
     27     25   2   0.50000     0.0300000    0.1400000   2.494471e-04  1.671101e-07
     27     28   2   0.50000     0.0300000    0.0600000   6.128906e-05  1.496315e-08
     27     29   2   0.50000     0.0300000    0.0600000   6.128906e-05  1.496315e-08
     23     30   2   0.50000     0.1400000    0.0300000   2.494471e-04  1.671101e-07
     23     31   2   0.50000     0.1400000    0.0300000   2.494471e-04  1.671101e-07
     23     32   2   0.50000     0.1400000   -0.4000000   8.411158e-04  8.795366e-07
     28     30   2   0.50000     0.0600000    0.0300000   6.128906e-05  1.496315e-08
     28     31   2   0.50000     0.0600000    0.0300000   6.128906e-05  1.496315e-08
     28     32   2   0.50000     0.0600000   -0.4000000   2.066619e-04  7.875431e-08
     29     30   2   0.50000     0.0600000    0.0300000   6.128906e-05  1.496315e-08
     29     31   2   0.50000     0.0600000    0.0300000   6.128906e-05  1.496315e-08
     29     32   2   0.50000     0.0600000   -0.4000000   2.066619e-04  7.875431e-08
     24     33   2   0.50000    -0.1200000    0.1400000   1.015252e-03  1.866303e-06
     30     33   2   0.50000     0.0300000    0.1400000   2.494471e-04  1.671101e-07
     31     33   2   0.50000     0.0300000    0.1400000   2.494471e-04  1.671101e-07
     25     34   2   0.50000     0.1400000   -0.1200000   1.015252e-03  1.866303e-06
     25     36   2   0.50000     0.1400000    0.0300000   2.494471e-04  1.671101e-07
     25     37   2   0.50000     0.1400000    0.0300000   2.494471e-04  1.671101e-07
     32     35   2   0.50000    -0.4000000    0.1400000   8.411158e-04  8.795366e-07
     32     38   2   0.50000    -0.4000000    0.0600000   2.066619e-04  7.875431e-08
     32     39   2   0.50000    -0.4000000    0.0600000   2.066619e-04  7.875431e-08
     36     35   2   0.50000     0.0300000    0.1400000   2.494471e-04  1.671101e-07
     36     38   2   0.50000     0.0300000    0.0600000   6.128906e-05  1.496315e-08
     36     39   2   0.50000     0.0300000    0.0600000   6.128906e-05  1.496315e-08
     37     35   2   0.50000     0.0300000    0.1400000   2.494471e-04  1.671101e-07
     37     38   2   0.50000     0.0300000    0.0600000   6.128906e-05  1.496315e-08
     37     39   2   0.50000     0.0300000    0.0600000   6.128906e-05  1.496315e-08
     33     40   2   0.50000     0.1400000    0.0300000   2.494471e-04  1.671101e-07
     33     41   2   0.50000     0.1400000    0.0300000   2.494471e-04  1.671101e-07
     33     42   2   0.50000     0.1400000   -0.4000000   8.411158e-04  8.795366e-07
     38     40   2   0.50000     0.0600000    0.0300000   6.128906e-05  1.496315e-08
     38     41   2   0.50000     0.0600000    0.0300000   6.128906e-05  1.496315e-08
     38     42   2   0.50000     0.0600000   -0.4000000   2.066619e-04  7.875431e-08
     39     40   2   0.50000     0.0600000    0.0300000   6.128906e-05  1.496315e-08
     39     41   2   0.50000     0.0600000    0.0300000   6.128906e-05  1.496315e-08
     39     42   2   0.50000     0.0600000   -0.4000000   2.066619e-04  7.875431e-08
     34     43   2   0.50000    -0.1200000    0.1400000   1.015252e-03  1.866303e-06
     40     43   2   0.50000     0.0300000    0.1400000   2.494471e-04  1.671101e-07
     41     43   2   0.50000     0.0300000    0.1400000   2.494471e-04  1.671101e-07
     35     44   2   0.50000     0.1400000   -0.1200000   1.015252e-03  1.866303e-06
     35     46   2   0.50000     0.1400000    0.0300000   2.494471e-04  1.671101e-07
     35     47   2   0.50000     0.1400000    0.0300000   2.494471e-04  1.671101e-07
     42     45   2   0.50000    -0.4000000    0.1400000   8.411158e-04  8.795366e-07
     42     48   2   0.50000    -0.4000000    0.0600000   2.066619e-04  7.875431e-08
     42     49   2   0.50000    -0.4000000    0.0600000   2.066619e-04  7.875431e-08
     46     45   2   0.50000     0.0300000    0.1400000   2.494471e-04  1.671101e-07
     46     48   2   0.50000     0.0300000    0.0600000   6.128906e-05  1.496315e-08
     46     49   2   0.50000     0.0300000    0.0600000   6.128906e-05  1.496315e-08
     47     45   2   0.50000     0.0300000    0.1400000   2.494471e-04  1.671101e-07
     47     48   2   0.50000     0.0300000    0.0600000   6.128906e-05  1.496315e-08
     47     49   2   0.50000     0.0300000    0.0600000   6.128906e-05  1.496315e-08
     43     50   2   0.50000     0.1400000    0.0300000   2.494471e-04  1.671101e-07
     43     51   2   0.50000     0.1400000    0.0300000   2.494471e-04  1.671101e-07
     43     52   2   0.50000     0.1400000   -0.4000000   8.411158e-04  8.795366e-07
     48     50   2   0.50000     0.0600000    0.0300000   6.128906e-05  1.496315e-08
     48     51   2   0.50000     0.0600000    0.0300000   6.128906e-05  1.496315e-08
     48     52   2   0.50000     0.0600000   -0.4000000   2.066619e-04  7.875431e-08
     49     50   2   0.50000     0.0600000    0.0300000   6.128906e-05  1.496315e-08
     49     51   2   0.50000     0.0600000    0.0300000   6.128906e-05  1.496315e-08
     49     52   2   0.50000     0.0600000   -0.4000000   2.066619e-04  7.875431e-08
     44     53   2   0.50000    -0.1200000    0.1400000   1.015252e-03  1.866303e-06
     50     53   2   0.50000     0.0300000    0.1400000   2.494471e-04  1.671101e-07
     51     53   2   0.50000     0.0300000    0.1400000   2.494471e-04  1.671101e-07
     45     54   2   0.50000     0.1400000   -0.1200000   1.015252e-03  1.866303e-06
     45     56   2   0.50000     0.1400000    0.0300000   2.494471e-04  1.671101e-07
     45     57   2   0.50000     0.1400000    0.0300000   2.494471e-04  1.671101e-07
     52     55   2   0.50000    -0.4000000    0.1400000   8.411158e-04  8.795366e-07
     52     58   2   0.50000    -0.4000000    0.0600000   2.066619e-04  7.875431e-08
     52     59   2   0.50000    -0.4000000    0.0600000   2.066619e-04  7.875431e-08
     56     55   2   0.50000     0.0300000    0.1400000   2.494471e-04  1.671101e-07
     56     58   2   0.50000     0.0300000    0.0600000   6.128906e-05  1.496315e-08
     56     59   2   0.50000     0.0300000    0.0600000   6.128906e-05  1.496315e-08
     57     55   2   0.50000     0.0300000    0.1400000   2.494471e-04  1.671101e-07
     57     58   2   0.50000     0.0300000    0.0600000   6.128906e-05  1.496315e-08
     57     59   2   0.50000     0.0300000    0.0600000   6.128906e-05  1.496315e-08
     53     60   2   0.50000     0.1400000    0.0300000   2.494471e-04  1.671101e-07
     53     61   2   0.50000     0.1400000    0.0300000   2.494471e-04  1.671101e-07
     53     62   2   0.50000     0.1400000   -0.4000000   8.411158e-04  8.795366e-07
     58     60   2   0.50000     0.0600000    0.0300000   6.128906e-05  1.496315e-08
     58     61   2   0.50000     0.0600000    0.0300000   6.128906e-05  1.496315e-08
     58     62   2   0.50000     0.0600000   -0.4000000   2.066619e-04  7.875431e-08
     59     60   2   0.50000     0.0600000    0.0300000   6.128906e-05  1.496315e-08
     59     61   2   0.50000     0.0600000    0.0300000   6.128906e-05  1.496315e-08
     59     62   2   0.50000     0.0600000   -0.4000000   2.066619e-04  7.875431e-08
     54     63   2   0.50000    -0.1200000    0.1400000   1.015252e-03  1.866303e-06
     60     63   2   0.50000     0.0300000    0.1400000   2.494471e-04  1.671101e-07
     61     63   2   0.50000     0.0300000    0.1400000   2.494471e-04  1.671101e-07
     55     64   2   0.50000     0.1400000   -0.1200000   1.015252e-03  1.866303e-06
     55     66   2   0.50000     0.1400000    0.0300000   2.494471e-04  1.671101e-07
     55     67   2   0.50000     0.1400000    0.0300000   2.494471e-04  1.671101e-07
     62     65   2   0.50000    -0.4000000    0.1400000   8.411158e-04  8.795366e-07
     62     68   2   0.50000    -0.4000000    0.0600000   2.066619e-04  7.875431e-08
     62     69   2   0.50000    -0.4000000    0.0600000   2.066619e-04  7.875431e-08
     66     65   2   0.50000     0.0300000    0.1400000   2.494471e-04  1.671101e-07
     66     68   2   0.50000     0.0300000    0.0600000   6.128906e-05  1.496315e-08
     66     69   2   0.50000     0.0300000    0.0600000   6.128906e-05  1.496315e-08
     67     65   2   0.50000     0.0300000    0.1400000   2.494471e-04  1.671101e-07
     67     68   2   0.50000     0.0300000    0.0600000   6.128906e-05  1.496315e-08
     67     69   2   0.50000     0.0300000    0.0600000   6.128906e-05  1.496315e-08
     63     70   2   0.50000     0.1400000    0.0300000   2.494471e-04  1.671101e-07
     63     71   2   0.50000     0.1400000    0.0300000   2.494471e-04  1.671101e-07
     63     72   2   0.50000     0.1400000   -0.4000000   8.411158e-04  8.795366e-07
     68     70   2   0.50000     0.0600000    0.0300000   6.128906e-05  1.496315e-08
     68     71   2   0.50000     0.0600000    0.0300000   6.128906e-05  1.496315e-08
     68     72   2   0.50000     0.0600000   -0.4000000   2.066619e-04  7.875431e-08
     69     70   2   0.50000     0.0600000    0.0300000   6.128906e-05  1.496315e-08
     69     71   2   0.50000     0.0600000    0.0300000   6.128906e-05  1.496315e-08
     69     72   2   0.50000     0.0600000   -0.4000000   2.066619e-04  7.875431e-08
     64     73   2   0.50000    -0.1200000    0.1400000   1.015252e-03  1.866303e-06
     70     73   2   0.50000     0.0300000    0.1400000   2.494471e-04  1.671101e-07
     71     73   2   0.50000     0.0300000    0.1400000   2.494471e-04  1.671101e-07
     65     74   2   0.50000     0.1400000   -0.1200000   1.015252e-03  1.866303e-06
     65     76   2   0.50000     0.1400000    0.0300000   2.494471e-04  1.671101e-07
     65     77   2   0.50000     0.1400000    0.0300000   2.494471e-04  1.671101e-07
     72     75   2   0.50000    -0.4000000    0.1400000   8.411158e-04  8.795366e-07
     72     78   2   0.50000    -0.4000000    0.0600000   2.066619e-04  7.875431e-08
     72     79   2   0.50000    -0.4000000    0.0600000   2.066619e-04  7.875431e-08
     76     75   2   0.50000     0.0300000    0.1400000   2.494471e-04  1.671101e-07
     76     78   2   0.50000     0.0300000    0.0600000   6.128906e-05  1.496315e-08
     76     79   2   0.50000     0.0300000    0.0600000   6.128906e-05  1.496315e-08
     77     75   2   0.50000     0.0300000    0.1400000   2.494471e-04  1.671101e-07
     77     78   2   0.50000     0.0300000    0.0600000   6.128906e-05  1.496315e-08
     77     79   2   0.50000     0.0300000    0.0600000   6.128906e-05  1.496315e-08
     73     80   2   0.50000     0.1400000    0.0300000   2.494471e-04  1.671101e-07
     73     81   2   0.50000     0.1400000    0.0300000   2.494471e-04  1.671101e-07
     73     82   2   0.50000     0.1400000   -0.4000000   8.411158e-04  8.795366e-07
     78     80   2   0.50000     0.0600000    0.0300000   6.128906e-05  1.496315e-08
     78     81   2   0.50000     0.0600000    0.0300000   6.128906e-05  1.496315e-08
     78     82   2   0.50000     0.0600000   -0.4000000   2.066619e-04  7.875431e-08
     79     80   2   0.50000     0.0600000    0.0300000   6.128906e-05  1.496315e-08
     79     81   2   0.50000     0.0600000    0.0300000   6.128906e-05  1.496315e-08
     79     82   2   0.50000     0.0600000   -0.4000000   2.066619e-04  7.875431e-08
     74     83   2   0.50000    -0.1200000    0.1400000   1.015252e-03  1.866303e-06
     80     83   2   0.50000     0.0300000    0.1400000   2.494471e-04  1.671101e-07
     81     83   2   0.50000     0.0300000    0.1400000   2.494471e-04  1.671101e-07
     75     84   2   0.50000     0.1400000   -0.1200000   1.015252e-03  1.866303e-06
     75     86   2   0.50000     0.1400000    0.0300000   2.494471e-04  1.671101e-07
     75     87   2   0.50000     0.1400000    0.0300000   2.494471e-04  1.671101e-07
     82     85   2   0.50000    -0.4000000    0.1400000   8.411158e-04  8.795366e-07
     82     88   2   0.50000    -0.4000000    0.0600000   2.066619e-04  7.875431e-08
     82     89   2   0.50000    -0.4000000    0.0600000   2.066619e-04  7.875431e-08
     86     85   2   0.50000     0.0300000    0.1400000   2.494471e-04  1.671101e-07
     86     88   2   0.50000     0.0300000    0.0600000   6.128906e-05  1.496315e-08
     86     89   2   0.50000     0.0300000    0.0600000   6.128906e-05  1.496315e-08
     87     85   2   0.50000     0.0300000    0.1400000   2.494471e-04  1.671101e-07
     87     88   2   0.50000     0.0300000    0.0600000   6.128906e-05  1.496315e-08
     87     89   2   0.50000     0.0300000    0.0600000   6.128906e-05  1.496315e-08
     83     90   2   0.50000     0.1400000    0.0300000   2.494471e-04  1.671101e-07
     83     91   2   0.50000     0.1400000    0.0300000   2.494471e-04  1.671101e-07
     83     92   2   0.50000     0.1400000   -0.4000000   8.411158e-04  8.795366e-07
     88     90   2   0.50000     0.0600000    0.0300000   6.128906e-05  1.496315e-08
     88     91   2   0.50000     0.0600000    0.0300000   6.128906e-05  1.496315e-08
     88     92   2   0.50000     0.0600000   -0.4000000   2.066619e-04  7.875431e-08
     89     90   2   0.50000     0.0600000    0.0300000   6.128906e-05  1.496315e-08
     89     91   2   0.50000     0.0600000    0.0300000   6.128906e-05  1.496315e-08
     89     92   2   0.50000     0.0600000   -0.4000000   2.066619e-04  7.875431e-08
     84     93   2   0.50000    -0.1200000    0.1400000   1.015252e-03  1.866303e-06
     90     93   2   0.50000     0.0300000    0.1400000   2.494471e-04  1.671101e-07
     91     93   2   0.50000     0.0300000    0.1400000   2.494471e-04  1.671101e-07
     85     94   2   0.50000     0.1400000   -0.1200000   1.015252e-03  1.866303e-06
     85     96   2   0.50000     0.1400000    0.0300000   2.494471e-04  1.671101e-07
     85     97   2   0.50000     0.1400000    0.0300000   2.494471e-04  1.671101e-07
     92     95   2   0.50000    -0.4000000    0.1400000   8.411158e-04  8.795366e-07
     92     98   2   0.50000    -0.4000000    0.0600000   2.066619e-04  7.875431e-08
     92     99   2   0.50000    -0.4000000    0.0600000   2.066619e-04  7.875431e-08
     96     95   2   0.50000     0.0300000    0.1400000   2.494471e-04  1.671101e-07
     96     98   2   0.50000     0.0300000    0.0600000   6.128906e-05  1.496315e-08
     96     99   2   0.50000     0.0300000    0.0600000   6.128906e-05  1.496315e-08
     97     95   2   0.50000     0.0300000    0.1400000   2.494471e-04  1.671101e-07
     97     98   2   0.50000     0.0300000    0.0600000   6.128906e-05  1.496315e-08
     97     99   2   0.50000     0.0300000    0.0600000   6.128906e-05  1.496315e-08
     93    100   2   0.50000     0.1400000    0.0300000   2.494471e-04  1.671101e-07
     93    101   2   0.50000     0.1400000    0.0300000   2.494471e-04  1.671101e-07
     93    102   2   0.50000     0.1400000   -0.4000000   8.411158e-04  8.795366e-07
     98    100   2   0.50000     0.0600000    0.0300000   6.128906e-05  1.496315e-08
     98    101   2   0.50000     0.0600000    0.0300000   6.128906e-05  1.496315e-08
     98    102   2   0.50000     0.0600000   -0.4000000   2.066619e-04  7.875431e-08
     99    100   2   0.50000     0.0600000    0.0300000   6.128906e-05  1.496315e-08
     99    101   2   0.50000     0.0600000    0.0300000   6.128906e-05  1.496315e-08
     99    102   2   0.50000     0.0600000   -0.4000000   2.066619e-04  7.875431e-08
     94    103   2   0.50000    -0.1200000    0.1400000   1.015252e-03  1.866303e-06
    100    103   2   0.50000     0.0300000    0.1400000   2.494471e-04  1.671101e-07
    101    103   2   0.50000     0.0300000    0.1400000   2.494471e-04  1.671101e-07
     95    104   2   0.50000     0.1400000   -0.1200000   1.015252e-03  1.866303e-06
     95    106   2   0.50000     0.1400000    0.0300000   2.494471e-04  1.671101e-07
     95    107   2   0.50000     0.1400000    0.0300000   2.494471e-04  1.671101e-07
    102    105   2   0.50000    -0.4000000    0.1400000   8.411158e-04  8.795366e-07
    102    108   2   0.50000    -0.4000000    0.0600000   2.066619e-04  7.875431e-08
    102    109   2   0.50000    -0.4000000    0.0600000   2.066619e-04  7.875431e-08
    106    105   2   0.50000     0.0300000    0.1400000   2.494471e-04  1.671101e-07
    106    108   2   0.50000     0.0300000    0.0600000   6.128906e-05  1.496315e-08
    106    109   2   0.50000     0.0300000    0.0600000   6.128906e-05  1.496315e-08
    107    105   2   0.50000     0.0300000    0.1400000   2.494471e-04  1.671101e-07
    107    108   2   0.50000     0.0300000    0.0600000   6.128906e-05  1.496315e-08
    107    109   2   0.50000     0.0300000    0.0600000   6.128906e-05  1.496315e-08
    103    110   2   0.50000     0.1400000    0.0300000   2.494471e-04  1.671101e-07
    103    111   2   0.50000     0.1400000    0.0300000   2.494471e-04  1.671101e-07
    103    112   2   0.50000     0.1400000   -0.4000000   8.411158e-04  8.795366e-07
    108    110   2   0.50000     0.0600000    0.0300000   6.128906e-05  1.496315e-08
    108    111   2   0.50000     0.0600000    0.0300000   6.128906e-05  1.496315e-08
    108    112   2   0.50000     0.0600000   -0.4000000   2.066619e-04  7.875431e-08
    109    110   2   0.50000     0.0600000    0.0300000   6.128906e-05  1.496315e-08
    109    111   2   0.50000     0.0600000    0.0300000   6.128906e-05  1.496315e-08
    109    112   2   0.50000     0.0600000   -0.4000000   2.066619e-04  7.875431e-08
    104    113   2   0.50000    -0.1200000    0.1400000   1.015252e-03  1.866303e-06
    110    113   2   0.50000     0.0300000    0.1400000   2.494471e-04  1.671101e-07
    111    113   2   0.50000     0.0300000    0.1400000   2.494471e-04  1.671101e-07
    105    114   2   0.50000     0.1400000   -0.1200000   1.015252e-03  1.866303e-06
    105    116   2   0.50000     0.1400000    0.0300000   2.494471e-04  1.671101e-07
    105    117   2   0.50000     0.1400000    0.0300000   2.494471e-04  1.671101e-07
    112    115   2   0.50000    -0.4000000    0.1400000   8.411158e-04  8.795366e-07
    112    118   2   0.50000    -0.4000000    0.0600000   2.066619e-04  7.875431e-08
    112    119   2   0.50000    -0.4000000    0.0600000   2.066619e-04  7.875431e-08
    116    115   2   0.50000     0.0300000    0.1400000   2.494471e-04  1.671101e-07
    116    118   2   0.50000     0.0300000    0.0600000   6.128906e-05  1.496315e-08
    116    119   2   0.50000     0.0300000    0.0600000   6.128906e-05  1.496315e-08
    117    115   2   0.50000     0.0300000    0.1400000   2.494471e-04  1.671101e-07
    117    118   2   0.50000     0.0300000    0.0600000   6.128906e-05  1.496315e-08
    117    119   2   0.50000     0.0300000    0.0600000   6.128906e-05  1.496315e-08
    113    120   2   0.50000     0.1400000    0.0300000   2.494471e-04  1.671101e-07
    113    121   2   0.50000     0.1400000    0.0300000   2.494471e-04  1.671101e-07
    113    122   2   0.50000     0.1400000   -0.4000000   8.411158e-04  8.795366e-07
    118    120   2   0.50000     0.0600000    0.0300000   6.128906e-05  1.496315e-08
    118    121   2   0.50000     0.0600000    0.0300000   6.128906e-05  1.496315e-08
    118    122   2   0.50000     0.0600000   -0.4000000   2.066619e-04  7.875431e-08
    119    120   2   0.50000     0.0600000    0.0300000   6.128906e-05  1.496315e-08
    119    121   2   0.50000     0.0600000    0.0300000   6.128906e-05  1.496315e-08
    119    122   2   0.50000     0.0600000   -0.4000000   2.066619e-04  7.875431e-08
    114    123   2   0.50000    -0.1200000    0.1400000   1.015252e-03  1.866303e-06
    120    123   2   0.50000     0.0300000    0.1400000   2.494471e-04  1.671101e-07
    121    123   2   0.50000     0.0300000    0.1400000   2.494471e-04  1.671101e-07
    115    124   2   0.50000     0.1400000   -0.1200000   1.015252e-03  1.866303e-06
    115    126   2   0.50000     0.1400000    0.0300000   2.494471e-04  1.671101e-07
    115    127   2   0.50000     0.1400000    0.0300000   2.494471e-04  1.671101e-07
    122    125   2   0.50000    -0.4000000    0.1400000   8.411158e-04  8.795366e-07
    122    128   2   0.50000    -0.4000000    0.0600000   2.066619e-04  7.875431e-08
    122    129   2   0.50000    -0.4000000    0.0600000   2.066619e-04  7.875431e-08
    126    125   2   0.50000     0.0300000    0.1400000   2.494471e-04  1.671101e-07
    126    128   2   0.50000     0.0300000    0.0600000   6.128906e-05  1.496315e-08
    126    129   2   0.50000     0.0300000    0.0600000   6.128906e-05  1.496315e-08
    127    125   2   0.50000     0.0300000    0.1400000   2.494471e-04  1.671101e-07
    127    128   2   0.50000     0.0300000    0.0600000   6.128906e-05  1.496315e-08
    127    129   2   0.50000     0.0300000    0.0600000   6.128906e-05  1.496315e-08
    123    130   2   0.50000     0.1400000    0.0300000   2.494471e-04  1.671101e-07
    123    131   2   0.50000     0.1400000    0.0300000   2.494471e-04  1.671101e-07
    123    132   2   0.50000     0.1400000   -0.4000000   8.411158e-04  8.795366e-07
    128    130   2   0.50000     0.0600000    0.0300000   6.128906e-05  1.496315e-08
    128    131   2   0.50000     0.0600000    0.0300000   6.128906e-05  1.496315e-08
    128    132   2   0.50000     0.0600000   -0.4000000   2.066619e-04  7.875431e-08
    129    130   2   0.50000     0.0600000    0.0300000   6.128906e-05  1.496315e-08
    129    131   2   0.50000     0.0600000    0.0300000   6.128906e-05  1.496315e-08
    129    132   2   0.50000     0.0600000   -0.4000000   2.066619e-04  7.875431e-08
    124    133   2   0.50000    -0.1200000    0.1400000   1.015252e-03  1.866303e-06
    130    133   2   0.50000     0.0300000    0.1400000   2.494471e-04  1.671101e-07
    131    133   2   0.50000     0.0300000    0.1400000   2.494471e-04  1.671101e-07
    125    134   2   0.50000     0.1400000   -0.1200000   1.015252e-03  1.866303e-06
    125    136   2   0.50000     0.1400000    0.0300000   2.494471e-04  1.671101e-07
    125    137   2   0.50000     0.1400000    0.0300000   2.494471e-04  1.671101e-07
    132    135   2   0.50000    -0.4000000    0.1400000   8.411158e-04  8.795366e-07
    132    138   2   0.50000    -0.4000000    0.0600000   2.066619e-04  7.875431e-08
    132    139   2   0.50000    -0.4000000    0.0600000   2.066619e-04  7.875431e-08
    136    135   2   0.50000     0.0300000    0.1400000   2.494471e-04  1.671101e-07
    136    138   2   0.50000     0.0300000    0.0600000   6.128906e-05  1.496315e-08
    136    139   2   0.50000     0.0300000    0.0600000   6.128906e-05  1.496315e-08
    137    135   2   0.50000     0.0300000    0.1400000   2.494471e-04  1.671101e-07
    137    138   2   0.50000     0.0300000    0.0600000   6.128906e-05  1.496315e-08
    137    139   2   0.50000     0.0300000    0.0600000   6.128906e-05  1.496315e-08
    133    140   2   0.50000     0.1400000    0.0300000   2.494471e-04  1.671101e-07
    133    141   2   0.50000     0.1400000    0.0300000   2.494471e-04  1.671101e-07
    133    142   2   0.50000     0.1400000   -0.4000000   8.411158e-04  8.795366e-07
    138    140   2   0.50000     0.0600000    0.0300000   6.128906e-05  1.496315e-08
    138    141   2   0.50000     0.0600000    0.0300000   6.128906e-05  1.496315e-08
    138    142   2   0.50000     0.0600000   -0.4000000   2.066619e-04  7.875431e-08
    139    140   2   0.50000     0.0600000    0.0300000   6.128906e-05  1.496315e-08
    139    141   2   0.50000     0.0600000    0.0300000   6.128906e-05  1.496315e-08
    139    142   2   0.50000     0.0600000   -0.4000000   2.066619e-04  7.875431e-08
    134    143   2   0.50000    -0.1200000    0.1400000   1.015252e-03  1.866303e-06
    140    143   2   0.50000     0.0300000    0.1400000   2.494471e-04  1.671101e-07
    141    143   2   0.50000     0.0300000    0.1400000   2.494471e-04  1.671101e-07
    135    144   2   0.50000     0.1400000   -0.1200000   1.015252e-03  1.866303e-06
    135    146   2   0.50000     0.1400000    0.0300000   2.494471e-04  1.671101e-07
    135    147   2   0.50000     0.1400000    0.0300000   2.494471e-04  1.671101e-07
    142    145   2   0.50000    -0.4000000    0.1400000   8.411158e-04  8.795366e-07
    142    148   2   0.50000    -0.4000000    0.0600000   2.066619e-04  7.875431e-08
    142    149   2   0.50000    -0.4000000    0.0600000   2.066619e-04  7.875431e-08
    146    145   2   0.50000     0.0300000    0.1400000   2.494471e-04  1.671101e-07
    146    148   2   0.50000     0.0300000    0.0600000   6.128906e-05  1.496315e-08
    146    149   2   0.50000     0.0300000    0.0600000   6.128906e-05  1.496315e-08
    147    145   2   0.50000     0.0300000    0.1400000   2.494471e-04  1.671101e-07
    147    148   2   0.50000     0.0300000    0.0600000   6.128906e-05  1.496315e-08
    147    149   2   0.50000     0.0300000    0.0600000   6.128906e-05  1.496315e-08
    143    150   2   0.50000     0.1400000    0.0300000   2.494471e-04  1.671101e-07
    143    151   2   0.50000     0.1400000    0.0300000   2.494471e-04  1.671101e-07
    143    152   2   0.50000     0.1400000   -0.4000000   8.411158e-04  8.795366e-07
    148    150   2   0.50000     0.0600000    0.0300000   6.128906e-05  1.496315e-08
    148    151   2   0.50000     0.0600000    0.0300000   6.128906e-05  1.496315e-08
    148    152   2   0.50000     0.0600000   -0.4000000   2.066619e-04  7.875431e-08
    149    150   2   0.50000     0.0600000    0.0300000   6.128906e-05  1.496315e-08
    149    151   2   0.50000     0.0600000    0.0300000   6.128906e-05  1.496315e-08
    149    152   2   0.50000     0.0600000   -0.4000000   2.066619e-04  7.875431e-08
    144    153   2   0.50000    -0.1200000    0.1400000   1.015252e-03  1.866303e-06
    150    153   2   0.50000     0.0300000    0.1400000   2.494471e-04  1.671101e-07
    151    153   2   0.50000     0.0300000    0.1400000   2.494471e-04  1.671101e-07
    145    154   2   0.50000     0.1400000   -0.1200000   1.015252e-03  1.866303e-06
    145    156   2   0.50000     0.1400000    0.0300000   2.494471e-04  1.671101e-07
    145    157   2   0.50000     0.1400000    0.0300000   2.494471e-04  1.671101e-07
    152    155   2   0.50000    -0.4000000    0.1400000   8.411158e-04  8.795366e-07
    152    158   2   0.50000    -0.4000000    0.0600000   2.066619e-04  7.875431e-08
    152    159   2   0.50000    -0.4000000    0.0600000   2.066619e-04  7.875431e-08
    156    155   2   0.50000     0.0300000    0.1400000   2.494471e-04  1.671101e-07
    156    158   2   0.50000     0.0300000    0.0600000   6.128906e-05  1.496315e-08
    156    159   2   0.50000     0.0300000    0.0600000   6.128906e-05  1.496315e-08
    157    155   2   0.50000     0.0300000    0.1400000   2.494471e-04  1.671101e-07
    157    158   2   0.50000     0.0300000    0.0600000   6.128906e-05  1.496315e-08
    157    159   2   0.50000     0.0300000    0.0600000   6.128906e-05  1.496315e-08
    153    160   2   0.50000     0.1400000    0.0300000   2.494471e-04  1.671101e-07
    153    161   2   0.50000     0.1400000    0.0300000   2.494471e-04  1.671101e-07
    153    162   2   0.50000     0.1400000   -0.4000000   8.411158e-04  8.795366e-07
    158    160   2   0.50000     0.0600000    0.0300000   6.128906e-05  1.496315e-08
    158    161   2   0.50000     0.0600000    0.0300000   6.128906e-05  1.496315e-08
    158    162   2   0.50000     0.0600000   -0.4000000   2.066619e-04  7.875431e-08
    159    160   2   0.50000     0.0600000    0.0300000   6.128906e-05  1.496315e-08
    159    161   2   0.50000     0.0600000    0.0300000   6.128906e-05  1.496315e-08
    159    162   2   0.50000     0.0600000   -0.4000000   2.066619e-04  7.875431e-08
    154    163   2   0.50000    -0.1200000    0.1400000   1.015252e-03  1.866303e-06
    160    163   2   0.50000     0.0300000    0.1400000   2.494471e-04  1.671101e-07
    161    163   2   0.50000     0.0300000    0.1400000   2.494471e-04  1.671101e-07
    155    164   2   0.50000     0.1400000   -0.1200000   1.015252e-03  1.866303e-06
    155    166   2   0.50000     0.1400000    0.0300000   2.494471e-04  1.671101e-07
    155    167   2   0.50000     0.1400000    0.0300000   2.494471e-04  1.671101e-07
    162    165   2   0.50000    -0.4000000    0.1400000   8.411158e-04  8.795366e-07
    162    168   2   0.50000    -0.4000000    0.0600000   2.066619e-04  7.875431e-08
    162    169   2   0.50000    -0.4000000    0.0600000   2.066619e-04  7.875431e-08
    166    165   2   0.50000     0.0300000    0.1400000   2.494471e-04  1.671101e-07
    166    168   2   0.50000     0.0300000    0.0600000   6.128906e-05  1.496315e-08
    166    169   2   0.50000     0.0300000    0.0600000   6.128906e-05  1.496315e-08
    167    165   2   0.50000     0.0300000    0.1400000   2.494471e-04  1.671101e-07
    167    168   2   0.50000     0.0300000    0.0600000   6.128906e-05  1.496315e-08
    167    169   2   0.50000     0.0300000    0.0600000   6.128906e-05  1.496315e-08
    163    170   2   0.50000     0.1400000    0.0300000   2.494471e-04  1.671101e-07
    163    171   2   0.50000     0.1400000    0.0300000   2.494471e-04  1.671101e-07
    163    172   2   0.50000     0.1400000   -0.4000000   8.411158e-04  8.795366e-07
    168    170   2   0.50000     0.0600000    0.0300000   6.128906e-05  1.496315e-08
    168    171   2   0.50000     0.0600000    0.0300000   6.128906e-05  1.496315e-08
    168    172   2   0.50000     0.0600000   -0.4000000   2.066619e-04  7.875431e-08
    169    170   2   0.50000     0.0600000    0.0300000   6.128906e-05  1.496315e-08
    169    171   2   0.50000     0.0600000    0.0300000   6.128906e-05  1.496315e-08
    169    172   2   0.50000     0.0600000   -0.4000000   2.066619e-04  7.875431e-08
    164    173   2   0.50000    -0.1200000    0.1400000   1.015252e-03  1.866303e-06
    170    173   2   0.50000     0.0300000    0.1400000   2.494471e-04  1.671101e-07
    171    173   2   0.50000     0.0300000    0.1400000   2.494471e-04  1.671101e-07
    165    174   2   0.50000     0.1400000   -0.1200000   1.015252e-03  1.866303e-06
    165    176   2   0.50000     0.1400000    0.0300000   2.494471e-04  1.671101e-07
    165    177   2   0.50000     0.1400000    0.0300000   2.494471e-04  1.671101e-07
    172    175   2   0.50000    -0.4000000    0.1400000   8.411158e-04  8.795366e-07
    172    178   2   0.50000    -0.4000000    0.0600000   2.066619e-04  7.875431e-08
    172    179   2   0.50000    -0.4000000    0.0600000   2.066619e-04  7.875431e-08
    176    175   2   0.50000     0.0300000    0.1400000   2.494471e-04  1.671101e-07
    176    178   2   0.50000     0.0300000    0.0600000   6.128906e-05  1.496315e-08
    176    179   2   0.50000     0.0300000    0.0600000   6.128906e-05  1.496315e-08
    177    175   2   0.50000     0.0300000    0.1400000   2.494471e-04  1.671101e-07
    177    178   2   0.50000     0.0300000    0.0600000   6.128906e-05  1.496315e-08
    177    179   2   0.50000     0.0300000    0.0600000   6.128906e-05  1.496315e-08
    173    180   2   0.50000     0.1400000    0.0300000   2.494471e-04  1.671101e-07
    173    181   2   0.50000     0.1400000    0.0300000   2.494471e-04  1.671101e-07
    173    182   2   0.50000     0.1400000   -0.4000000   8.411158e-04  8.795366e-07
    178    180   2   0.50000     0.0600000    0.0300000   6.128906e-05  1.496315e-08
    178    181   2   0.50000     0.0600000    0.0300000   6.128906e-05  1.496315e-08
    178    182   2   0.50000     0.0600000   -0.4000000   2.066619e-04  7.875431e-08
    179    180   2   0.50000     0.0600000    0.0300000   6.128906e-05  1.496315e-08
    179    181   2   0.50000     0.0600000    0.0300000   6.128906e-05  1.496315e-08
    179    182   2   0.50000     0.0600000   -0.4000000   2.066619e-04  7.875431e-08
    174    183   2   0.50000    -0.1200000    0.1400000   1.015252e-03  1.866303e-06
    180    183   2   0.50000     0.0300000    0.1400000   2.494471e-04  1.671101e-07
    181    183   2   0.50000     0.0300000    0.1400000   2.494471e-04  1.671101e-07
    175    184   2   0.50000     0.1400000   -0.1200000   1.015252e-03  1.866303e-06
    175    186   2   0.50000     0.1400000    0.0300000   2.494471e-04  1.671101e-07
    175    187   2   0.50000     0.1400000    0.0300000   2.494471e-04  1.671101e-07
    182    185   2   0.50000    -0.4000000    0.1400000   8.411158e-04  8.795366e-07
    182    188   2   0.50000    -0.4000000    0.0600000   2.066619e-04  7.875431e-08
    182    189   2   0.50000    -0.4000000    0.0600000   2.066619e-04  7.875431e-08
    186    185   2   0.50000     0.0300000    0.1400000   2.494471e-04  1.671101e-07
    186    188   2   0.50000     0.0300000    0.0600000   6.128906e-05  1.496315e-08
    186    189   2   0.50000     0.0300000    0.0600000   6.128906e-05  1.496315e-08
    187    185   2   0.50000     0.0300000    0.1400000   2.494471e-04  1.671101e-07
    187    188   2   0.50000     0.0300000    0.0600000   6.128906e-05  1.496315e-08
    187    189   2   0.50000     0.0300000    0.0600000   6.128906e-05  1.496315e-08
    183    190   2   0.50000     0.1400000    0.0300000   2.494471e-04  1.671101e-07
    183    191   2   0.50000     0.1400000    0.0300000   2.494471e-04  1.671101e-07
    183    192   2   0.50000     0.1400000   -0.4000000   8.411158e-04  8.795366e-07
    188    190   2   0.50000     0.0600000    0.0300000   6.128906e-05  1.496315e-08
    188    191   2   0.50000     0.0600000    0.0300000   6.128906e-05  1.496315e-08
    188    192   2   0.50000     0.0600000   -0.4000000   2.066619e-04  7.875431e-08
    189    190   2   0.50000     0.0600000    0.0300000   6.128906e-05  1.496315e-08
    189    191   2   0.50000     0.0600000    0.0300000   6.128906e-05  1.496315e-08
    189    192   2   0.50000     0.0600000   -0.4000000   2.066619e-04  7.875431e-08
    184    193   2   0.50000    -0.1200000    0.1400000   1.015252e-03  1.866303e-06
    190    193   2   0.50000     0.0300000    0.1400000   2.494471e-04  1.671101e-07
    191    193   2   0.50000     0.0300000    0.1400000   2.494471e-04  1.671101e-07
    185    194   2   0.50000     0.1400000   -0.1200000   1.015252e-03  1.866303e-06
    185    196   2   0.50000     0.1400000    0.0300000   2.494471e-04  1.671101e-07
    185    197   2   0.50000     0.1400000    0.0300000   2.494471e-04  1.671101e-07
    192    195   2   0.50000    -0.4000000   -0.1800000   8.411158e-04  8.795366e-07
    192    198   2   0.50000    -0.4000000    0.0600000   2.066619e-04  7.875431e-08
    192    199   2   0.50000    -0.4000000    0.0600000   2.066619e-04  7.875431e-08
    196    195   2   0.50000     0.0300000   -0.1800000   2.494471e-04  1.671101e-07
    196    198   2   0.50000     0.0300000    0.0600000   6.128906e-05  1.496315e-08
    196    199   2   0.50000     0.0300000    0.0600000   6.128906e-05  1.496315e-08
    197    195   2   0.50000     0.0300000   -0.1800000   2.494471e-04  1.671101e-07
    197    198   2   0.50000     0.0300000    0.0600000   6.128906e-05  1.496315e-08
    197    199   2   0.50000     0.0300000    0.0600000   6.128906e-05  1.496315e-08
    193    200   2   0.50000     0.1400000    0.0600000   2.494471e-04  1.671101e-07
    193    201   2   0.50000     0.1400000    0.0600000   2.494471e-04  1.671101e-07
    193    202   2   0.50000     0.1400000    0.0600000   2.494471e-04  1.671101e-07
    198    200   2   0.50000     0.0600000    0.0600000   6.128906e-05  1.496315e-08
    198    201   2   0.50000     0.0600000    0.0600000   6.128906e-05  1.496315e-08
    198    202   2   0.50000     0.0600000    0.0600000   6.128906e-05  1.496315e-08
    199    200   2   0.50000     0.0600000    0.0600000   6.128906e-05  1.496315e-08
    199    201   2   0.50000     0.0600000    0.0600000   6.128906e-05  1.496315e-08
    199    202   2   0.50000     0.0600000    0.0600000   6.128906e-05  1.496315e-08

[ angles ]
; ai  aj  ak
      2      1     11   1    108.5000    460.2400
      1      2      3   1    109.5000    418.4000
      1      2      5   1    109.5000    292.8800
      1      2      6   1    109.5000    292.8800
      3      2      5   1    110.7000    313.8000
      3      2      6   1    110.7000    313.8000
      5      2      6   1    107.8000    276.1440
      2      3      4   1    112.7000    488.2728
      2      3      7   1    110.7000    313.8000
      2      3      8   1    110.7000    313.8000
      4      3      7   1    110.7000    313.8000
      4      3      8   1    110.7000    313.8000
      7      3      8   1    107.8000    276.1440
      3      4      9   1    110.7000    313.8000
      3      4     10   1    110.7000    313.8000
      3      4     12   1    109.5000    418.4000
      9      4     10   1    107.8000    276.1440
      9      4     12   1    109.5000    292.8800
     10      4     12   1    109.5000    292.8800
      4     12     13   1    109.5000    502.0800
     12     13     14   1    109.5000    418.4000
     12     13     16   1    109.5000    292.8800
     12     13     17   1    109.5000    292.8800
     14     13     16   1    110.7000    313.8000
     14     13     17   1    110.7000    313.8000
     16     13     17   1    107.8000    276.1440
     13     14     15   1    112.7000    488.2728
     13     14     18   1    110.7000    313.8000
     13     14     19   1    110.7000    313.8000
     15     14     18   1    110.7000    313.8000
     15     14     19   1    110.7000    313.8000
     18     14     19   1    107.8000    276.1440
     14     15     20   1    110.7000    313.8000
     14     15     21   1    110.7000    313.8000
     14     15     22   1    109.5000    418.4000
     20     15     21   1    107.8000    276.1440
     20     15     22   1    109.5000    292.8800
     21     15     22   1    109.5000    292.8800
     15     22     23   1    109.5000    502.0800
     22     23     24   1    109.5000    418.4000
     22     23     26   1    109.5000    292.8800
     22     23     27   1    109.5000    292.8800
     24     23     26   1    110.7000    313.8000
     24     23     27   1    110.7000    313.8000
     26     23     27   1    107.8000    276.1440
     23     24     25   1    112.7000    488.2728
     23     24     28   1    110.7000    313.8000
     23     24     29   1    110.7000    313.8000
     25     24     28   1    110.7000    313.8000
     25     24     29   1    110.7000    313.8000
     28     24     29   1    107.8000    276.1440
     24     25     30   1    110.7000    313.8000
     24     25     31   1    110.7000    313.8000
     24     25     32   1    109.5000    418.4000
     30     25     31   1    107.8000    276.1440
     30     25     32   1    109.5000    292.8800
     31     25     32   1    109.5000    292.8800
     25     32     33   1    109.5000    502.0800
     32     33     34   1    109.5000    418.4000
     32     33     36   1    109.5000    292.8800
     32     33     37   1    109.5000    292.8800
     34     33     36   1    110.7000    313.8000
     34     33     37   1    110.7000    313.8000
     36     33     37   1    107.8000    276.1440
     33     34     35   1    112.7000    488.2728
     33     34     38   1    110.7000    313.8000
     33     34     39   1    110.7000    313.8000
     35     34     38   1    110.7000    313.8000
     35     34     39   1    110.7000    313.8000
     38     34     39   1    107.8000    276.1440
     34     35     40   1    110.7000    313.8000
     34     35     41   1    110.7000    313.8000
     34     35     42   1    109.5000    418.4000
     40     35     41   1    107.8000    276.1440
     40     35     42   1    109.5000    292.8800
     41     35     42   1    109.5000    292.8800
     35     42     43   1    109.5000    502.0800
     42     43     44   1    109.5000    418.4000
     42     43     46   1    109.5000    292.8800
     42     43     47   1    109.5000    292.8800
     44     43     46   1    110.7000    313.8000
     44     43     47   1    110.7000    313.8000
     46     43     47   1    107.8000    276.1440
     43     44     45   1    112.7000    488.2728
     43     44     48   1    110.7000    313.8000
     43     44     49   1    110.7000    313.8000
     45     44     48   1    110.7000    313.8000
     45     44     49   1    110.7000    313.8000
     48     44     49   1    107.8000    276.1440
     44     45     50   1    110.7000    313.8000
     44     45     51   1    110.7000    313.8000
     44     45     52   1    109.5000    418.4000
     50     45     51   1    107.8000    276.1440
     50     45     52   1    109.5000    292.8800
     51     45     52   1    109.5000    292.8800
     45     52     53   1    109.5000    502.0800
     52     53     54   1    109.5000    418.4000
     52     53     56   1    109.5000    292.8800
     52     53     57   1    109.5000    292.8800
     54     53     56   1    110.7000    313.8000
     54     53     57   1    110.7000    313.8000
     56     53     57   1    107.8000    276.1440
     53     54     55   1    112.7000    488.2728
     53     54     58   1    110.7000    313.8000
     53     54     59   1    110.7000    313.8000
     55     54     58   1    110.7000    313.8000
     55     54     59   1    110.7000    313.8000
     58     54     59   1    107.8000    276.1440
     54     55     60   1    110.7000    313.8000
     54     55     61   1    110.7000    313.8000
     54     55     62   1    109.5000    418.4000
     60     55     61   1    107.8000    276.1440
     60     55     62   1    109.5000    292.8800
     61     55     62   1    109.5000    292.8800
     55     62     63   1    109.5000    502.0800
     62     63     64   1    109.5000    418.4000
     62     63     66   1    109.5000    292.8800
     62     63     67   1    109.5000    292.8800
     64     63     66   1    110.7000    313.8000
     64     63     67   1    110.7000    313.8000
     66     63     67   1    107.8000    276.1440
     63     64     65   1    112.7000    488.2728
     63     64     68   1    110.7000    313.8000
     63     64     69   1    110.7000    313.8000
     65     64     68   1    110.7000    313.8000
     65     64     69   1    110.7000    313.8000
     68     64     69   1    107.8000    276.1440
     64     65     70   1    110.7000    313.8000
     64     65     71   1    110.7000    313.8000
     64     65     72   1    109.5000    418.4000
     70     65     71   1    107.8000    276.1440
     70     65     72   1    109.5000    292.8800
     71     65     72   1    109.5000    292.8800
     65     72     73   1    109.5000    502.0800
     72     73     74   1    109.5000    418.4000
     72     73     76   1    109.5000    292.8800
     72     73     77   1    109.5000    292.8800
     74     73     76   1    110.7000    313.8000
     74     73     77   1    110.7000    313.8000
     76     73     77   1    107.8000    276.1440
     73     74     75   1    112.7000    488.2728
     73     74     78   1    110.7000    313.8000
     73     74     79   1    110.7000    313.8000
     75     74     78   1    110.7000    313.8000
     75     74     79   1    110.7000    313.8000
     78     74     79   1    107.8000    276.1440
     74     75     80   1    110.7000    313.8000
     74     75     81   1    110.7000    313.8000
     74     75     82   1    109.5000    418.4000
     80     75     81   1    107.8000    276.1440
     80     75     82   1    109.5000    292.8800
     81     75     82   1    109.5000    292.8800
     75     82     83   1    109.5000    502.0800
     82     83     84   1    109.5000    418.4000
     82     83     86   1    109.5000    292.8800
     82     83     87   1    109.5000    292.8800
     84     83     86   1    110.7000    313.8000
     84     83     87   1    110.7000    313.8000
     86     83     87   1    107.8000    276.1440
     83     84     85   1    112.7000    488.2728
     83     84     88   1    110.7000    313.8000
     83     84     89   1    110.7000    313.8000
     85     84     88   1    110.7000    313.8000
     85     84     89   1    110.7000    313.8000
     88     84     89   1    107.8000    276.1440
     84     85     90   1    110.7000    313.8000
     84     85     91   1    110.7000    313.8000
     84     85     92   1    109.5000    418.4000
     90     85     91   1    107.8000    276.1440
     90     85     92   1    109.5000    292.8800
     91     85     92   1    109.5000    292.8800
     85     92     93   1    109.5000    502.0800
     92     93     94   1    109.5000    418.4000
     92     93     96   1    109.5000    292.8800
     92     93     97   1    109.5000    292.8800
     94     93     96   1    110.7000    313.8000
     94     93     97   1    110.7000    313.8000
     96     93     97   1    107.8000    276.1440
     93     94     95   1    112.7000    488.2728
     93     94     98   1    110.7000    313.8000
     93     94     99   1    110.7000    313.8000
     95     94     98   1    110.7000    313.8000
     95     94     99   1    110.7000    313.8000
     98     94     99   1    107.8000    276.1440
     94     95    100   1    110.7000    313.8000
     94     95    101   1    110.7000    313.8000
     94     95    102   1    109.5000    418.4000
    100     95    101   1    107.8000    276.1440
    100     95    102   1    109.5000    292.8800
    101     95    102   1    109.5000    292.8800
     95    102    103   1    109.5000    502.0800
    102    103    104   1    109.5000    418.4000
    102    103    106   1    109.5000    292.8800
    102    103    107   1    109.5000    292.8800
    104    103    106   1    110.7000    313.8000
    104    103    107   1    110.7000    313.8000
    106    103    107   1    107.8000    276.1440
    103    104    105   1    112.7000    488.2728
    103    104    108   1    110.7000    313.8000
    103    104    109   1    110.7000    313.8000
    105    104    108   1    110.7000    313.8000
    105    104    109   1    110.7000    313.8000
    108    104    109   1    107.8000    276.1440
    104    105    110   1    110.7000    313.8000
    104    105    111   1    110.7000    313.8000
    104    105    112   1    109.5000    418.4000
    110    105    111   1    107.8000    276.1440
    110    105    112   1    109.5000    292.8800
    111    105    112   1    109.5000    292.8800
    105    112    113   1    109.5000    502.0800
    112    113    114   1    109.5000    418.4000
    112    113    116   1    109.5000    292.8800
    112    113    117   1    109.5000    292.8800
    114    113    116   1    110.7000    313.8000
    114    113    117   1    110.7000    313.8000
    116    113    117   1    107.8000    276.1440
    113    114    115   1    112.7000    488.2728
    113    114    118   1    110.7000    313.8000
    113    114    119   1    110.7000    313.8000
    115    114    118   1    110.7000    313.8000
    115    114    119   1    110.7000    313.8000
    118    114    119   1    107.8000    276.1440
    114    115    120   1    110.7000    313.8000
    114    115    121   1    110.7000    313.8000
    114    115    122   1    109.5000    418.4000
    120    115    121   1    107.8000    276.1440
    120    115    122   1    109.5000    292.8800
    121    115    122   1    109.5000    292.8800
    115    122    123   1    109.5000    502.0800
    122    123    124   1    109.5000    418.4000
    122    123    126   1    109.5000    292.8800
    122    123    127   1    109.5000    292.8800
    124    123    126   1    110.7000    313.8000
    124    123    127   1    110.7000    313.8000
    126    123    127   1    107.8000    276.1440
    123    124    125   1    112.7000    488.2728
    123    124    128   1    110.7000    313.8000
    123    124    129   1    110.7000    313.8000
    125    124    128   1    110.7000    313.8000
    125    124    129   1    110.7000    313.8000
    128    124    129   1    107.8000    276.1440
    124    125    130   1    110.7000    313.8000
    124    125    131   1    110.7000    313.8000
    124    125    132   1    109.5000    418.4000
    130    125    131   1    107.8000    276.1440
    130    125    132   1    109.5000    292.8800
    131    125    132   1    109.5000    292.8800
    125    132    133   1    109.5000    502.0800
    132    133    134   1    109.5000    418.4000
    132    133    136   1    109.5000    292.8800
    132    133    137   1    109.5000    292.8800
    134    133    136   1    110.7000    313.8000
    134    133    137   1    110.7000    313.8000
    136    133    137   1    107.8000    276.1440
    133    134    135   1    112.7000    488.2728
    133    134    138   1    110.7000    313.8000
    133    134    139   1    110.7000    313.8000
    135    134    138   1    110.7000    313.8000
    135    134    139   1    110.7000    313.8000
    138    134    139   1    107.8000    276.1440
    134    135    140   1    110.7000    313.8000
    134    135    141   1    110.7000    313.8000
    134    135    142   1    109.5000    418.4000
    140    135    141   1    107.8000    276.1440
    140    135    142   1    109.5000    292.8800
    141    135    142   1    109.5000    292.8800
    135    142    143   1    109.5000    502.0800
    142    143    144   1    109.5000    418.4000
    142    143    146   1    109.5000    292.8800
    142    143    147   1    109.5000    292.8800
    144    143    146   1    110.7000    313.8000
    144    143    147   1    110.7000    313.8000
    146    143    147   1    107.8000    276.1440
    143    144    145   1    112.7000    488.2728
    143    144    148   1    110.7000    313.8000
    143    144    149   1    110.7000    313.8000
    145    144    148   1    110.7000    313.8000
    145    144    149   1    110.7000    313.8000
    148    144    149   1    107.8000    276.1440
    144    145    150   1    110.7000    313.8000
    144    145    151   1    110.7000    313.8000
    144    145    152   1    109.5000    418.4000
    150    145    151   1    107.8000    276.1440
    150    145    152   1    109.5000    292.8800
    151    145    152   1    109.5000    292.8800
    145    152    153   1    109.5000    502.0800
    152    153    154   1    109.5000    418.4000
    152    153    156   1    109.5000    292.8800
    152    153    157   1    109.5000    292.8800
    154    153    156   1    110.7000    313.8000
    154    153    157   1    110.7000    313.8000
    156    153    157   1    107.8000    276.1440
    153    154    155   1    112.7000    488.2728
    153    154    158   1    110.7000    313.8000
    153    154    159   1    110.7000    313.8000
    155    154    158   1    110.7000    313.8000
    155    154    159   1    110.7000    313.8000
    158    154    159   1    107.8000    276.1440
    154    155    160   1    110.7000    313.8000
    154    155    161   1    110.7000    313.8000
    154    155    162   1    109.5000    418.4000
    160    155    161   1    107.8000    276.1440
    160    155    162   1    109.5000    292.8800
    161    155    162   1    109.5000    292.8800
    155    162    163   1    109.5000    502.0800
    162    163    164   1    109.5000    418.4000
    162    163    166   1    109.5000    292.8800
    162    163    167   1    109.5000    292.8800
    164    163    166   1    110.7000    313.8000
    164    163    167   1    110.7000    313.8000
    166    163    167   1    107.8000    276.1440
    163    164    165   1    112.7000    488.2728
    163    164    168   1    110.7000    313.8000
    163    164    169   1    110.7000    313.8000
    165    164    168   1    110.7000    313.8000
    165    164    169   1    110.7000    313.8000
    168    164    169   1    107.8000    276.1440
    164    165    170   1    110.7000    313.8000
    164    165    171   1    110.7000    313.8000
    164    165    172   1    109.5000    418.4000
    170    165    171   1    107.8000    276.1440
    170    165    172   1    109.5000    292.8800
    171    165    172   1    109.5000    292.8800
    165    172    173   1    109.5000    502.0800
    172    173    174   1    109.5000    418.4000
    172    173    176   1    109.5000    292.8800
    172    173    177   1    109.5000    292.8800
    174    173    176   1    110.7000    313.8000
    174    173    177   1    110.7000    313.8000
    176    173    177   1    107.8000    276.1440
    173    174    175   1    112.7000    488.2728
    173    174    178   1    110.7000    313.8000
    173    174    179   1    110.7000    313.8000
    175    174    178   1    110.7000    313.8000
    175    174    179   1    110.7000    313.8000
    178    174    179   1    107.8000    276.1440
    174    175    180   1    110.7000    313.8000
    174    175    181   1    110.7000    313.8000
    174    175    182   1    109.5000    418.4000
    180    175    181   1    107.8000    276.1440
    180    175    182   1    109.5000    292.8800
    181    175    182   1    109.5000    292.8800
    175    182    183   1    109.5000    502.0800
    182    183    184   1    109.5000    418.4000
    182    183    186   1    109.5000    292.8800
    182    183    187   1    109.5000    292.8800
    184    183    186   1    110.7000    313.8000
    184    183    187   1    110.7000    313.8000
    186    183    187   1    107.8000    276.1440
    183    184    185   1    112.7000    488.2728
    183    184    188   1    110.7000    313.8000
    183    184    189   1    110.7000    313.8000
    185    184    188   1    110.7000    313.8000
    185    184    189   1    110.7000    313.8000
    188    184    189   1    107.8000    276.1440
    184    185    190   1    110.7000    313.8000
    184    185    191   1    110.7000    313.8000
    184    185    192   1    109.5000    418.4000
    190    185    191   1    107.8000    276.1440
    190    185    192   1    109.5000    292.8800
    191    185    192   1    109.5000    292.8800
    185    192    193   1    109.5000    502.0800
    192    193    194   1    109.5000    418.4000
    192    193    196   1    109.5000    292.8800
    192    193    197   1    109.5000    292.8800
    194    193    196   1    110.7000    313.8000
    194    193    197   1    110.7000    313.8000
    196    193    197   1    107.8000    276.1440
    193    194    195   1    112.7000    488.2728
    193    194    198   1    110.7000    313.8000
    193    194    199   1    110.7000    313.8000
    195    194    198   1    110.7000    313.8000
    195    194    199   1    110.7000    313.8000
    198    194    199   1    107.8000    276.1440
    194    195    200   1    110.7000    313.8000
    194    195    201   1    110.7000    313.8000
    194    195    202   1    110.7000    313.8000
    200    195    201   1    107.8000    276.1440
    200    195    202   1    107.8000    276.1440
    201    195    202   1    107.8000    276.1440

[ dihedrals ]
; Proper dihedrals
     11      1      2      3   5    -0.97069    -0.79078     1.77820  0.0
     11      1      2      5   5     0.00000     0.00000     1.62758  0.0
     11      1      2      6   5     0.00000     0.00000     1.62758  0.0
      1      2      3      4   5     7.23832    -1.46440     1.74054  0.0
      1      2      3      7   5     0.00000     0.00000     1.95811  0.0
      1      2      3      8   5     0.00000     0.00000     1.95811  0.0
      5      2      3      4   5     0.00000     0.00000     1.25520  0.0
      5      2      3      7   5     0.00000     0.00000     1.25520  0.0
      5      2      3      8   5     0.00000     0.00000     1.25520  0.0
      6      2      3      4   5     0.00000     0.00000     1.25520  0.0
      6      2      3      7   5     0.00000     0.00000     1.25520  0.0
      6      2      3      8   5     0.00000     0.00000     1.25520  0.0
      2      3      4      9   5     0.00000     0.00000     1.25520  0.0
      2      3      4     10   5     0.00000     0.00000     1.25520  0.0
      2      3      4     12   5     5.25092    -2.58990     2.28446  0.0
      7      3      4      9   5     0.00000     0.00000     1.25520  0.0
      7      3      4     10   5     0.00000     0.00000     1.25520  0.0
      7      3      4     12   5     0.00000     0.00000     1.95811  0.0
      8      3      4      9   5     0.00000     0.00000     1.25520  0.0
      8      3      4     10   5     0.00000     0.00000     1.25520  0.0
      8      3      4     12   5     0.00000     0.00000     1.95811  0.0
      3      4     12     13   5     0.52300    -0.09205     2.34722  0.0
      9      4     12     13   5     0.00000     0.00000     3.10034  0.0
     10      4     12     13   5     0.00000     0.00000     3.10034  0.0
      4     12     13     14   5     0.52300    -0.09205     2.34722  0.0
      4     12     13     16   5     0.00000     0.00000     3.10034  0.0
      4     12     13     17   5     0.00000     0.00000     3.10034  0.0
     12     13     14     15   5     5.25092    -2.58990     2.28446  0.0
     12     13     14     18   5     0.00000     0.00000     1.95811  0.0
     12     13     14     19   5     0.00000     0.00000     1.95811  0.0
     16     13     14     15   5     0.00000     0.00000     1.25520  0.0
     16     13     14     18   5     0.00000     0.00000     1.25520  0.0
     16     13     14     19   5     0.00000     0.00000     1.25520  0.0
     17     13     14     15   5     0.00000     0.00000     1.25520  0.0
     17     13     14     18   5     0.00000     0.00000     1.25520  0.0
     17     13     14     19   5     0.00000     0.00000     1.25520  0.0
     13     14     15     20   5     0.00000     0.00000     1.25520  0.0
     13     14     15     21   5     0.00000     0.00000     1.25520  0.0
     13     14     15     22   5     5.25092    -2.58990     2.28446  0.0
     18     14     15     20   5     0.00000     0.00000     1.25520  0.0
     18     14     15     21   5     0.00000     0.00000     1.25520  0.0
     18     14     15     22   5     0.00000     0.00000     1.95811  0.0
     19     14     15     20   5     0.00000     0.00000     1.25520  0.0
     19     14     15     21   5     0.00000     0.00000     1.25520  0.0
     19     14     15     22   5     0.00000     0.00000     1.95811  0.0
     14     15     22     23   5     0.52300    -0.09205     2.34722  0.0
     20     15     22     23   5     0.00000     0.00000     3.10034  0.0
     21     15     22     23   5     0.00000     0.00000     3.10034  0.0
     15     22     23     24   5     0.52300    -0.09205     2.34722  0.0
     15     22     23     26   5     0.00000     0.00000     3.10034  0.0
     15     22     23     27   5     0.00000     0.00000     3.10034  0.0
     22     23     24     25   5     5.25092    -2.58990     2.28446  0.0
     22     23     24     28   5     0.00000     0.00000     1.95811  0.0
     22     23     24     29   5     0.00000     0.00000     1.95811  0.0
     26     23     24     25   5     0.00000     0.00000     1.25520  0.0
     26     23     24     28   5     0.00000     0.00000     1.25520  0.0
     26     23     24     29   5     0.00000     0.00000     1.25520  0.0
     27     23     24     25   5     0.00000     0.00000     1.25520  0.0
     27     23     24     28   5     0.00000     0.00000     1.25520  0.0
     27     23     24     29   5     0.00000     0.00000     1.25520  0.0
     23     24     25     30   5     0.00000     0.00000     1.25520  0.0
     23     24     25     31   5     0.00000     0.00000     1.25520  0.0
     23     24     25     32   5     5.25092    -2.58990     2.28446  0.0
     28     24     25     30   5     0.00000     0.00000     1.25520  0.0
     28     24     25     31   5     0.00000     0.00000     1.25520  0.0
     28     24     25     32   5     0.00000     0.00000     1.95811  0.0
     29     24     25     30   5     0.00000     0.00000     1.25520  0.0
     29     24     25     31   5     0.00000     0.00000     1.25520  0.0
     29     24     25     32   5     0.00000     0.00000     1.95811  0.0
     24     25     32     33   5     0.52300    -0.09205     2.34722  0.0
     30     25     32     33   5     0.00000     0.00000     3.10034  0.0
     31     25     32     33   5     0.00000     0.00000     3.10034  0.0
     25     32     33     34   5     0.52300    -0.09205     2.34722  0.0
     25     32     33     36   5     0.00000     0.00000     3.10034  0.0
     25     32     33     37   5     0.00000     0.00000     3.10034  0.0
     32     33     34     35   5     5.25092    -2.58990     2.28446  0.0
     32     33     34     38   5     0.00000     0.00000     1.95811  0.0
     32     33     34     39   5     0.00000     0.00000     1.95811  0.0
     36     33     34     35   5     0.00000     0.00000     1.25520  0.0
     36     33     34     38   5     0.00000     0.00000     1.25520  0.0
     36     33     34     39   5     0.00000     0.00000     1.25520  0.0
     37     33     34     35   5     0.00000     0.00000     1.25520  0.0
     37     33     34     38   5     0.00000     0.00000     1.25520  0.0
     37     33     34     39   5     0.00000     0.00000     1.25520  0.0
     33     34     35     40   5     0.00000     0.00000     1.25520  0.0
     33     34     35     41   5     0.00000     0.00000     1.25520  0.0
     33     34     35     42   5     5.25092    -2.58990     2.28446  0.0
     38     34     35     40   5     0.00000     0.00000     1.25520  0.0
     38     34     35     41   5     0.00000     0.00000     1.25520  0.0
     38     34     35     42   5     0.00000     0.00000     1.95811  0.0
     39     34     35     40   5     0.00000     0.00000     1.25520  0.0
     39     34     35     41   5     0.00000     0.00000     1.25520  0.0
     39     34     35     42   5     0.00000     0.00000     1.95811  0.0
     34     35     42     43   5     0.52300    -0.09205     2.34722  0.0
     40     35     42     43   5     0.00000     0.00000     3.10034  0.0
     41     35     42     43   5     0.00000     0.00000     3.10034  0.0
     35     42     43     44   5     0.52300    -0.09205     2.34722  0.0
     35     42     43     46   5     0.00000     0.00000     3.10034  0.0
     35     42     43     47   5     0.00000     0.00000     3.10034  0.0
     42     43     44     45   5     5.25092    -2.58990     2.28446  0.0
     42     43     44     48   5     0.00000     0.00000     1.95811  0.0
     42     43     44     49   5     0.00000     0.00000     1.95811  0.0
     46     43     44     45   5     0.00000     0.00000     1.25520  0.0
     46     43     44     48   5     0.00000     0.00000     1.25520  0.0
     46     43     44     49   5     0.00000     0.00000     1.25520  0.0
     47     43     44     45   5     0.00000     0.00000     1.25520  0.0
     47     43     44     48   5     0.00000     0.00000     1.25520  0.0
     47     43     44     49   5     0.00000     0.00000     1.25520  0.0
     43     44     45     50   5     0.00000     0.00000     1.25520  0.0
     43     44     45     51   5     0.00000     0.00000     1.25520  0.0
     43     44     45     52   5     5.25092    -2.58990     2.28446  0.0
     48     44     45     50   5     0.00000     0.00000     1.25520  0.0
     48     44     45     51   5     0.00000     0.00000     1.25520  0.0
     48     44     45     52   5     0.00000     0.00000     1.95811  0.0
     49     44     45     50   5     0.00000     0.00000     1.25520  0.0
     49     44     45     51   5     0.00000     0.00000     1.25520  0.0
     49     44     45     52   5     0.00000     0.00000     1.95811  0.0
     44     45     52     53   5     0.52300    -0.09205     2.34722  0.0
     50     45     52     53   5     0.00000     0.00000     3.10034  0.0
     51     45     52     53   5     0.00000     0.00000     3.10034  0.0
     45     52     53     54   5     0.52300    -0.09205     2.34722  0.0
     45     52     53     56   5     0.00000     0.00000     3.10034  0.0
     45     52     53     57   5     0.00000     0.00000     3.10034  0.0
     52     53     54     55   5     5.25092    -2.58990     2.28446  0.0
     52     53     54     58   5     0.00000     0.00000     1.95811  0.0
     52     53     54     59   5     0.00000     0.00000     1.95811  0.0
     56     53     54     55   5     0.00000     0.00000     1.25520  0.0
     56     53     54     58   5     0.00000     0.00000     1.25520  0.0
     56     53     54     59   5     0.00000     0.00000     1.25520  0.0
     57     53     54     55   5     0.00000     0.00000     1.25520  0.0
     57     53     54     58   5     0.00000     0.00000     1.25520  0.0
     57     53     54     59   5     0.00000     0.00000     1.25520  0.0
     53     54     55     60   5     0.00000     0.00000     1.25520  0.0
     53     54     55     61   5     0.00000     0.00000     1.25520  0.0
     53     54     55     62   5     5.25092    -2.58990     2.28446  0.0
     58     54     55     60   5     0.00000     0.00000     1.25520  0.0
     58     54     55     61   5     0.00000     0.00000     1.25520  0.0
     58     54     55     62   5     0.00000     0.00000     1.95811  0.0
     59     54     55     60   5     0.00000     0.00000     1.25520  0.0
     59     54     55     61   5     0.00000     0.00000     1.25520  0.0
     59     54     55     62   5     0.00000     0.00000     1.95811  0.0
     54     55     62     63   5     0.52300    -0.09205     2.34722  0.0
     60     55     62     63   5     0.00000     0.00000     3.10034  0.0
     61     55     62     63   5     0.00000     0.00000     3.10034  0.0
     55     62     63     64   5     0.52300    -0.09205     2.34722  0.0
     55     62     63     66   5     0.00000     0.00000     3.10034  0.0
     55     62     63     67   5     0.00000     0.00000     3.10034  0.0
     62     63     64     65   5     5.25092    -2.58990     2.28446  0.0
     62     63     64     68   5     0.00000     0.00000     1.95811  0.0
     62     63     64     69   5     0.00000     0.00000     1.95811  0.0
     66     63     64     65   5     0.00000     0.00000     1.25520  0.0
     66     63     64     68   5     0.00000     0.00000     1.25520  0.0
     66     63     64     69   5     0.00000     0.00000     1.25520  0.0
     67     63     64     65   5     0.00000     0.00000     1.25520  0.0
     67     63     64     68   5     0.00000     0.00000     1.25520  0.0
     67     63     64     69   5     0.00000     0.00000     1.25520  0.0
     63     64     65     70   5     0.00000     0.00000     1.25520  0.0
     63     64     65     71   5     0.00000     0.00000     1.25520  0.0
     63     64     65     72   5     5.25092    -2.58990     2.28446  0.0
     68     64     65     70   5     0.00000     0.00000     1.25520  0.0
     68     64     65     71   5     0.00000     0.00000     1.25520  0.0
     68     64     65     72   5     0.00000     0.00000     1.95811  0.0
     69     64     65     70   5     0.00000     0.00000     1.25520  0.0
     69     64     65     71   5     0.00000     0.00000     1.25520  0.0
     69     64     65     72   5     0.00000     0.00000     1.95811  0.0
     64     65     72     73   5     0.52300    -0.09205     2.34722  0.0
     70     65     72     73   5     0.00000     0.00000     3.10034  0.0
     71     65     72     73   5     0.00000     0.00000     3.10034  0.0
     65     72     73     74   5     0.52300    -0.09205     2.34722  0.0
     65     72     73     76   5     0.00000     0.00000     3.10034  0.0
     65     72     73     77   5     0.00000     0.00000     3.10034  0.0
     72     73     74     75   5     5.25092    -2.58990     2.28446  0.0
     72     73     74     78   5     0.00000     0.00000     1.95811  0.0
     72     73     74     79   5     0.00000     0.00000     1.95811  0.0
     76     73     74     75   5     0.00000     0.00000     1.25520  0.0
     76     73     74     78   5     0.00000     0.00000     1.25520  0.0
     76     73     74     79   5     0.00000     0.00000     1.25520  0.0
     77     73     74     75   5     0.00000     0.00000     1.25520  0.0
     77     73     74     78   5     0.00000     0.00000     1.25520  0.0
     77     73     74     79   5     0.00000     0.00000     1.25520  0.0
     73     74     75     80   5     0.00000     0.00000     1.25520  0.0
     73     74     75     81   5     0.00000     0.00000     1.25520  0.0
     73     74     75     82   5     5.25092    -2.58990     2.28446  0.0
     78     74     75     80   5     0.00000     0.00000     1.25520  0.0
     78     74     75     81   5     0.00000     0.00000     1.25520  0.0
     78     74     75     82   5     0.00000     0.00000     1.95811  0.0
     79     74     75     80   5     0.00000     0.00000     1.25520  0.0
     79     74     75     81   5     0.00000     0.00000     1.25520  0.0
     79     74     75     82   5     0.00000     0.00000     1.95811  0.0
     74     75     82     83   5     0.52300    -0.09205     2.34722  0.0
     80     75     82     83   5     0.00000     0.00000     3.10034  0.0
     81     75     82     83   5     0.00000     0.00000     3.10034  0.0
     75     82     83     84   5     0.52300    -0.09205     2.34722  0.0
     75     82     83     86   5     0.00000     0.00000     3.10034  0.0
     75     82     83     87   5     0.00000     0.00000     3.10034  0.0
     82     83     84     85   5     5.25092    -2.58990     2.28446  0.0
     82     83     84     88   5     0.00000     0.00000     1.95811  0.0
     82     83     84     89   5     0.00000     0.00000     1.95811  0.0
     86     83     84     85   5     0.00000     0.00000     1.25520  0.0
     86     83     84     88   5     0.00000     0.00000     1.25520  0.0
     86     83     84     89   5     0.00000     0.00000     1.25520  0.0
     87     83     84     85   5     0.00000     0.00000     1.25520  0.0
     87     83     84     88   5     0.00000     0.00000     1.25520  0.0
     87     83     84     89   5     0.00000     0.00000     1.25520  0.0
     83     84     85     90   5     0.00000     0.00000     1.25520  0.0
     83     84     85     91   5     0.00000     0.00000     1.25520  0.0
     83     84     85     92   5     5.25092    -2.58990     2.28446  0.0
     88     84     85     90   5     0.00000     0.00000     1.25520  0.0
     88     84     85     91   5     0.00000     0.00000     1.25520  0.0
     88     84     85     92   5     0.00000     0.00000     1.95811  0.0
     89     84     85     90   5     0.00000     0.00000     1.25520  0.0
     89     84     85     91   5     0.00000     0.00000     1.25520  0.0
     89     84     85     92   5     0.00000     0.00000     1.95811  0.0
     84     85     92     93   5     0.52300    -0.09205     2.34722  0.0
     90     85     92     93   5     0.00000     0.00000     3.10034  0.0
     91     85     92     93   5     0.00000     0.00000     3.10034  0.0
     85     92     93     94   5     0.52300    -0.09205     2.34722  0.0
     85     92     93     96   5     0.00000     0.00000     3.10034  0.0
     85     92     93     97   5     0.00000     0.00000     3.10034  0.0
     92     93     94     95   5     5.25092    -2.58990     2.28446  0.0
     92     93     94     98   5     0.00000     0.00000     1.95811  0.0
     92     93     94     99   5     0.00000     0.00000     1.95811  0.0
     96     93     94     95   5     0.00000     0.00000     1.25520  0.0
     96     93     94     98   5     0.00000     0.00000     1.25520  0.0
     96     93     94     99   5     0.00000     0.00000     1.25520  0.0
     97     93     94     95   5     0.00000     0.00000     1.25520  0.0
     97     93     94     98   5     0.00000     0.00000     1.25520  0.0
     97     93     94     99   5     0.00000     0.00000     1.25520  0.0
     93     94     95    100   5     0.00000     0.00000     1.25520  0.0
     93     94     95    101   5     0.00000     0.00000     1.25520  0.0
     93     94     95    102   5     5.25092    -2.58990     2.28446  0.0
     98     94     95    100   5     0.00000     0.00000     1.25520  0.0
     98     94     95    101   5     0.00000     0.00000     1.25520  0.0
     98     94     95    102   5     0.00000     0.00000     1.95811  0.0
     99     94     95    100   5     0.00000     0.00000     1.25520  0.0
     99     94     95    101   5     0.00000     0.00000     1.25520  0.0
     99     94     95    102   5     0.00000     0.00000     1.95811  0.0
     94     95    102    103   5     0.52300    -0.09205     2.34722  0.0
    100     95    102    103   5     0.00000     0.00000     3.10034  0.0
    101     95    102    103   5     0.00000     0.00000     3.10034  0.0
     95    102    103    104   5     0.52300    -0.09205     2.34722  0.0
     95    102    103    106   5     0.00000     0.00000     3.10034  0.0
     95    102    103    107   5     0.00000     0.00000     3.10034  0.0
    102    103    104    105   5     5.25092    -2.58990     2.28446  0.0
    102    103    104    108   5     0.00000     0.00000     1.95811  0.0
    102    103    104    109   5     0.00000     0.00000     1.95811  0.0
    106    103    104    105   5     0.00000     0.00000     1.25520  0.0
    106    103    104    108   5     0.00000     0.00000     1.25520  0.0
    106    103    104    109   5     0.00000     0.00000     1.25520  0.0
    107    103    104    105   5     0.00000     0.00000     1.25520  0.0
    107    103    104    108   5     0.00000     0.00000     1.25520  0.0
    107    103    104    109   5     0.00000     0.00000     1.25520  0.0
    103    104    105    110   5     0.00000     0.00000     1.25520  0.0
    103    104    105    111   5     0.00000     0.00000     1.25520  0.0
    103    104    105    112   5     5.25092    -2.58990     2.28446  0.0
    108    104    105    110   5     0.00000     0.00000     1.25520  0.0
    108    104    105    111   5     0.00000     0.00000     1.25520  0.0
    108    104    105    112   5     0.00000     0.00000     1.95811  0.0
    109    104    105    110   5     0.00000     0.00000     1.25520  0.0
    109    104    105    111   5     0.00000     0.00000     1.25520  0.0
    109    104    105    112   5     0.00000     0.00000     1.95811  0.0
    104    105    112    113   5     0.52300    -0.09205     2.34722  0.0
    110    105    112    113   5     0.00000     0.00000     3.10034  0.0
    111    105    112    113   5     0.00000     0.00000     3.10034  0.0
    105    112    113    114   5     0.52300    -0.09205     2.34722  0.0
    105    112    113    116   5     0.00000     0.00000     3.10034  0.0
    105    112    113    117   5     0.00000     0.00000     3.10034  0.0
    112    113    114    115   5     5.25092    -2.58990     2.28446  0.0
    112    113    114    118   5     0.00000     0.00000     1.95811  0.0
    112    113    114    119   5     0.00000     0.00000     1.95811  0.0
    116    113    114    115   5     0.00000     0.00000     1.25520  0.0
    116    113    114    118   5     0.00000     0.00000     1.25520  0.0
    116    113    114    119   5     0.00000     0.00000     1.25520  0.0
    117    113    114    115   5     0.00000     0.00000     1.25520  0.0
    117    113    114    118   5     0.00000     0.00000     1.25520  0.0
    117    113    114    119   5     0.00000     0.00000     1.25520  0.0
    113    114    115    120   5     0.00000     0.00000     1.25520  0.0
    113    114    115    121   5     0.00000     0.00000     1.25520  0.0
    113    114    115    122   5     5.25092    -2.58990     2.28446  0.0
    118    114    115    120   5     0.00000     0.00000     1.25520  0.0
    118    114    115    121   5     0.00000     0.00000     1.25520  0.0
    118    114    115    122   5     0.00000     0.00000     1.95811  0.0
    119    114    115    120   5     0.00000     0.00000     1.25520  0.0
    119    114    115    121   5     0.00000     0.00000     1.25520  0.0
    119    114    115    122   5     0.00000     0.00000     1.95811  0.0
    114    115    122    123   5     0.52300    -0.09205     2.34722  0.0
    120    115    122    123   5     0.00000     0.00000     3.10034  0.0
    121    115    122    123   5     0.00000     0.00000     3.10034  0.0
    115    122    123    124   5     0.52300    -0.09205     2.34722  0.0
    115    122    123    126   5     0.00000     0.00000     3.10034  0.0
    115    122    123    127   5     0.00000     0.00000     3.10034  0.0
    122    123    124    125   5     5.25092    -2.58990     2.28446  0.0
    122    123    124    128   5     0.00000     0.00000     1.95811  0.0
    122    123    124    129   5     0.00000     0.00000     1.95811  0.0
    126    123    124    125   5     0.00000     0.00000     1.25520  0.0
    126    123    124    128   5     0.00000     0.00000     1.25520  0.0
    126    123    124    129   5     0.00000     0.00000     1.25520  0.0
    127    123    124    125   5     0.00000     0.00000     1.25520  0.0
    127    123    124    128   5     0.00000     0.00000     1.25520  0.0
    127    123    124    129   5     0.00000     0.00000     1.25520  0.0
    123    124    125    130   5     0.00000     0.00000     1.25520  0.0
    123    124    125    131   5     0.00000     0.00000     1.25520  0.0
    123    124    125    132   5     5.25092    -2.58990     2.28446  0.0
    128    124    125    130   5     0.00000     0.00000     1.25520  0.0
    128    124    125    131   5     0.00000     0.00000     1.25520  0.0
    128    124    125    132   5     0.00000     0.00000     1.95811  0.0
    129    124    125    130   5     0.00000     0.00000     1.25520  0.0
    129    124    125    131   5     0.00000     0.00000     1.25520  0.0
    129    124    125    132   5     0.00000     0.00000     1.95811  0.0
    124    125    132    133   5     0.52300    -0.09205     2.34722  0.0
    130    125    132    133   5     0.00000     0.00000     3.10034  0.0
    131    125    132    133   5     0.00000     0.00000     3.10034  0.0
    125    132    133    134   5     0.52300    -0.09205     2.34722  0.0
    125    132    133    136   5     0.00000     0.00000     3.10034  0.0
    125    132    133    137   5     0.00000     0.00000     3.10034  0.0
    132    133    134    135   5     5.25092    -2.58990     2.28446  0.0
    132    133    134    138   5     0.00000     0.00000     1.95811  0.0
    132    133    134    139   5     0.00000     0.00000     1.95811  0.0
    136    133    134    135   5     0.00000     0.00000     1.25520  0.0
    136    133    134    138   5     0.00000     0.00000     1.25520  0.0
    136    133    134    139   5     0.00000     0.00000     1.25520  0.0
    137    133    134    135   5     0.00000     0.00000     1.25520  0.0
    137    133    134    138   5     0.00000     0.00000     1.25520  0.0
    137    133    134    139   5     0.00000     0.00000     1.25520  0.0
    133    134    135    140   5     0.00000     0.00000     1.25520  0.0
    133    134    135    141   5     0.00000     0.00000     1.25520  0.0
    133    134    135    142   5     5.25092    -2.58990     2.28446  0.0
    138    134    135    140   5     0.00000     0.00000     1.25520  0.0
    138    134    135    141   5     0.00000     0.00000     1.25520  0.0
    138    134    135    142   5     0.00000     0.00000     1.95811  0.0
    139    134    135    140   5     0.00000     0.00000     1.25520  0.0
    139    134    135    141   5     0.00000     0.00000     1.25520  0.0
    139    134    135    142   5     0.00000     0.00000     1.95811  0.0
    134    135    142    143   5     0.52300    -0.09205     2.34722  0.0
    140    135    142    143   5     0.00000     0.00000     3.10034  0.0
    141    135    142    143   5     0.00000     0.00000     3.10034  0.0
    135    142    143    144   5     0.52300    -0.09205     2.34722  0.0
    135    142    143    146   5     0.00000     0.00000     3.10034  0.0
    135    142    143    147   5     0.00000     0.00000     3.10034  0.0
    142    143    144    145   5     5.25092    -2.58990     2.28446  0.0
    142    143    144    148   5     0.00000     0.00000     1.95811  0.0
    142    143    144    149   5     0.00000     0.00000     1.95811  0.0
    146    143    144    145   5     0.00000     0.00000     1.25520  0.0
    146    143    144    148   5     0.00000     0.00000     1.25520  0.0
    146    143    144    149   5     0.00000     0.00000     1.25520  0.0
    147    143    144    145   5     0.00000     0.00000     1.25520  0.0
    147    143    144    148   5     0.00000     0.00000     1.25520  0.0
    147    143    144    149   5     0.00000     0.00000     1.25520  0.0
    143    144    145    150   5     0.00000     0.00000     1.25520  0.0
    143    144    145    151   5     0.00000     0.00000     1.25520  0.0
    143    144    145    152   5     5.25092    -2.58990     2.28446  0.0
    148    144    145    150   5     0.00000     0.00000     1.25520  0.0
    148    144    145    151   5     0.00000     0.00000     1.25520  0.0
    148    144    145    152   5     0.00000     0.00000     1.95811  0.0
    149    144    145    150   5     0.00000     0.00000     1.25520  0.0
    149    144    145    151   5     0.00000     0.00000     1.25520  0.0
    149    144    145    152   5     0.00000     0.00000     1.95811  0.0
    144    145    152    153   5     0.52300    -0.09205     2.34722  0.0
    150    145    152    153   5     0.00000     0.00000     3.10034  0.0
    151    145    152    153   5     0.00000     0.00000     3.10034  0.0
    145    152    153    154   5     0.52300    -0.09205     2.34722  0.0
    145    152    153    156   5     0.00000     0.00000     3.10034  0.0
    145    152    153    157   5     0.00000     0.00000     3.10034  0.0
    152    153    154    155   5     5.25092    -2.58990     2.28446  0.0
    152    153    154    158   5     0.00000     0.00000     1.95811  0.0
    152    153    154    159   5     0.00000     0.00000     1.95811  0.0
    156    153    154    155   5     0.00000     0.00000     1.25520  0.0
    156    153    154    158   5     0.00000     0.00000     1.25520  0.0
    156    153    154    159   5     0.00000     0.00000     1.25520  0.0
    157    153    154    155   5     0.00000     0.00000     1.25520  0.0
    157    153    154    158   5     0.00000     0.00000     1.25520  0.0
    157    153    154    159   5     0.00000     0.00000     1.25520  0.0
    153    154    155    160   5     0.00000     0.00000     1.25520  0.0
    153    154    155    161   5     0.00000     0.00000     1.25520  0.0
    153    154    155    162   5     5.25092    -2.58990     2.28446  0.0
    158    154    155    160   5     0.00000     0.00000     1.25520  0.0
    158    154    155    161   5     0.00000     0.00000     1.25520  0.0
    158    154    155    162   5     0.00000     0.00000     1.95811  0.0
    159    154    155    160   5     0.00000     0.00000     1.25520  0.0
    159    154    155    161   5     0.00000     0.00000     1.25520  0.0
    159    154    155    162   5     0.00000     0.00000     1.95811  0.0
    154    155    162    163   5     0.52300    -0.09205     2.34722  0.0
    160    155    162    163   5     0.00000     0.00000     3.10034  0.0
    161    155    162    163   5     0.00000     0.00000     3.10034  0.0
    155    162    163    164   5     0.52300    -0.09205     2.34722  0.0
    155    162    163    166   5     0.00000     0.00000     3.10034  0.0
    155    162    163    167   5     0.00000     0.00000     3.10034  0.0
    162    163    164    165   5     5.25092    -2.58990     2.28446  0.0
    162    163    164    168   5     0.00000     0.00000     1.95811  0.0
    162    163    164    169   5     0.00000     0.00000     1.95811  0.0
    166    163    164    165   5     0.00000     0.00000     1.25520  0.0
    166    163    164    168   5     0.00000     0.00000     1.25520  0.0
    166    163    164    169   5     0.00000     0.00000     1.25520  0.0
    167    163    164    165   5     0.00000     0.00000     1.25520  0.0
    167    163    164    168   5     0.00000     0.00000     1.25520  0.0
    167    163    164    169   5     0.00000     0.00000     1.25520  0.0
    163    164    165    170   5     0.00000     0.00000     1.25520  0.0
    163    164    165    171   5     0.00000     0.00000     1.25520  0.0
    163    164    165    172   5     5.25092    -2.58990     2.28446  0.0
    168    164    165    170   5     0.00000     0.00000     1.25520  0.0
    168    164    165    171   5     0.00000     0.00000     1.25520  0.0
    168    164    165    172   5     0.00000     0.00000     1.95811  0.0
    169    164    165    170   5     0.00000     0.00000     1.25520  0.0
    169    164    165    171   5     0.00000     0.00000     1.25520  0.0
    169    164    165    172   5     0.00000     0.00000     1.95811  0.0
    164    165    172    173   5     0.52300    -0.09205     2.34722  0.0
    170    165    172    173   5     0.00000     0.00000     3.10034  0.0
    171    165    172    173   5     0.00000     0.00000     3.10034  0.0
    165    172    173    174   5     0.52300    -0.09205     2.34722  0.0
    165    172    173    176   5     0.00000     0.00000     3.10034  0.0
    165    172    173    177   5     0.00000     0.00000     3.10034  0.0
    172    173    174    175   5     5.25092    -2.58990     2.28446  0.0
    172    173    174    178   5     0.00000     0.00000     1.95811  0.0
    172    173    174    179   5     0.00000     0.00000     1.95811  0.0
    176    173    174    175   5     0.00000     0.00000     1.25520  0.0
    176    173    174    178   5     0.00000     0.00000     1.25520  0.0
    176    173    174    179   5     0.00000     0.00000     1.25520  0.0
    177    173    174    175   5     0.00000     0.00000     1.25520  0.0
    177    173    174    178   5     0.00000     0.00000     1.25520  0.0
    177    173    174    179   5     0.00000     0.00000     1.25520  0.0
    173    174    175    180   5     0.00000     0.00000     1.25520  0.0
    173    174    175    181   5     0.00000     0.00000     1.25520  0.0
    173    174    175    182   5     5.25092    -2.58990     2.28446  0.0
    178    174    175    180   5     0.00000     0.00000     1.25520  0.0
    178    174    175    181   5     0.00000     0.00000     1.25520  0.0
    178    174    175    182   5     0.00000     0.00000     1.95811  0.0
    179    174    175    180   5     0.00000     0.00000     1.25520  0.0
    179    174    175    181   5     0.00000     0.00000     1.25520  0.0
    179    174    175    182   5     0.00000     0.00000     1.95811  0.0
    174    175    182    183   5     0.52300    -0.09205     2.34722  0.0
    180    175    182    183   5     0.00000     0.00000     3.10034  0.0
    181    175    182    183   5     0.00000     0.00000     3.10034  0.0
    175    182    183    184   5     0.52300    -0.09205     2.34722  0.0
    175    182    183    186   5     0.00000     0.00000     3.10034  0.0
    175    182    183    187   5     0.00000     0.00000     3.10034  0.0
    182    183    184    185   5     5.25092    -2.58990     2.28446  0.0
    182    183    184    188   5     0.00000     0.00000     1.95811  0.0
    182    183    184    189   5     0.00000     0.00000     1.95811  0.0
    186    183    184    185   5     0.00000     0.00000     1.25520  0.0
    186    183    184    188   5     0.00000     0.00000     1.25520  0.0
    186    183    184    189   5     0.00000     0.00000     1.25520  0.0
    187    183    184    185   5     0.00000     0.00000     1.25520  0.0
    187    183    184    188   5     0.00000     0.00000     1.25520  0.0
    187    183    184    189   5     0.00000     0.00000     1.25520  0.0
    183    184    185    190   5     0.00000     0.00000     1.25520  0.0
    183    184    185    191   5     0.00000     0.00000     1.25520  0.0
    183    184    185    192   5     5.25092    -2.58990     2.28446  0.0
    188    184    185    190   5     0.00000     0.00000     1.25520  0.0
    188    184    185    191   5     0.00000     0.00000     1.25520  0.0
    188    184    185    192   5     0.00000     0.00000     1.95811  0.0
    189    184    185    190   5     0.00000     0.00000     1.25520  0.0
    189    184    185    191   5     0.00000     0.00000     1.25520  0.0
    189    184    185    192   5     0.00000     0.00000     1.95811  0.0
    184    185    192    193   5     0.52300    -0.09205     2.34722  0.0
    190    185    192    193   5     0.00000     0.00000     3.10034  0.0
    191    185    192    193   5     0.00000     0.00000     3.10034  0.0
    185    192    193    194   5     0.52300    -0.09205     2.34722  0.0
    185    192    193    196   5     0.00000     0.00000     3.10034  0.0
    185    192    193    197   5     0.00000     0.00000     3.10034  0.0
    192    193    194    195   5     5.25092    -2.58990     2.28446  0.0
    192    193    194    198   5     0.00000     0.00000     1.95811  0.0
    192    193    194    199   5     0.00000     0.00000     1.95811  0.0
    196    193    194    195   5     0.00000     0.00000     1.25520  0.0
    196    193    194    198   5     0.00000     0.00000     1.25520  0.0
    196    193    194    199   5     0.00000     0.00000     1.25520  0.0
    197    193    194    195   5     0.00000     0.00000     1.25520  0.0
    197    193    194    198   5     0.00000     0.00000     1.25520  0.0
    197    193    194    199   5     0.00000     0.00000     1.25520  0.0
    193    194    195    200   5     0.00000     0.00000     1.25520  0.0
    193    194    195    201   5     0.00000     0.00000     1.25520  0.0
    193    194    195    202   5     0.00000     0.00000     1.25520  0.0
    198    194    195    200   5     0.00000     0.00000     1.25520  0.0
    198    194    195    201   5     0.00000     0.00000     1.25520  0.0
    198    194    195    202   5     0.00000     0.00000     1.25520  0.0
    199    194    195    200   5     0.00000     0.00000     1.25520  0.0
    199    194    195    201   5     0.00000     0.00000     1.25520  0.0
    199    194    195    202   5     0.00000     0.00000     1.25520  0.0
