Control file title. For DL_FIELD 4.10
49894
    1MOL     O1    1   1.703   6.191   5.489 -0.0992  0.1202 -0.5646
    1MOL     C2    2   1.591   6.140   5.423  0.5593 -0.3943 -0.2427
    1MOL     C3    3   1.578   5.991   5.462  0.0332 -0.7603 -0.0652
    1MOL     C4    4   1.455   5.911   5.418  0.3958  0.0598  0.2470
    1MOL     H5    5   1.593   6.156   5.315 -0.7101  0.2872 -0.1712
    1MOL     H6    6   1.508   6.196   5.465  3.5880  3.3762  0.9814
    1MOL     H7    7   1.661   5.942   5.410  0.0413 -0.6190 -0.1855
    1MOL     H8    8   1.600   5.972   5.567  0.9118 -0.4640 -0.1948
    1MOL     H9    9   1.467   5.811   5.458 -1.7623 -0.3773 -0.1532
    1MOL    H10   10   1.448   5.905   5.309  1.9884  1.0749  0.0709
    1MOL    H11   11   1.779   6.140   5.465 -0.2212 -0.7314  0.7620
    1MOL    O12   12   1.338   5.971   5.467  0.2388  0.1730 -0.2982
    1MOL    C13   13   1.224   5.886   5.464  0.5182  0.0336  0.7311
    1MOL    C14   14   1.109   5.963   5.523  0.7528  0.7648  0.1324
    1MOL    C15   15   0.976   5.876   5.540 -0.1971  0.0307 -0.4165
    1MOL    H16   16   1.254   5.800   5.525  1.2272 -1.2397 -1.3477
    1MOL    H17   17   1.209   5.840   5.366  0.0486  1.1688  0.2660
    1MOL    H18   18   1.136   6.007   5.618  2.6062 -0.4166  0.1745
    1MOL    H19   19   1.082   6.048   5.461  0.0364  0.8212  0.5123
    1MOL    H20   20   0.996   5.807   5.622  0.3494  1.0610  0.3178
    1MOL    H21   21   0.959   5.808   5.456 -1.2779 -0.3275  0.0836
    1MOL    O22   22   0.865   5.957   5.557 -0.7021  0.3428  0.1138
    1MOL    C23   23   0.746   5.882   5.589  0.2020  0.7426 -0.7849
    1MOL    C24   24   0.631   5.973   5.551 -0.6960  0.0143  0.3444
    1MOL    C25   25   0.598   5.976   5.392  0.2931  0.6546 -0.1040
    1MOL    H26   26   0.753   5.864   5.697  1.6995  1.7645 -0.6915
    1MOL    H27   27   0.753   5.790   5.531 -0.1331  0.5578 -0.5338
    1MOL    H28   28   0.543   5.933   5.602 -0.8722 -1.3261 -1.0011
    1MOL    H29   29   0.642   6.074   5.589  0.2747 -0.0462  0.2248
    1MOL    H30   30   0.565   5.878   5.358 -0.6969  1.1104 -0.5020
    1MOL    H31   31   0.689   6.005   5.338  0.5528  1.6909  0.8676
    1MOL    O32   32   0.499   6.081   5.367 -0.0427 -0.0776 -0.0934
    1MOL    C33   33   0.471   6.095   5.228  0.3382  0.5716 -0.3551
    1MOL    C34   34   0.359   6.198   5.202  0.0910 -0.1448  0.4855
    1MOL    C35   35   0.380   6.335   5.272  0.2805  0.0346  0.3190
    1MOL    H36   36   0.448   6.005   5.172  1.8532 -1.7337  2.6179
    1MOL    H37   37   0.556   6.137   5.175  1.3961  1.3459  1.9098
    1MOL    H38   38   0.346   6.211   5.094 -0.5969 -0.8210  0.4834
    1MOL    H39   39   0.262   6.170   5.243 -0.7339  1.8020 -0.0859
    1MOL    H40   40   0.474   6.381   5.244 -0.1770  1.3572  0.9335
    1MOL    H41   41   0.368   6.305   5.376 -0.4737 -1.2312 -0.1219
    1MOL    O42   42   0.275   6.427   5.236 -0.5289  0.1026  0.2524
    1MOL    C43   43   0.250   6.516   5.342  0.4930  0.0887  0.0902
    1MOL    C44   44   0.147   6.624   5.311  0.2498  0.3561  0.2578
    1MOL    C45   45   0.113   6.712   5.433 -0.2898 -0.2813  0.2310
    1MOL    H46   46   0.340   6.576   5.359  1.0079 -0.0026 -2.1920
    1MOL    H47   47   0.223   6.463   5.434  0.8331  0.3069  0.3169
    1MOL    H48   48   0.174   6.690   5.228  1.7496  0.2341  0.6394
    1MOL    H49   49   0.066   6.563   5.271  0.8243 -0.1805 -0.0979
    1MOL    H50   50   0.097   6.650   5.522 -2.0139  1.5837  1.2849
    1MOL    H51   51   0.019   6.764   5.413 -0.5347  0.7282  3.5760
    1MOL    O52   52   0.223   6.811   5.453  0.2372  0.5449  1.1540
    1MOL    C53   53   0.211   6.894   5.567  0.5491 -0.3831 -0.5712
    1MOL    C54   54   0.319   7.004   5.569  0.5487 -0.2978 -0.6973
    1MOL    C55   55   0.304   7.089   5.692  0.1384  0.2291  1.0250
    1MOL    H56   56   0.227   6.834   5.657 -1.9773  3.0877  2.2944
    1MOL    H57   57   0.111   6.936   5.561 -0.0175 -1.6517 -0.1551
    1MOL    H58   58   0.414   6.953   5.585  0.6901  0.6587  1.7317
    1MOL    H59   59   0.323   7.049   5.469  0.8939 -0.1013 -0.5979
    1MOL    H60   60   0.309   7.028   5.782  2.1378 -0.5273  0.4442
    1MOL    H61   61   0.213   7.149   5.682  1.3783  2.3853  2.1722
    1MOL    O62   62   0.425   7.168   5.710 -0.1147 -0.0262  0.3721
    1MOL    C63   63   0.396   7.278   5.801 -0.5112  0.2754 -0.6345
    1MOL    C64   64   0.516   7.374   5.812 -0.0652  0.5905  0.5719
    1MOL    C65   65   0.495   7.503   5.897  0.0839  0.3240  0.6539
    1MOL    H66   66   0.382   7.233   5.899 -0.5236 -0.6632 -1.0580
    1MOL    H67   67   0.309   7.337   5.773 -0.4857  0.5172 -0.1984
    1MOL    H68   68   0.603   7.323   5.853  1.7165  2.3028 -0.9682
    1MOL    H69   69   0.546   7.417   5.717  0.2077  2.0428  1.2958
    1MOL    H70   70   0.390   7.522   5.877  0.1426 -0.0631 -0.0410
    1MOL    H71   71   0.562   7.585   5.869  0.8069 -0.5436 -0.2074
    1MOL    O72   72   0.529   7.472   6.037  0.1200  0.1840 -0.4241
    1MOL    C73   73   0.433   7.533   6.122  0.1266 -0.2029 -0.0747
    1MOL    C74   74   0.310   7.452   6.153 -0.3982  0.1245  0.1221
    1MOL    C75   75   0.219   7.512   6.260  0.2105  0.5652 -0.3178
    1MOL    H76   76   0.407   7.633   6.087  0.2081 -1.2318 -3.2626
    1MOL    H77   77   0.482   7.545   6.218 -1.4620 -2.7279  1.0779
    1MOL    H78   78   0.246   7.461   6.065 -0.3929 -0.5131  0.0508
    1MOL    H79   79   0.340   7.349   6.175  0.1772  0.1392 -0.5707
    1MOL    H80   80   0.115   7.486   6.240 -0.4782  1.8627  1.4971
    1MOL    H81   81   0.219   7.621   6.255 -2.4650  0.6396  0.4703
    1MOL    O82   82   0.262   7.480   6.388 -0.2092  0.2113  0.5164
    1MOL    C83   83   0.226   7.561   6.492  0.0914 -0.2878  1.0586
    1MOL    C84   84   0.337   7.577   6.597  0.0658  0.5100  0.1457
    1MOL    C85   85   0.475   7.621   6.538 -0.9592 -0.4803  0.1341
    1MOL    H86   86   0.137   7.522   6.540 -1.2377  0.3926 -0.8147
    1MOL    H87   87   0.189   7.656   6.452  0.5841 -1.2426 -1.7348
    1MOL    H88   88   0.311   7.654   6.669 -2.6514  0.7764 -1.0592
    1MOL    H89   89   0.357   7.480   6.643 -0.3487 -0.1303 -1.0065
    1MOL    H90   90   0.512   7.555   6.459 -0.7912  0.2232 -0.3847
    1MOL    H91   91   0.553   7.621   6.614 -1.6605 -0.2518  0.8635
    1MOL    O92   92   0.462   7.753   6.483  0.0365 -0.7256 -0.0058
    1MOL    C93   93   0.573   0.018   6.416 -0.7222  0.2007 -0.0680
    1MOL    C94   94   0.545   0.165   6.386 -0.1074 -0.2285  0.4832
    1MOL    C95   95   0.428   0.195   6.290  0.0817  0.0865  0.1004
    1MOL    H96   96   0.579   7.744   6.326 -1.2646 -0.5662  0.4203
    1MOL    H97   97   0.664   0.001   6.474 -0.2941 -1.4536 -1.1783
    1MOL    H98   98   0.520   0.211   6.481  1.4005  1.2790  0.1623
    1MOL    H99   99   0.635   0.199   6.334 -1.3084 -1.1489 -2.3210
    1MOL   H100  100   0.395   0.297   6.309  0.7605  1.2101 -4.1631
    1MOL   H101  101   0.346   0.124   6.303  2.1560 -2.4347 -0.1544
    1MOL   O102  102   0.476   0.176   6.151  0.2012 -0.4870 -0.7208
    1MOL   C103  103   0.372   0.157   6.054 -0.1869 -0.4895 -0.0741
    1MOL   C104  104   0.420   0.095   5.924  0.6543 -0.1167  0.1708
    1MOL   C105  105   0.309   0.055   5.828  0.1453  0.5823  0.1837
    1MOL   H106  106   0.336   0.256   6.026 -1.3771 -0.7744  0.4421
    1MOL   H107  107   0.295   0.096   6.100  0.1629 -1.2383 -0.4770
    1MOL   H108  108   0.493   0.152   5.867 -1.0387  2.4001  0.4597
    1MOL   H109  109   0.454   7.783   5.950  1.2593 -0.4252 -1.7609
    1MOL   H110  110   0.251   0.145   5.808 -0.9902 -0.3072 -0.5983
    1MOL   H111  111   0.239   7.779   5.882 -0.0828  0.3910 -0.3360
    1MOL   O112  112   0.358   7.771   5.712  0.6354 -0.2580 -0.7386
    1MOL   C113  113   0.397   0.055   5.595 -0.3962  0.2637  0.5323
    1MOL   C114  114   0.431   7.736   5.484  0.2109  0.2689  0.2123
    1MOL   C115  115   0.472   0.022   5.353 -0.3952 -0.3747 -0.2905
    1MOL   H116  116   0.483   0.120   5.602 -2.0087  2.3865  1.0557
    1MOL   H117  117   0.321   0.107   5.537  0.2199  1.0476  0.4214
    1MOL   H118  118   0.498   7.660   5.524 -0.7517 -0.3736  0.6040
    1MOL   H119  119   0.343   7.684   5.446  1.3885 -0.2426 -1.8952
    1MOL   H120  120   0.573   0.062   5.360 -0.7872  0.2111  2.5940
    1MOL   H121  121   0.407   0.109   5.345  0.9474  0.6900  0.1866
    1MOL   O122  122   0.448   7.734   5.239 -0.1505 -0.4972  0.0596
    1MOL   C123  123   0.488   0.004   5.120  0.2355  0.0111 -0.1754
    1MOL   C124  124   0.444   7.686   5.014  0.5066 -0.6383 -0.0176
    1MOL   C125  125   0.532   7.688   4.880 -0.1512 -0.5917 -0.2492
    1MOL   H126  126   0.596   0.016   5.125  0.0584  1.2846  0.5995
    1MOL   H127  127   0.452   0.104   5.098 -1.1944 -0.8251 -1.8238
    1MOL   H128  128   0.445   7.587   5.058  2.7062 -0.7190 -0.1915
    1MOL   H129  129   0.338   7.699   4.991  0.9079  1.0871 -1.0410
    1MOL   H130  130   0.638   7.699   4.906 -0.6087  1.7650  0.7341
    1MOL   H131  131   0.506   7.781   4.829  1.2884 -0.0964 -0.1053
    1MOL   O132  132   0.519   7.573   4.793  0.3286 -0.3247  0.1199
    1MOL   C133  133   0.616   7.563   4.697  0.0035 -0.1824  0.0760
    1MOL   C134  134   0.552   7.511   4.570 -0.1534  0.1317  1.1091
    1MOL   C135  135   0.539   7.361   4.570 -0.7941 -0.2908 -0.5357
    1MOL   H136  136   0.698   7.502   4.735 -0.5062 -0.3585  0.9057
    1MOL   H137  137   0.646   7.666   4.673 -2.8823  0.1244 -2.5162
    1MOL   H138  138   0.449   7.544   4.569 -0.3372 -0.4288  1.0479
    1MOL   H139  139   0.587   7.557   4.478 -1.9239  1.5191  1.1236
    1MOL   H140  140   0.474   7.333   4.652  0.5267  1.8758  1.3018
    1MOL   H141  141   0.636   7.313   4.583 -0.3909  0.0583 -2.0259
    1MOL   O142  142   0.501   7.309   4.445 -0.1033 -0.1783 -0.5488
    1MOL   C143  143   0.466   7.169   4.449  0.2349 -0.6346  0.0225
    1MOL   C144  144   0.399   7.132   4.312 -0.4246 -0.1763  0.2705
    1MOL   C145  145   0.302   7.235   4.261 -0.2815  0.1750 -0.1399
    1MOL   H146  146   0.398   7.152   4.533 -0.6078  0.8554 -0.3433
    1MOL   H147  147   0.556   7.112   4.474  0.0952 -0.4558  0.9753
    1MOL   H148  148   0.471   7.123   4.231  0.5934 -2.0849  1.3459
    1MOL   H149  149   0.353   7.034   4.319  0.4550 -0.5770  0.4283
    1MOL   H150  150   0.337   7.334   4.290 -0.6529 -0.3639  2.2114
    1MOL   H151  151   0.208   7.228   4.315  0.1519  1.1329  0.7460
    1MOL   O152  152   0.270   7.231   4.123  0.4919  0.6018  0.0709
    1MOL   C153  153   0.165   7.317   4.079  0.1043 -0.4943 -0.1531
    1MOL   C154  154   0.175   7.327   3.929 -0.0321 -0.3677  0.4143
    1MOL   C155  155   0.097   7.454   3.880  0.6231  0.5176  0.2418
    1MOL   H156  156   0.160   7.410   4.136 -0.3875 -0.9511  0.5599
    1MOL   H157  157   0.072   7.265   4.102 -0.6931  0.9466 -0.0340
    1MOL   H158  158   0.281   7.339   3.904  0.1898 -0.6326  1.1963
    1MOL   H159  159   0.133   7.234   3.892 -2.4105  0.1718  1.6293
    1MOL   H160  160   0.146   7.534   3.935  0.2693  0.2370  0.9715
    1MOL   H161  161   7.780   7.449   3.910  0.1918  0.2279 -1.2613
    1MOL   O162  162   0.119   7.463   3.735 -0.5411  0.2551  0.7315
    1MOL   C163  163   0.037   7.553   3.671  0.3668  0.3171  0.4607
    1MOL   C164  164   0.055   7.560   3.517  0.5235 -0.7343 -0.0713
    1MOL   C165  165   7.743   7.643   3.439  0.2603  0.1027  0.2315
    1MOL   H166  166   0.049   7.653   3.714 -0.3915  0.4687  0.3334
    1MOL   H167  167   7.724   7.512   3.677  0.8516 -0.8765  0.5562
    1MOL   H168  168   0.152   7.609   3.505  0.4338 -0.8765 -1.4856
    1MOL   H169  169   0.064   7.459   3.477  0.8685 -0.6515 -0.2070
    1MOL   H170  170   7.665   7.570   3.418 -0.7822  1.6581 -1.4941
    1MOL   H171  171   0.008   7.684   3.352 -0.8073  2.8419  0.8151
    1MOL   O172  172   7.712   7.755   3.522  0.2189 -0.0837  0.5052
    1MOL   C173  173   7.636   0.069   3.464  0.0986 -0.8899  0.7247
    1MOL   C174  174   7.593   0.158   3.581  0.0372 -0.7778 -0.2562
    1MOL   C175  175   7.499   0.089   3.681 -0.0350 -0.0512 -0.1861
    1MOL   H176  176   7.551   0.031   3.408 -0.9689  1.5030  0.6305
    1MOL   H177  177   7.688   0.131   3.392  0.7005  0.8158  2.5803
    1MOL   H178  178   7.673   0.204   3.639  0.1158  0.7809 -1.5565
    1MOL   H179  179   7.530   0.231   3.530 -0.4137 -0.4651  0.7395
    1MOL   H180  180   7.565   0.031   3.746  0.7064 -0.1511 -1.0198
    1MOL   H181  181   7.428   0.035   3.620 -1.1039  0.0896  0.9046
    1MOL   O182  182   7.442   0.191   3.758  0.0637  0.3414 -0.0479
    1MOL   C183  183   7.359   0.133   3.858 -0.3986  0.5306 -0.2556
    1MOL   C184  184   7.272   0.249   3.918  0.3535  0.4001  0.5205
    1MOL   C185  185   7.219   0.219   4.061 -0.0679 -0.3833  0.1672
    1MOL   H186  186   7.408   0.073   3.935 -0.4646 -0.2823 -0.8410
    1MOL   H187  187   7.299   0.055   3.812  1.2862 -2.0878  1.7992
    1MOL   H188  188   7.327   0.343   3.915 -0.2743  0.7494 -0.5942
    1MOL   H189  189   7.191   0.253   3.845 -0.6170  0.4643  1.5859
    1MOL   H190  190   7.293   0.222   4.140  2.7873  1.1551 -2.4631
    1MOL   H191  191   7.194   0.113   4.063  0.3225 -0.5422 -1.7929
    1MOL   O192  192   7.116   0.307   4.098  0.2140 -0.2075 -0.0215
    1MOL   C193  193   7.154   0.440   4.117 -0.0786 -0.3447 -0.1854
    1MOL   C194  194   7.094   0.500   4.245 -0.5351  0.2715 -0.5885
    1MOL   C195  195   7.173   0.450   4.376  0.0926  0.9073 -0.5143
    1MOL   H196  196   7.108   0.488   4.031 -1.6840  1.0423  1.3920
    1MOL   H197  197   7.262   0.456   4.119  0.6154 -4.5089 -1.3794
    1MOL   H198  198   7.098   0.609   4.234 -2.2861  0.5544  1.2041
    1MOL   H199  199   6.987   0.478   4.249 -0.6221 -0.1293 -3.6351
    1MOL   H200  200   7.279   0.476   4.371  0.3637 -0.3641 -1.6009
    1MOL   H201  201   7.170   0.342   4.388  0.4922  1.1176  1.6846
    1MOL   H202  202   7.138   0.499   4.467  3.0783  2.3939 -0.0824
    2MOL     O1  203   6.155   3.380   7.488 -0.2025 -0.2338 -0.6704
    2MOL     C2  204   6.059   3.295   7.430 -0.5979  0.1668 -1.1193
    2MOL     C3  205   6.111   3.143   7.422  0.4906 -0.1278 -0.0485
    2MOL     C4  206   6.036   3.044   7.335  0.7588  0.7390  0.3720
    2MOL     H5  207   6.019   3.336   7.338 -1.0302  2.9317  0.2244
    2MOL     H6  208   5.970   3.295   7.493  0.5095 -0.1322  0.4926
    2MOL     H7  209   6.212   3.145   7.381 -0.3857 -1.4192 -2.3523
    2MOL     H8  210   6.119   3.091   7.518 -0.0345 -0.9560 -0.4466
    2MOL     H9  211   5.942   3.024   7.385  1.6379  1.5624  2.4364
    2MOL    H10  212   6.087   2.949   7.349 -1.4376 -0.2516  1.9005
    2MOL    H11  213   6.109   3.457   7.517 -0.7260 -1.3894  1.7688
    2MOL    O12  214   6.020   3.089   7.200 -0.1856 -0.2051 -0.4605
    2MOL    C13  215   5.941   2.999   7.123 -0.0605 -0.4259  0.4092
    2MOL    C14  216   5.914   3.058   6.979  0.0115 -0.5834 -0.1121
    2MOL    C15  217   5.826   3.185   6.976 -0.1863  0.1688 -0.0630
    2MOL    H16  218   5.848   2.984   7.178 -0.3824 -1.4319 -0.3896
    2MOL    H17  219   5.995   2.908   7.101  1.0818  0.9257 -2.7011
    2MOL    H18  220   6.014   3.077   6.938 -0.7800 -1.2527 -2.3973
    2MOL    H19  221   5.870   2.979   6.919 -0.4103 -1.2912  1.1146
    2MOL    H20  222   5.864   3.240   7.062  0.8658  1.2896 -1.2174
    2MOL    H21  223   5.724   3.153   6.996  0.0830 -0.4673  0.3163
    2MOL    O22  224   5.834   3.259   6.853 -0.1173 -0.0139  0.4762
    2MOL    C23  225   5.750   3.370   6.857 -0.0217  0.3560  0.4175
    2MOL    C24  226   5.833   3.502   6.863  0.7875 -0.3217 -0.2139
    2MOL    C25  227   5.934   3.503   6.738  0.4375  0.9899  0.1669
    2MOL    H26  228   5.665   3.355   6.924  0.1821 -0.1818  0.5533
    2MOL    H27  229   5.704   3.371   6.759  1.0869 -3.2123 -0.1838
    2MOL    H28  230   5.765   3.586   6.875 -0.0680 -0.9503 -0.6591
    2MOL    H29  231   5.905   3.495   6.945  0.3237 -2.1781  0.0645
    2MOL    H30  232   5.889   3.499   6.639  0.0227 -1.0499  0.4170
    2MOL    H31  233   5.976   3.403   6.734 -2.0848 -0.1218  0.9428
    2MOL    O32  234   6.033   3.603   6.738 -0.4859 -0.1578  0.4137
    2MOL    C33  235   6.118   3.595   6.623 -0.1656 -0.1453  0.0474
    2MOL    C34  236   6.226   3.703   6.631  0.3357  0.2741  0.4039
    2MOL    C35  237   6.310   3.706   6.510 -0.2260 -0.0394  0.2782
    2MOL    H36  238   6.067   3.609   6.527  2.7962  3.0416 -1.1504
    2MOL    H37  239   6.171   3.500   6.620  0.5380  0.2083  1.3275
    2MOL    H38  240   6.173   3.795   6.657  0.3071 -0.0018  1.3343
    2MOL    H39  241   6.295   3.697   6.715 -0.3347  0.7653  1.0064
    2MOL    H40  242   6.348   3.607   6.487 -1.2262 -0.4513  0.3756
    2MOL    H41  243   6.397   3.771   6.519  0.3339 -0.7792  0.1864
    2MOL    O42  244   6.230   3.747   6.398 -0.1406  0.6310  0.4992
    2MOL    C43  245   6.315   3.759   6.285 -0.8919  0.1858 -0.3934
    2MOL    C44  246   6.219   3.768   6.166 -0.5283  0.5886 -0.5089
    2MOL    C45  247   6.163   3.628   6.116  0.1127  0.1154 -0.2134
    2MOL    H46  248   6.383   3.674   6.275 -0.4023  0.6179 -0.7797
    2MOL    H47  249   6.385   3.842   6.288  0.6552 -1.0523 -1.4393
    2MOL    H48  250   6.152   3.852   6.182 -1.2858  0.1332 -1.1886
    2MOL    H49  251   6.282   3.816   6.092  0.2019  1.5927  0.7603
    2MOL    H50  252   6.106   3.570   6.187  0.3503 -0.8974 -0.8373
    2MOL    H51  253   6.239   3.555   6.089 -1.0305 -0.5929 -1.6118
    2MOL    O52  254   6.068   3.642   6.007  0.4716 -0.5241  0.3006
    2MOL    C53  255   5.981   3.544   5.983  0.0823 -0.1720  0.3699
    2MOL    C54  256   5.885   3.576   5.866 -0.5060 -0.6410  0.5759
    2MOL    C55  257   5.758   3.479   5.867 -0.7806 -0.3515 -0.1086
    2MOL    H56  258   5.928   3.523   6.076 -0.0451 -0.0875  0.3169
    2MOL    H57  259   6.029   3.449   5.958 -0.6129 -1.4749  3.7653
    2MOL    H58  260   5.854   3.679   5.881  0.2556 -0.0154 -1.9034
    2MOL    H59  261   5.939   3.566   5.772  1.1582  1.0469  1.3218
    2MOL    H60  262   5.694   3.492   5.955  1.3816 -0.8129  1.5890
    2MOL    H61  263   5.794   3.377   5.883 -0.5367 -0.2276  0.1290
    2MOL    O62  264   5.677   3.496   5.753  0.1293 -0.5254 -0.5628
    2MOL    C63  265   5.717   3.404   5.651 -0.0760 -0.1139  0.3477
    2MOL    C64  266   5.599   3.388   5.562  0.3956 -0.3090  0.1086
    2MOL    C65  267   5.629   3.299   5.452 -0.1028  0.6874  0.2562
    2MOL    H66  268   5.737   3.303   5.687 -0.2511 -1.3210 -2.8065
    2MOL    H67  269   5.796   3.454   5.596 -0.1301  0.2535  0.6031
    2MOL    H68  270   5.526   3.352   5.634 -1.0087 -0.8272 -1.5552
    2MOL    H69  271   5.549   3.479   5.529 -0.0455 -0.5601  0.0756
    2MOL    H70  272   5.641   3.200   5.496 -0.8770 -0.3670 -1.8568
    2MOL    H71  273   5.722   3.316   5.398 -0.5412 -0.0168 -0.7483
    2MOL    O72  274   5.522   3.287   5.368  0.0366 -0.5028  0.6876
    2MOL    C73  275   5.540   3.191   5.271  0.7631  0.1647  0.3063
    2MOL    C74  276   5.433   3.207   5.165  0.4764 -0.0651  0.0033
    2MOL    C75  277   5.413   3.077   5.074 -0.0418  0.5329  0.1203
    2MOL    H76  278   5.526   3.095   5.322  0.9925 -0.9621 -1.7174
    2MOL    H77  279   5.635   3.194   5.219  0.9876  1.0162  0.7610
    2MOL    H78  280   5.338   3.230   5.214  0.3177 -1.6153  0.4190
    2MOL    H79  281   5.439   3.298   5.104 -1.2008 -0.7628 -1.2526
    2MOL    H80  282   5.352   3.006   5.130 -2.5114  2.8532  0.4406
    2MOL    H81  283   5.511   3.032   5.060  0.9899  2.7260  0.1200
    2MOL    O82  284   5.340   3.105   4.954  0.7574  0.3405  0.3476
    2MOL    C83  285   5.198   3.132   4.978 -0.1930 -0.1060 -0.2390
    2MOL    C84  286   5.134   3.248   4.902  0.3816  0.6883  0.4697
    2MOL    C85  287   5.032   3.222   4.783  0.2718  0.4788 -0.3291
    2MOL    H86  288   5.182   3.176   5.076  1.0147  0.5194 -0.3193
    2MOL    H87  289   5.136   3.042   4.976  1.3086 -1.1968  1.5431
    2MOL    H88  290   5.089   3.315   4.975  1.0353  0.6558  0.9013
    2MOL    H89  291   5.220   3.298   4.858 -0.0011  0.5089 -0.5035
    2MOL    H90  292   5.075   3.139   4.726  2.7842  0.3123  1.6898
    2MOL    H91  293   5.024   3.309   4.718 -0.7287 -0.9438 -2.1593
    2MOL    O92  294   4.908   3.184   4.852  0.0410  0.0878 -0.3711
    2MOL    C93  295   4.810   3.167   4.756  0.3339  0.2503 -0.1104
    2MOL    C94  296   4.684   3.098   4.796 -0.2165 -0.4195 -0.4769
    2MOL    C95  297   4.593   3.066   4.671 -0.2928  0.3233 -0.0395
    2MOL    H96  298   4.851   3.110   4.673 -0.2357  2.8690 -2.2657
    2MOL    H97  299   4.788   3.264   4.712 -1.2347  0.4576  1.0890
    2MOL    H98  300   4.709   3.004   4.844 -0.5397 -0.2526  0.0305
    2MOL    H99  301   4.621   3.155   4.865  0.0576 -0.3713 -0.2639
    2MOL   H100  302   4.511   2.999   4.699  0.7992 -1.8779 -1.9103
    2MOL   H101  303   4.653   3.011   4.598 -0.1431  1.1558 -0.5491
    2MOL   O102  304   4.539   3.176   4.607  0.6375 -0.0233  0.1007
    2MOL   C103  305   4.445   3.142   4.504  0.3822 -0.3619  0.5180
    2MOL   C104  306   4.380   3.268   4.451 -0.0307 -0.7338  0.4272
    2MOL   C105  307   4.276   3.237   4.338  0.0231  0.2941  0.5511
    2MOL   H106  308   4.372   3.077   4.551 -2.1647  0.3176 -2.3735
    2MOL   H107  309   4.505   3.090   4.429  1.1761  0.5782  0.4916
    2MOL   H108  310   4.325   3.317   4.531 -0.9766  1.7161 -1.6526
    2MOL   H109  311   4.453   3.343   4.419 -1.5254  0.5152 -0.1153
    2MOL   H110  312   4.233   3.136   4.340 -2.8192  1.4562  0.2018
    2MOL   H111  313   4.333   3.247   4.246 -0.5381  2.9543  0.4509
    2MOL   O112  314   4.172   3.329   4.328 -0.0797 -0.1006  0.3364
    2MOL   C113  315   4.085   3.310   4.220 -0.0061 -0.1683  0.4569
    2MOL   C114  316   3.995   3.434   4.222 -0.2592 -0.5178 -0.0025
    2MOL   C115  317   3.884   3.437   4.118  0.0926 -0.3575 -0.0289
    2MOL   H116  318   4.037   3.212   4.224  1.5080 -0.9294  0.4679
    2MOL   H117  319   4.129   3.310   4.120 -1.2342 -0.0705 -0.0861
    2MOL   H118  320   3.948   3.447   4.320  1.6265  3.4136  0.5164
    2MOL   H119  321   4.052   3.527   4.216  0.4738 -1.0037 -0.6430
    2MOL   H120  322   3.811   3.515   4.137  2.0419  1.4355  0.2071
    2MOL   H121  323   3.839   3.338   4.120  0.6502 -0.6223  3.1402
    2MOL   O122  324   3.944   3.440   3.994 -0.2353 -0.1019  0.1448
    2MOL   C123  325   3.840   3.449   3.896 -0.2211 -0.2515 -0.1332
    2MOL   C124  326   3.899   3.414   3.764  0.5404  0.2309 -0.0277
    2MOL   C125  327   3.795   3.407   3.653  0.7731 -0.2812  0.0819
    2MOL   H126  328   3.795   3.549   3.890  2.8152  1.1586 -0.2080
    2MOL   H127  329   3.762   3.376   3.918 -0.6007  0.1374 -0.1765
    2MOL   H128  330   3.972   3.488   3.731  1.6001  0.3430  2.4722
    2MOL   H129  331   3.947   3.316   3.773 -1.2355 -0.6252  0.3777
    2MOL   H130  332   3.740   3.498   3.629  0.9986 -0.4797 -1.2173
    2MOL   H131  333   3.725   3.325   3.668  1.4135 -0.8841 -0.2041
    2MOL   O132  334   3.873   3.378   3.543 -0.1518  0.1483  0.2828
    2MOL   C133  335   3.801   3.357   3.422  0.8648  0.1747  0.4001
    2MOL   C134  336   3.905   3.318   3.323 -0.1511 -0.3405 -0.0719
    2MOL   C135  337   3.982   3.430   3.241  0.1140 -0.3152 -0.0068
    2MOL   H136  338   3.740   3.442   3.393 -1.9181 -2.0537 -0.5745
    2MOL   H137  339   3.727   3.282   3.450 -1.1343  1.7461 -0.5495
    2MOL   H138  340   3.976   3.259   3.380  1.8806  1.6867 -0.4028
    2MOL   H139  341   3.868   3.247   3.249  0.7238 -2.1388  1.1889
    2MOL   H140  342   4.019   3.502   3.314 -2.1890 -0.9000  1.8024
    2MOL   H141  343   3.909   3.486   3.183  1.8962  0.8091 -1.2424
    2MOL   O142  344   4.093   3.376   3.169  0.2215 -0.1193  0.0564
    2MOL   C143  345   4.135   3.435   3.049  0.2650 -0.3554 -0.4923
    2MOL   C144  346   4.263   3.361   2.995 -0.2840 -0.6463  0.6496
    2MOL   C145  347   4.306   3.396   2.855  0.3114 -0.9915  0.2024
    2MOL   H146  348   4.164   3.538   3.072 -0.9886 -0.2852  0.8418
    2MOL   H147  349   4.049   3.440   2.982 -1.6119 -0.7953  1.8499
    2MOL   H148  350   4.349   3.376   3.061  0.8299  1.1594 -1.1610
    2MOL   H149  351   4.251   3.253   2.996  2.3654 -1.0184 -1.9690
    2MOL   H150  352   4.229   3.370   2.782  0.5729  0.4738 -0.6170
    2MOL   H151  353   4.385   3.322   2.843  0.9707 -0.4460  1.0784
    2MOL   O152  354   4.340   3.536   2.849  0.0170 -0.1764  0.2170
    2MOL   C153  355   4.360   3.580   2.717  0.0120 -0.3524  0.2268
    2MOL   C154  356   4.390   3.732   2.728 -0.2013  0.2184  0.0955
    2MOL   C155  357   4.459   3.783   2.595  0.2415 -0.3892  0.0447
    2MOL   H156  358   4.279   3.570   2.645  0.5322  1.8810 -0.7253
    2MOL   H157  359   4.447   3.521   2.686 -0.9142 -2.1006  0.8801
    2MOL   H158  360   4.296   3.781   2.753 -0.2185 -0.2401  0.9631
    2MOL   H159  361   4.458   3.744   2.812 -0.5329 -0.8106  0.5296
    2MOL   H160  362   4.456   3.892   2.600 -0.9825 -0.4325  0.5417
    2MOL   H161  363   4.404   3.742   2.510  1.6013  1.6957 -1.8941
    2MOL   O162  364   4.583   3.724   2.599 -0.4394 -0.7670 -0.1932
    2MOL   C163  365   4.685   3.774   2.516 -0.6352 -0.4751 -0.2236
    2MOL   C164  366   4.823   3.716   2.556 -0.1394  0.1175  0.1198
    2MOL   C165  367   4.867   3.753   2.697 -0.1497 -0.0274 -0.1577
    2MOL   H166  368   4.682   3.882   2.506  0.0034 -0.1008  3.1023
    2MOL   H167  369   4.659   3.726   2.421 -4.1077 -1.4287  1.1025
    2MOL   H168  370   4.815   3.608   2.562  1.4589  0.0081  0.3589
    2MOL   H169  371   4.902   3.741   2.485 -0.7403  0.9176 -0.2783
    2MOL   H170  372   4.809   3.684   2.757  2.9787  0.1047  3.1684
    2MOL   H171  373   4.831   3.850   2.729  0.5059 -0.8771  3.3075
    2MOL   O172  374   5.005   3.736   2.734  0.1483 -0.4929 -0.3737
    2MOL   C173  375   5.030   3.757   2.866  0.0981  0.7762  0.1907
    2MOL   C174  376   5.171   3.711   2.899 -0.6356 -0.6525  0.2321
    2MOL   C175  377   5.187   3.556   2.910  0.0889 -1.0312 -0.0151
    2MOL   H176  378   4.968   3.702   2.938  0.2222 -0.8653 -0.9313
    2MOL   H177  379   5.019   3.865   2.875 -1.7013  0.5292  1.3025
    2MOL   H178  380   5.240   3.758   2.829  0.4613 -1.7992  0.5419
    2MOL   H179  381   5.192   3.758   2.995 -1.1107  0.2973 -0.1177
    2MOL   H180  382   5.172   3.526   2.806 -0.9632  0.1927 -0.2218
    2MOL   H181  383   5.119   3.503   2.977 -2.2249  1.1780 -0.5690
    2MOL   O182  384   5.306   3.517   2.973 -0.2536  0.3437  0.0669
    2MOL   C183  385   5.344   3.373   2.956 -0.1271  0.0289  0.1263
    2MOL   C184  386   5.491   3.359   2.981 -0.2224 -0.2761  0.5879
    2MOL   C185  387   5.540   3.219   2.944 -0.7576 -0.2576  0.0610
    2MOL   H186  388   5.333   3.350   2.850  1.1945  0.7433 -0.1807
    2MOL   H187  389   5.281   3.302   3.009  1.0360  0.6038  2.3683
    2MOL   H188  390   5.557   3.430   2.931 -2.3041  0.0940 -1.6722
    2MOL   H189  391   5.506   3.377   3.088 -0.3678 -0.9299  0.7197
    2MOL   H190  392   5.648   3.207   2.956 -0.9567 -0.9201  1.2347
    2MOL   H191  393   5.520   3.202   2.838  0.3777 -0.2498 -0.1701
    2MOL   O192  394   5.466   3.130   3.027 -0.0868 -0.1263  0.1313
    2MOL   C193  395   5.506   2.996   3.018 -0.3103  0.8690  0.5320
    2MOL   C194  396   5.437   2.918   3.130  0.2711 -0.4378  0.5004
    2MOL   C195  397   5.486   2.963   3.273  0.3409 -0.2476 -0.0736
    2MOL   H196  398   5.613   2.983   3.032 -0.0416  0.0544 -1.8923
    2MOL   H197  399   5.470   2.954   2.924  1.6868  1.0327 -0.3444
    2MOL   H198  400   5.331   2.939   3.117  0.4227 -0.5030 -0.9934
    2MOL   H199  401   5.435   2.811   3.112  2.3482 -0.2435 -1.1315
    2MOL   H200  402   5.440   3.060   3.294 -1.6164 -0.3919 -3.4617
    2MOL   H201  403   5.595   2.958   3.268  0.3391  0.0168 -0.4490
    2MOL   H202  404   5.449   2.894   3.349  0.5412 -1.0850 -0.7325
    3MOL     O1  405   4.868   6.801   2.726 -0.0156 -0.1821 -0.2652
    3MOL     C2  406   4.890   6.664   2.698  0.0678 -0.0299  0.3133
    3MOL     C3  407   5.038   6.637   2.656  0.5011 -0.4089  0.0292
    3MOL     C4  408   5.075   6.490   2.637  0.1827 -1.1445  0.4310
    3MOL     H5  409   4.817   6.647   2.619 -1.1360  1.6688  1.0072
    3MOL     H6  410   4.863   6.613   2.791  0.3809  0.9119  0.9346
    3MOL     H7  411   5.049   6.685   2.559 -0.8408  0.2907  0.2018
    3MOL     H8  412   5.106   6.682   2.728  1.6096 -1.4104 -0.3864
    3MOL     H9  413   5.009   6.436   2.570 -2.0223  0.0292  1.6010
    3MOL    H10  414   5.062   6.445   2.736  0.5030  0.7965  1.3854
    3MOL    H11  415   4.914   6.832   2.802  0.1747 -0.8988 -0.0863
    3MOL    O12  416   5.216   6.487   2.604  0.4024 -0.1802 -0.4116
    3MOL    C13  417   5.262   6.352   2.610 -0.4599  0.1383 -0.0542
    3MOL    C14  418   5.415   6.359   2.571 -0.0696 -0.3266  0.1535
    3MOL    C15  419   5.479   6.220   2.555  0.6312 -0.4247 -0.2133
    3MOL    H16  420   5.204   6.285   2.547 -0.4498  0.7930 -0.7575
    3MOL    H17  421   5.241   6.315   2.711 -0.7132 -2.1835 -0.9232
    3MOL    H18  422   5.427   6.414   2.477 -0.3573 -0.1811  0.2020
    3MOL    H19  423   5.460   6.417   2.652  3.5767  0.0286 -2.0147
    3MOL    H20  424   5.440   6.158   2.474 -1.4537  1.5253 -0.7456
    3MOL    H21  425   5.472   6.161   2.646  1.3043 -0.0843  0.0686
    3MOL    O22  426   5.619   6.236   2.530 -0.2917  0.1787  0.2959
    3MOL    C23  427   5.689   6.218   2.656  0.4343  0.5205  0.1192
    3MOL    C24  428   5.833   6.255   2.614 -0.2620  0.0010  0.1797
    3MOL    C25  429   5.942   6.239   2.717  0.1257  0.6761  0.0343
    3MOL    H26  430   5.702   6.112   2.678 -1.6154  0.2549  0.1873
    3MOL    H27  431   5.647   6.271   2.741  0.1809 -3.1834  2.4344
    3MOL    H28  432   5.860   6.214   2.517 -0.5615 -0.6836  0.3855
    3MOL    H29  433   5.821   6.362   2.594 -0.2885 -0.0669 -0.1717
    3MOL    H30  434   5.925   6.295   2.808  0.0307  0.2265  0.2929
    3MOL    H31  435   6.027   6.286   2.666 -0.8992  2.2438 -0.2664
    3MOL    O32  436   5.971   6.100   2.736  0.8642 -0.1345 -0.0132
    3MOL    C33  437   6.053   6.058   2.851 -0.1456 -0.3872 -0.0345
    3MOL    C34  438   6.031   5.918   2.884  0.5934 -0.2046  0.2430
    3MOL    C35  439   6.092   5.874   3.012 -0.5028  0.4296 -0.1184
    3MOL    H36  440   6.015   6.112   2.938  0.0416  0.8137 -0.6894
    3MOL    H37  441   6.158   6.084   2.834 -0.6076  1.0855 -0.7699
    3MOL    H38  442   5.925   5.900   2.900  0.8785 -0.2718  2.2114
    3MOL    H39  443   6.062   5.851   2.805  1.8743  0.9228 -0.2369
    3MOL    H40  444   6.049   5.936   3.090 -0.0153 -1.9420  2.0929
    3MOL    H41  445   6.201   5.875   3.017 -0.4730  1.1858 -0.7999
    3MOL    O42  446   6.041   5.737   3.026  0.0251  0.2276  0.2587
    3MOL    C43  447   6.119   5.656   3.108  0.0005  0.2506  0.1153
    3MOL    C44  448   6.060   5.516   3.080 -0.0466  0.9300 -0.3486
    3MOL    C45  449   6.148   5.412   3.150 -0.1409  0.6362 -0.1938
    3MOL    H46  450   6.113   5.699   3.208  2.9945  0.7260  0.1108
    3MOL    H47  451   6.226   5.652   3.093 -0.2846 -0.3402 -1.9313
    3MOL    H48  452   5.960   5.507   3.122 -0.2676  0.3667 -0.9703
    3MOL    H49  453   6.049   5.495   2.973 -0.2169  1.5432 -0.4498
    3MOL    H50  454   6.163   5.437   3.255 -1.8248 -1.6176  0.6222
    3MOL    H51  455   6.252   5.411   3.116  0.9002  3.0411  2.7217
    3MOL    O52  456   6.096   5.279   3.138 -0.4615 -0.1290 -0.0865
    3MOL    C53  457   6.163   5.178   3.217  0.4691  0.5194 -0.5317
    3MOL    C54  458   6.107   5.033   3.197  0.9097 -0.0411  0.1174
    3MOL    C55  459   5.958   5.022   3.248  0.9070  0.1454  0.0498
    3MOL    H56  460   6.170   5.213   3.319 -1.5750 -0.8515  0.1184
    3MOL    H57  461   6.270   5.171   3.198  0.6406  0.7970  0.3586
    3MOL    H58  462   6.108   5.002   3.092 -0.9987 -0.8800  0.3326
    3MOL    H59  463   6.178   4.961   3.238 -0.4339 -0.9578  0.8651
    3MOL    H60  464   5.911   4.928   3.219  3.0527 -0.6733 -0.8740
    3MOL    H61  465   5.902   5.107   3.209 -2.5752 -1.7374  0.7681
    3MOL    O62  466   5.970   5.041   3.388  0.0216 -0.5413 -0.0215
    3MOL    C63  467   5.842   5.003   3.454 -0.5234 -0.8236  0.7715
    3MOL    C64  468   5.850   5.007   3.609 -0.0459  0.8705  0.6165
    3MOL    C65  469   5.723   4.942   3.674 -0.0578  0.5743 -0.1087
    3MOL    H66  470   5.831   4.895   3.437  0.7156 -1.2485  2.5460
    3MOL    H67  471   5.752   5.054   3.420 -1.5926 -1.0460  3.2204
    3MOL    H68  472   5.944   4.957   3.629 -0.3338  0.0810  0.0452
    3MOL    H69  473   5.872   5.112   3.626  2.9505  0.6832 -1.6604
    3MOL    H70  474   5.687   4.852   3.623  1.2593 -0.0609  0.0742
    3MOL    H71  475   5.639   5.011   3.666  1.4910  2.2752 -2.5777
    3MOL    O72  476   5.760   4.922   3.810  0.1443  0.0610 -0.2395
    3MOL    C73  477   5.660   4.847   3.877  0.1429 -0.0829 -0.3562
    3MOL    C74  478   5.716   4.831   4.021  0.0435  0.3162  0.7541
    3MOL    C75  479   5.614   4.775   4.117 -0.7052 -0.4029 -0.0647
    3MOL    H76  480   5.643   4.748   3.834  1.2626 -0.3049 -0.3043
    3MOL    H77  481   5.565   4.900   3.883 -0.0662 -0.5241  0.1630
    3MOL    H78  482   5.804   4.766   4.025 -0.5573 -0.5511  0.2839
    3MOL    H79  483   5.744   4.922   4.073 -1.6965  0.3404  1.7224
    3MOL    H80  484   5.680   4.743   4.198  2.0159 -0.2963 -2.1594
    3MOL    H81  485   5.559   4.685   4.088 -2.9690  0.3859  1.6254
    3MOL    O82  486   5.527   4.882   4.164  0.6107 -0.3472 -0.4795
    3MOL    C83  487   5.581   4.983   4.245  0.0480 -0.9752  0.3433
    3MOL    C84  488   5.465   5.065   4.305  0.2615  0.2964  0.9332
    3MOL    C85  489   5.503   5.175   4.405  0.0168  0.3390  0.4136
    3MOL    H86  490   5.646   5.057   4.198 -1.4671 -0.1664 -0.5369
    3MOL    H87  491   5.629   4.947   4.336 -2.3356  0.0958  2.0910
    3MOL    H88  492   5.401   5.098   4.223 -0.1035 -0.7997  0.7738
    3MOL    H89  493   5.390   5.008   4.359  3.3283 -2.6189  2.2966
    3MOL    H90  494   5.569   5.134   4.481 -0.5318  0.5509  1.0081
    3MOL    H91  495   5.413   5.200   4.461 -0.3130 -0.1116  0.0837
    3MOL    O92  496   5.569   5.281   4.337 -0.1201 -0.1241  0.2209
    3MOL    C93  497   5.593   5.388   4.426  0.0738 -0.3209 -0.1512
    3MOL    C94  498   5.700   5.489   4.383  0.0957  0.4198 -0.2106
    3MOL    C95  499   5.731   5.588   4.500 -0.2585 -0.2085  0.1444
    3MOL    H96  500   5.617   5.343   4.523  1.7472  1.8922  0.5149
    3MOL    H97  501   5.500   5.445   4.437  0.2756 -0.2233  1.1807
    3MOL    H98  502   5.789   5.430   4.358 -0.4398 -0.2545 -0.5534
    3MOL    H99  503   5.665   5.542   4.295  0.7209  2.3067  0.6397
    3MOL   H100  504   5.752   5.534   4.592  0.5581  0.3278  0.2831
    3MOL   H101  505   5.639   5.646   4.513  0.2246  0.2493  1.5281
    3MOL   O102  506   5.838   5.669   4.462 -0.2420  0.0849  0.0365
    3MOL   C103  507   5.887   5.739   4.574  0.3974 -0.1560 -0.5532
    3MOL   C104  508   5.961   5.861   4.526  0.1496  0.6496  0.1505
    3MOL   C105  509   5.989   5.978   4.627  0.7532 -0.4962 -0.0434
    3MOL   H106  510   5.948   5.671   4.632 -0.9632 -0.2767  0.7695
    3MOL   H107  511   5.811   5.779   4.642  0.8917 -1.8174  0.9956
    3MOL   H108  512   6.052   5.818   4.485  0.1736 -2.2035  2.9995
    3MOL   H109  513   5.912   5.906   4.439 -0.6781  1.6920  1.1381
    3MOL   H110  514   5.899   6.000   4.684 -0.0339 -1.6178 -0.8684
    3MOL   H111  515   6.005   6.077   4.584 -2.1997  1.1124  2.3780
    3MOL   O112  516   6.098   5.937   4.705  0.3965  0.1623 -0.6936
    3MOL   C113  517   6.109   6.000   4.835  0.0536 -0.0482 -0.3263
    3MOL   C114  518   6.254   5.987   4.898 -0.0453  0.6398  0.1270
    3MOL   C115  519   6.259   5.950   5.047 -0.1315 -0.6372  0.2343
    3MOL   H116  520   6.029   5.958   4.897  1.2866  0.9615  2.0185
    3MOL   H117  521   6.080   6.105   4.829 -0.5423 -0.2195 -0.5464
    3MOL   H118  522   6.304   5.903   4.851  0.8862 -0.2436  2.6119
    3MOL   H119  523   6.314   6.077   4.879  1.0646  0.2825  1.8530
    3MOL   H120  524   6.211   5.857   5.077 -2.0258  1.1236  2.9571
    3MOL   H121  525   6.215   6.025   5.113  3.0015  1.1667  0.4021
    3MOL   O122  526   6.400   5.944   5.087 -0.1702 -0.3926  0.3707
    3MOL   C123  527   6.446   6.043   5.178  0.2089  0.0086 -0.2048
    3MOL   C124  528   6.584   6.007   5.241 -0.5305  0.2689  0.2699
    3MOL   C125  529   6.631   6.113   5.338  0.0883  0.2768  0.8214
    3MOL   H126  530   6.373   6.048   5.259  2.3345  1.3841  1.7046
    3MOL   H127  531   6.447   6.136   5.122  1.3037 -0.4000 -0.8735
    3MOL   H128  532   6.580   5.911   5.293  1.7525  0.3343  0.5996
    3MOL   H129  533   6.661   5.993   5.166 -1.8934  0.6212 -1.2337
    3MOL   H130  534   6.563   6.116   5.423 -1.1742 -0.4999 -0.1356
    3MOL   H131  535   6.639   6.209   5.287 -0.1301  0.1809  0.6048
    3MOL   O132  536   6.769   6.077   5.370 -0.0646  0.6884  0.2659
    3MOL   C133  537   6.835   6.173   5.445 -0.0466 -0.6323  0.6218
    3MOL   C134  538   6.973   6.131   5.496  0.8618 -0.3335  0.0883
    3MOL   C135  539   7.054   6.053   5.385 -0.3291  0.2832 -0.1209
    3MOL   H136  540   6.778   6.200   5.534  1.1276  1.2592  0.8461
    3MOL   H137  541   6.842   6.267   5.389  0.1687  1.0428  3.3548
    3MOL   H138  542   7.027   6.221   5.525 -1.0237  1.0250 -0.5361
    3MOL   H139  543   6.967   6.071   5.586  2.5073  1.7107  1.6089
    3MOL   H140  544   7.076   6.120   5.302 -1.7787 -0.6657 -1.3009
    3MOL   H141  545   6.993   5.980   5.333  0.7186 -0.0007 -0.9729
    3MOL   O142  546   7.175   5.985   5.430 -0.6035 -0.6826 -0.1190
    3MOL   C143  547   7.155   5.886   5.537  0.5357 -0.1051  0.0469
    3MOL   C144  548   7.290   5.814   5.550  0.4915  0.4373  1.0505
    3MOL   C145  549   7.407   5.905   5.602 -0.5830 -0.3520 -0.1406
    3MOL   H146  550   7.076   5.815   5.510  0.4003 -0.4106  1.2276
    3MOL   H147  551   7.130   5.922   5.637  0.7307  0.0809  0.0288
    3MOL   H148  552   7.284   5.724   5.611  1.1047 -1.8946 -2.1634
    3MOL   H149  553   7.321   5.781   5.451 -3.0665 -2.3972  0.7848
    3MOL   H150  554   7.390   5.958   5.695 -0.8513 -0.8038  0.0733
    3MOL   H151  555   7.418   5.985   5.530  0.4399 -0.4585 -0.1104
    3MOL   O152  556   7.514   5.821   5.610 -0.3670  0.5031  0.2261
    3MOL   C153  557   7.646   5.876   5.621 -0.3432  0.0459  0.1708
    3MOL   C154  558   7.740   5.759   5.651 -0.1534  0.6746  0.3373
    3MOL   C155  559   7.741   5.700   5.790 -0.3187 -0.7473  0.0970
    3MOL   H156  560   7.652   5.943   5.706  1.3587 -0.9375  0.8523
    3MOL   H157  561   7.676   5.932   5.532 -0.4802 -1.5597 -0.9204
    3MOL   H158  562   7.719   5.686   5.572  4.0834 -0.8823  0.5146
    3MOL   H159  563   0.055   5.790   5.634  0.1832  0.5585  2.1331
    3MOL   H160  564   7.642   5.656   5.794 -0.2808 -0.7508  1.1247
    3MOL   H161  565   7.732   5.781   5.862  0.4515  0.9656 -1.6935
    3MOL   O162  566   0.071   5.613   5.795  0.6511 -0.1646  0.4685
    3MOL   C163  567   0.117   5.584   5.924  0.7918  0.5590  0.0763
    3MOL   C164  568   0.232   5.482   5.921 -0.7697  0.4229  0.4027
    3MOL   C165  569   0.171   5.348   5.860  0.3645  0.0368 -0.0403
    3MOL   H166  570   0.035   5.572   5.995  3.1317  0.7016  2.8812
    3MOL   H167  571   0.158   5.677   5.963 -0.6908  0.5909  1.6246
    3MOL   H168  572   0.310   5.512   5.851 -1.5936  1.0018 -0.2880
    3MOL   H169  573   0.269   5.464   6.021 -1.0905 -1.7587  0.1588
    3MOL   H170  574   0.162   5.356   5.752  0.0005 -1.2206 -0.1181
    3MOL   H171  575   0.073   5.338   5.906  0.7809  1.9731  1.2921
    3MOL   O172  576   0.252   5.241   5.903 -0.5286 -0.0450  0.4552
    3MOL   C173  577   0.188   5.115   5.897  0.3726  0.1523 -0.5287
    3MOL   C174  578   0.275   5.001   5.955 -0.7738 -0.5797 -0.4797
    3MOL   C175  579   0.380   4.958   5.852  0.4391  0.1733  0.2699
    3MOL   H176  580   0.161   5.095   5.793 -1.2086  0.4502 -0.1978
    3MOL   H177  581   0.095   5.126   5.954  0.3738  3.5215 -1.0388
    3MOL   H178  582   0.318   5.023   6.052  1.2799 -0.0047 -1.4774
    3MOL   H179  583   0.209   4.918   5.981 -1.2293 -0.0029  0.1816
    3MOL   H180  584   0.445   5.038   5.818  0.2968  1.1146  2.1727
    3MOL   H181  585   0.332   4.909   5.766 -1.9837  0.1898  1.5643
    3MOL   O182  586   0.454   4.861   5.921 -0.4999 -0.3231 -0.0841
    3MOL   C183  587   0.548   4.782   5.850  0.1503  0.4858  0.4617
    3MOL   C184  588   0.622   4.707   5.958  0.3951  0.0699 -0.0860
    3MOL   C185  589   0.742   4.618   5.909  0.3230  0.4131 -0.1136
    3MOL   H186  590   0.609   4.846   5.786  0.3720 -0.9940 -0.8413
    3MOL   H187  591   0.483   4.712   5.798 -1.4376  1.9002  0.4663
    3MOL   H188  592   0.662   4.782   6.026 -0.5372 -0.0114  0.5649
    3MOL   H189  593   0.554   4.644   6.017  2.1852 -2.6240 -0.8033
    3MOL   H190  594   0.820   4.628   5.984  0.0121 -0.7652  0.3791
    3MOL   H191  595   0.781   4.669   5.821  0.4160  0.2915 -0.1429
    3MOL   O192  596   0.691   4.492   5.894  0.0084  0.1301 -0.2908
    3MOL   C193  597   0.790   4.396   5.853  0.7605  0.2580 -0.0364
    3MOL   C194  598   0.733   4.262   5.809 -0.3041  0.4591  0.2572
    3MOL   C195  599   0.662   4.267   5.677  0.2200 -0.2379  0.7557
    3MOL   H196  600   0.856   4.373   5.937  0.2357 -1.8483 -0.1732
    3MOL   H197  601   0.852   4.422   5.767  1.3853 -0.3724  0.2171
    3MOL   H198  602   0.815   4.192   5.793 -0.3718  0.1616  1.1920
    3MOL   H199  603   0.669   4.229   5.890 -0.6614  0.5692  0.0214
    3MOL   H200  604   0.580   4.339   5.677 -1.6531 -2.3261  0.6284
    3MOL   H201  605   0.607   4.180   5.645  0.0514  0.4116 -0.7493
    3MOL   H202  606   0.733   4.295   5.600  0.6406 -1.1321  0.8136
    4MOL     O1  607   6.278   5.742   0.515  0.1286 -0.5734 -0.0768
    4MOL     C2  608   6.345   5.872   0.516  0.0108  0.4746  0.3725
    4MOL     C3  609   6.484   5.876   0.456  0.5323 -0.1355  0.1654
    4MOL     C4  610   6.593   5.788   0.528  0.3473 -0.2404 -0.5551
    4MOL     H5  611   6.358   5.912   0.617 -2.3867 -1.5629  1.5509
    4MOL     H6  612   6.279   5.942   0.465 -0.9943 -0.4546  0.3733
    4MOL     H7  613   6.480   5.843   0.352  0.4198 -3.1352  1.0752
    4MOL     H8  614   6.511   5.981   0.450  0.3781 -0.2171 -2.6105
    4MOL     H9  615   6.566   5.683   0.537  1.0835 -0.4177 -0.3346
    4MOL    H10  616   6.610   5.825   0.629 -1.7032  0.3420 -0.4086
    4MOL    H11  617   6.249   5.721   0.428 -3.3364  1.8586  0.3549
    4MOL    O12  618   6.709   5.780   0.444 -0.8693 -0.0274 -0.1249
    4MOL    C13  619   6.814   5.704   0.498 -0.0552  0.4007 -0.5659
    4MOL    C14  620   6.944   5.708   0.425 -0.9246  0.2471 -0.3659
    4MOL    C15  621   6.988   5.858   0.414 -0.5505  0.7863  0.2479
    4MOL    H16  622   6.791   5.602   0.528 -0.6612  0.0995 -2.0358
    4MOL    H17  623   6.829   5.744   0.599 -4.9285  2.5527 -0.5396
    4MOL    H18  624   7.030   5.664   0.477 -0.2622  3.0575  1.0546
    4MOL    H19  625   6.947   5.671   0.323  1.1721  2.8955 -1.3456
    4MOL    H20  626   7.012   5.898   0.512  0.9586  0.5135  0.0036
    4MOL    H21  627   6.907   5.918   0.373 -1.3773 -3.1607 -4.3861
    4MOL    O22  628   7.101   5.860   0.323  0.5255 -0.0283  0.1856
    4MOL    C23  629   7.183   5.978   0.346  1.1587 -0.4940  0.1359
    4MOL    C24  630   7.315   5.954   0.278 -0.1800 -0.5132 -0.5533
    4MOL    C25  631   7.293   5.956   0.129 -0.1413 -0.1024 -0.8154
    4MOL    H26  632   7.186   6.001   0.452  0.4392  2.2860 -0.4110
    4MOL    H27  633   7.137   6.066   0.303  1.4026  0.2927  1.4707
    4MOL    H28  634   7.384   6.029   0.314 -0.3797 -0.4952 -0.2029
    4MOL    H29  635   7.364   5.861   0.307 -1.0423 -0.7298  0.2512
    4MOL    H30  636   7.257   6.053   0.097 -2.3331 -0.3643  0.6610
    4MOL    H31  637   7.218   5.883   0.098 -0.6389  0.0785 -0.0632
    4MOL    O32  638   7.420   5.931   0.066  0.8375 -0.4890 -0.3221
    4MOL    C33  639   7.405   5.948   7.718 -0.9257  0.1558 -0.5037
    4MOL    C34  640   7.549   5.969   7.663  0.9673  0.1199  0.4816
    4MOL    C35  641   7.565   5.979   7.512 -0.0683  0.0097  0.2278
    4MOL    H36  642   7.337   6.030   7.695 -1.5716  1.1006  4.1860
    4MOL    H37  643   7.356   5.856   7.686 -1.2167 -0.5755  1.9093
    4MOL    H38  644   7.585   6.057   7.716 -0.6838 -0.2332  2.2751
    4MOL    H39  645   7.600   5.880   7.702 -1.8325 -2.2628 -1.0638
    4MOL    H40  646   7.501   6.064   7.491 -0.9963 -0.1578  2.2600
    4MOL    H41  647   7.532   5.888   7.461 -2.1650  1.2946 -0.7640
    4MOL    O42  648   7.699   6.008   7.469 -0.0330 -0.7671  0.7819
    4MOL    C43  649   7.709   6.043   7.328  0.0280 -0.6304 -0.4993
    4MOL    C44  650   0.068   6.073   7.306 -0.3208 -0.3322  0.6420
    4MOL    C45  651   0.111   6.102   7.163 -0.8014 -0.2965 -0.4041
    4MOL    H46  652   7.636   6.122   7.307  0.9502  0.0713 -1.0867
    4MOL    H47  653   7.681   5.964   7.259  0.5866  0.3785 -1.8834
    4MOL    H48  654   0.095   6.161   7.364  1.3471  0.3740 -1.1719
    4MOL    H49  655   0.138   5.995   7.336 -1.6147 -2.3173 -1.3695
    4MOL    H50  656   0.213   6.142   7.163 -1.1536  0.7185  2.0932
    4MOL    H51  657   0.047   6.177   7.116 -0.0708  0.0245 -0.8969
    4MOL    O52  658   0.093   5.983   7.088  0.0451 -0.3459  0.2377
    4MOL    C53  659   0.116   6.011   6.950  0.0841 -0.1099  0.0383
    4MOL    C54  660   0.029   5.916   6.866  0.2547 -0.4562 -0.8766
    4MOL    C55  661   0.062   5.913   6.721  0.1740 -0.0820 -0.6635
    4MOL    H56  662   0.223   6.003   6.933  0.0787  0.5004 -0.3229
    4MOL    H57  663   0.095   6.114   6.920 -0.3492  0.1018  1.0569
    4MOL    H58  664   0.021   5.817   6.913 -0.4811 -0.4045 -0.8864
    4MOL    H59  665   7.719   5.961   6.876 -0.1961 -1.2392 -1.7600
    4MOL    H60  666   0.014   5.830   6.670 -0.9464  0.5401 -0.6413
    4MOL    H61  667   0.165   5.884   6.701  0.4152 -0.8368  1.5890
    4MOL    O62  668   0.036   6.042   6.666 -0.7883 -0.6072  0.1692
    4MOL    C63  669   0.016   6.042   6.522  0.0695  0.4018  0.2682
    4MOL    C64  670   7.777   6.180   6.473  0.1412  0.9804  0.4231
    4MOL    C65  671   7.755   6.176   6.323 -0.0076 -0.1469 -0.0488
    4MOL    H66  672   7.716   5.983   6.496 -0.1161  0.9024 -0.2565
    4MOL    H67  673   0.099   5.989   6.476 -1.0223 -2.7817  1.8306
    4MOL    H68  674   7.685   6.218   6.519 -1.0320  0.0762 -1.1390
    4MOL    H69  675   0.071   6.244   6.503  0.4505 -0.6768  3.3674
    4MOL    H70  676   7.663   6.126   6.294 -0.7789  1.4034 -0.2798
    4MOL    H71  677   0.048   6.124   6.273  2.1954  1.7020  1.4733
    4MOL    O72  678   7.745   6.310   6.278  0.0328 -0.3427 -0.3295
    4MOL    C73  679   0.084   6.376   6.257  0.8107  0.3193 -0.9904
    4MOL    C74  680   0.068   6.527   6.246  0.7719  0.3785  0.2922
    4MOL    C75  681   0.197   6.609   6.244 -0.3037 -0.3035 -0.0466
    4MOL    H76  682   0.140   6.326   6.178 -0.6827 -2.8716 -0.1191
    4MOL    H77  683   0.144   6.358   6.345 -1.2774  0.9060  0.6012
    4MOL    H78  684   0.006   6.562   6.163 -0.5862  0.6128  1.4063
    4MOL    H79  685   0.008   6.561   6.330 -0.3366 -0.8236 -0.0035
    4MOL    H80  686   0.178   6.714   6.221 -0.2762 -0.6621 -1.7801
    4MOL    H81  687   0.259   6.570   6.163  0.2358 -1.1317  0.7451
    4MOL    O82  688   0.271   6.589   6.363  0.6170 -0.5369  0.2445
    4MOL    C83  689   0.389   6.650   6.376 -0.0923  0.1527  0.4048
    4MOL    C84  690   0.446   6.613   6.514  0.9707  0.0493 -0.4244
    4MOL    C85  691   0.578   6.677   6.532 -0.1085 -0.0565 -0.5374
    4MOL    H86  692   0.388   6.758   6.382  2.1295  0.1360  1.6838
    4MOL    H87  693   0.463   6.630   6.298 -1.3120  0.0517 -0.7350
    4MOL    H88  694   0.376   6.639   6.594 -1.2171 -0.1179 -2.2260
    4MOL    H89  695   0.459   6.506   6.524  0.2271 -0.1143 -1.1831
    4MOL    H90  696   0.569   6.786   6.527 -0.6446 -0.0248  0.7688
    4MOL    H91  697   0.646   6.637   6.458  0.2551 -2.5307  1.0672
    4MOL    O92  698   0.629   6.634   6.657 -0.1023  0.4168  0.7534
    4MOL    C93  699   0.765   6.665   6.679 -0.2671 -0.2259  0.1816
    4MOL    C94  700   0.859   6.571   6.607  0.0200 -0.3508 -0.2554
    4MOL    C95  701   1.007   6.615   6.622  0.6567  0.3320  0.1062
    4MOL    H96  702   0.774   6.671   6.788 -1.4297  1.6904  0.1842
    4MOL    H97  703   0.782   6.770   6.659  1.0357 -0.7231 -1.4044
    4MOL    H98  704   0.855   6.468   6.640 -0.7944  0.3874  2.0719
    4MOL    H99  705   0.843   6.561   6.500  1.7182 -0.0194 -0.5630
    4MOL   H100  706   1.068   6.530   6.591 -1.8040 -1.0362 -1.1119
    4MOL   H101  707   1.021   6.626   6.730  0.7173  0.6944  0.0641
    4MOL   O102  708   1.033   6.728   6.541 -0.2466 -0.7461  0.2941
    4MOL   C103  709   1.176   6.769   6.548  0.2245 -0.5155  0.2344
    4MOL   C104  710   1.195   6.918   6.514 -0.3379 -0.5640  0.0780
    4MOL   C105  711   1.338   6.962   6.542 -0.4874 -0.1136 -0.3761
    4MOL   H106  712   1.225   6.694   6.485 -1.1449 -0.4901 -0.8850
    4MOL   H107  713   1.201   6.755   6.653 -0.0806  2.7294  0.8014
    4MOL   H108  714   1.172   6.957   6.415  0.1721  0.5062  0.3749
    4MOL   H109  715   1.131   6.981   6.576 -1.5935  1.3279 -3.0272
    4MOL   H110  716   1.397   6.914   6.463  1.4757  0.4047  0.7300
    4MOL   H111  717   1.389   6.908   6.623  0.3330 -0.0856 -0.8662
    4MOL   O112  718   1.372   7.102   6.539  0.0536  0.5689  0.0382
    4MOL   C113  719   1.501   7.139   6.580  0.0126 -0.1225  0.0772
    4MOL   C114  720   1.548   7.288   6.544 -0.7364  0.6670 -0.6983
    4MOL   C115  721   1.695   7.307   6.556 -0.3097  0.4058 -0.1275
    4MOL   H116  722   1.569   7.065   6.536  1.5516  1.7144 -0.7304
    4MOL   H117  723   1.517   7.109   6.683  0.2233 -1.2910 -0.2828
    4MOL   H118  724   1.522   7.304   6.439  1.1015 -1.4742 -1.5014
    4MOL   H119  725   1.499   7.366   6.602  0.4978  0.6652  0.3483
    4MOL   H120  726   1.744   7.221   6.510  0.1817  1.1477 -1.0316
    4MOL   H121  727   1.716   7.315   6.662  1.5766  3.4024 -0.6691
    4MOL   O122  728   1.732   7.422   6.490  0.0114  0.1259 -0.3264
    4MOL   C123  729   1.820   7.503   6.563 -0.5519 -0.1069 -0.7556
    4MOL   C124  730   1.829   7.637   6.469  0.3553  0.3399 -0.1673
    4MOL   C125  731   1.925   7.732   6.530 -1.0151 -1.0153  1.0625
    4MOL   H126  732   1.909   7.441   6.565 -1.1999 -1.0596 -1.0685
    4MOL   H127  733   1.787   7.518   6.666  0.0274 -2.0703 -0.2620
    4MOL   H128  734   1.847   7.608   6.365 -4.3229  2.5917 -1.7305
    4MOL   H129  735   1.732   7.686   6.469  0.1669 -0.0422  1.0242
    4MOL   H130  736   2.017   7.679   6.554  0.6963  1.1774 -0.4789
    4MOL   H131  737   1.880   0.001   6.610 -0.7602 -0.4167  0.7802
    4MOL   O132  738   1.950   0.048   6.428  0.0753 -0.0963 -0.3081
    4MOL   C133  739   2.063   0.127   6.462 -0.1022  0.3335  0.2232
    4MOL   C134  740   2.100   0.235   6.353  0.5863  0.0741 -0.7704
    4MOL   C135  741   2.156   0.178   6.221 -0.5275  0.1651  1.1088
    4MOL   H136  742   2.149   0.063   6.482 -0.9354 -0.3109  1.7943
    4MOL   H137  743   2.032   0.183   6.550  2.3748 -0.5321  1.6957
    4MOL   H138  744   2.010   0.291   6.325  0.7229  2.0980  2.5284
    4MOL   H139  745   2.177   0.297   6.399  2.5022 -2.7843  0.0096
    4MOL   H140  746   2.106   0.085   6.193  0.8447  0.2791 -1.9609
    4MOL   H141  747   2.259   0.148   6.241 -0.2375 -1.1081 -1.9740
    4MOL   O142  748   2.161   0.260   6.110 -0.0442  0.3221  0.0525
    4MOL   C143  749   2.041   0.297   6.044 -0.0898 -0.4104 -0.9741
    4MOL   C144  750   2.068   0.394   5.929  0.3516  0.0196  0.3681
    4MOL   C145  751   1.941   0.396   5.841  0.2218 -0.4133 -1.4009
    4MOL   H146  752   1.966   0.337   6.113  0.9985  1.5145 -0.8886
    4MOL   H147  753   2.001   0.204   6.003 -0.7248 -0.7040  0.2916
    4MOL   H148  754   2.097   0.494   5.962 -1.1860  0.0967  1.4943
    4MOL   H149  755   2.154   0.357   5.873  1.6238  1.4260  1.3561
    4MOL   H150  756   1.852   0.373   5.900  1.4072 -2.0562 -0.2105
    4MOL   H151  757   1.958   0.322   5.763  1.4813 -3.1680  1.3646
    4MOL   O152  758   1.937   0.528   5.793 -0.0776  0.5803  0.0400
    4MOL   C153  759   1.832   0.551   5.695 -0.0328 -0.1994  0.0544
    4MOL   C154  760   1.838   0.689   5.638 -0.4539 -0.2457  0.4027
    4MOL   C155  761   1.725   0.717   5.539  0.0518  0.1681  0.2707
    4MOL   H156  762   1.735   0.543   5.746  0.3986  2.3028  1.3351
    4MOL   H157  763   1.842   0.480   5.613  0.1204 -2.4354  1.9473
    4MOL   H158  764   1.836   0.765   5.716 -0.5866 -0.1856  0.3425
    4MOL   H159  765   1.931   0.700   5.582  0.5913 -0.2492  2.1032
    4MOL   H160  766   1.633   0.718   5.597 -0.3825  1.2941 -0.4091
    4MOL   H161  767   1.725   0.643   5.458 -0.9350  0.2275  0.2155
    4MOL   O162  768   1.719   0.851   5.474  0.7995  0.2006 -0.3337
    4MOL   C163  769   1.802   0.851   5.359 -0.5836 -0.5782  0.1184
    4MOL   C164  770   1.823   0.993   5.304  0.4171 -0.3277  0.1830
    4MOL   C165  771   1.867   0.987   5.156  0.3183  0.3474 -0.1537
    4MOL   H166  772   1.762   0.789   5.278  1.7696 -0.0776 -1.4762
    4MOL   H167  773   1.899   0.810   5.385 -0.3904  0.0646  0.4044
    4MOL   H168  774   1.745   1.062   5.336 -1.0055 -1.5267 -0.6451
    4MOL   H169  775   1.902   1.049   5.353 -0.5553 -1.2282  2.8698
    4MOL   H170  776   1.809   0.913   5.100 -0.2032 -0.0827  0.9460
    4MOL   H171  777   1.970   0.950   5.157  0.2555  0.1699  1.2181
    4MOL   O172  778   1.850   1.107   5.085  0.3036  0.3833  0.1081
    4MOL   C173  779   1.889   1.093   4.948  0.2457  0.1870 -0.0544
    4MOL   C174  780   1.864   1.230   4.875  0.4635  0.2541  0.2259
    4MOL   C175  781   1.903   1.236   4.728 -0.3983 -0.5656 -0.1067
    4MOL   H176  782   1.835   1.011   4.900 -0.4738 -0.8290  2.4083
    4MOL   H177  783   1.995   1.068   4.943  0.1948 -0.1861  0.6970
    4MOL   H178  784   1.757   1.243   4.891  0.5821  1.4980  0.0451
    4MOL   H179  785   1.918   1.308   4.927  0.3779 -1.0371  2.2937
    4MOL   H180  786   2.012   1.225   4.727 -0.0466  2.4870  0.5892
    4MOL   H181  787   1.881   1.329   4.677  1.0014 -0.5015 -0.6008
    4MOL   O182  788   1.821   1.134   4.658  0.0166 -0.2807 -0.1550
    4MOL   C183  789   1.866   1.118   4.520  0.4827 -0.1649 -0.1423
    4MOL   C184  790   1.820   0.976   4.480  0.7137  0.7471 -0.6198
    4MOL   C185  791   1.672   0.959   4.438  0.1022 -0.0274  0.2789
    4MOL   H186  792   1.972   1.133   4.502  0.1246  1.2992 -1.1572
    4MOL   H187  793   1.826   1.198   4.458  0.9467  0.7763  0.7517
    4MOL   H188  794   1.880   0.945   4.395  2.1117  0.7938  0.3341
    4MOL   H189  795   1.830   0.908   4.565  1.6133 -0.1677 -1.4495
    4MOL   H190  796   1.659   0.995   4.336 -0.0017  0.1869  0.3687
    4MOL   H191  797   1.603   1.010   4.506 -1.1254 -1.0164 -0.1829
    4MOL   O192  798   1.630   0.824   4.450 -0.5307 -0.1818 -0.3397
    4MOL   C193  799   1.503   0.789   4.401  0.3091  0.3370  0.3795
    4MOL   C194  800   1.508   0.648   4.347  0.2673 -0.2577 -0.4050
    4MOL   C195  801   1.490   0.536   4.441  0.1295 -0.7173 -0.4769
    4MOL   H196  802   1.468   0.855   4.322  1.2483 -0.1213 -0.4357
    4MOL   H197  803   1.425   0.793   4.477 -1.8098  1.5761 -1.8006
    4MOL   H198  804   1.444   0.641   4.259  1.6512 -2.0975 -1.3135
    4MOL   H199  805   1.602   0.640   4.293  0.7259  1.2390  0.1488
    4MOL   H200  806   1.494   0.439   4.392  0.4329 -0.8894 -0.1212
    4MOL   H201  807   1.402   0.537   4.505  2.3409  1.0211  2.6607
    4MOL   H202  808   1.584   0.539   4.497  1.4288  0.8736 -2.6727
    5MOL     O1  809   4.398   1.591   7.118  0.1960 -0.2445  0.3432
    5MOL     C2  810   4.542   1.582   7.136 -1.4560  0.8333  0.3188
    5MOL     C3  811   4.571   1.539   7.280  0.1741  0.0877  0.1812
    5MOL     C4  812   4.723   1.531   7.323  0.5182  0.4508  0.7871
    5MOL     H5  813   4.579   1.682   7.115  1.0328 -0.5491 -2.3211
    5MOL     H6  814   4.573   1.513   7.057  0.1244  1.7086  0.1666
    5MOL     H7  815   4.525   1.611   7.348  0.9901 -0.4410  1.3032
    5MOL     H8  816   4.526   1.440   7.295 -0.5012  0.2674 -0.6122
    5MOL     H9  817   4.773   1.464   7.252 -1.7890 -2.7427  2.0339
    5MOL    H10  818   4.726   1.490   7.424 -1.1163 -3.1727 -0.5325
    5MOL    H11  819   4.359   1.647   7.183  0.6426 -1.6932  1.9283
    5MOL    O12  820   4.764   1.668   7.322 -0.1925 -0.0519  0.5464
    5MOL    C13  821   4.899   1.688   7.321 -0.1105 -0.1690 -0.5388
    5MOL    C14  822   4.954   1.693   7.462  0.3426 -0.3056  0.1042
    5MOL    C15  823   5.109   1.696   7.466  0.5945 -0.4829  0.5351
    5MOL    H16  824   4.911   1.786   7.275 -1.0033  1.7166  3.0518
    5MOL    H17  825   4.951   1.618   7.256  1.3082  0.2273  0.1727
    5MOL    H18  826   4.916   1.784   7.510  1.2524 -1.0541  2.3263
    5MOL    H19  827   4.922   1.607   7.520  0.2442 -0.5637 -0.3335
    5MOL    H20  828   5.148   1.791   7.432 -0.0259 -0.7460 -0.9323
    5MOL    H21  829   5.139   1.618   7.397  0.9498 -0.3123  0.4975
    5MOL    O22  830   5.150   1.666   7.599 -0.1441  0.4203  0.1746
    5MOL    C23  831   5.271   1.716   7.633  0.0668 -0.0667  0.4696
    5MOL    C24  832   5.389   1.652   7.562 -0.8298  0.0723  0.1945
    5MOL    C25  833   5.521   1.700   7.621 -0.6206  0.3199 -0.0960
    5MOL    H26  834   5.270   1.689   7.739  0.7437  0.7649  0.6996
    5MOL    H27  835   5.292   1.823   7.624 -1.9546  0.4249  1.2789
    5MOL    H28  836   5.393   1.543   7.566  0.4372  0.1311  0.8409
    5MOL    H29  837   5.383   1.675   7.456 -1.1218  0.0147  0.1998
    5MOL    H30  838   5.510   1.709   7.729 -0.8570 -0.4842 -0.0445
    5MOL    H31  839   5.532   1.797   7.573  1.1974 -0.2725 -0.8978
    5MOL    O32  840   5.632   1.611   7.602 -0.0363  0.5925 -0.4353
    5MOL    C33  841   5.742   1.667   7.666 -0.9934 -0.9585 -0.0841
    5MOL    C34  842   5.861   1.603   7.597 -0.0164 -0.8980  0.7928
    5MOL    C35  843   5.994   1.629   7.657  0.3072 -1.3512  0.0995
    5MOL    H36  844   5.744   1.655   7.774  0.7981 -0.2276 -0.0049
    5MOL    H37  845   5.732   1.776   7.662  2.0556 -0.3148  5.1169
    5MOL    H38  846   5.852   1.495   7.602  4.6805 -1.3065  2.1620
    5MOL    H39  847   5.867   1.630   7.492  0.3752 -2.3185  0.4414
    5MOL    H40  848   5.995   1.607   7.764 -1.5099 -2.1687 -0.0291
    5MOL    H41  849   6.007   1.736   7.641  1.2294 -0.7526  4.2535
    5MOL    O42  850   6.091   1.550   7.587 -0.1216 -0.2381 -0.4400
    5MOL    C43  851   6.223   1.555   7.636  0.5953 -0.5954  0.2841
    5MOL    C44  852   6.297   1.443   7.557 -0.3984  0.0618  0.1323
    5MOL    C45  853   6.451   1.437   7.575 -0.4045  0.2051 -0.2671
    5MOL    H46  854   6.224   1.535   7.743  0.8265 -1.1393  0.1810
    5MOL    H47  855   6.266   1.655   7.631 -1.9868  0.5429  0.1859
    5MOL    H48  856   6.244   1.351   7.579 -0.8218  0.8745  2.7013
    5MOL    H49  857   6.289   1.457   7.449  1.3525  0.4690  0.0392
    5MOL    H50  858   6.471   1.435   7.682  0.0081 -1.2035 -0.3503
    5MOL    H51  859   6.499   1.531   7.546  0.7231 -0.7869 -1.7427
    5MOL    O52  860   6.508   1.323   7.513  0.2276  0.2501  0.3329
    5MOL    C53  861   6.649   1.324   7.518 -0.1561  0.0110  0.5384
    5MOL    C54  862   6.705   1.211   7.437  0.0399 -0.1571  0.2802
    5MOL    C55  863   6.644   1.084   7.487 -0.4821  0.8809 -0.7509
    5MOL    H56  864   6.685   1.326   7.621  1.2644 -0.7863  0.0775
    5MOL    H57  865   6.687   1.420   7.484 -1.4985  0.3369 -0.0466
    5MOL    H58  866   6.680   1.233   7.333  0.1344  1.1655  0.5310
    5MOL    H59  867   6.813   1.198   7.445  0.1429  0.1272 -0.5948
    5MOL    H60  868   6.544   1.073   7.446 -2.0482 -0.6231  3.2416
    5MOL    H61  869   6.642   1.081   7.596  2.6014 -1.9899 -0.6951
    5MOL    O62  870   6.732   0.981   7.447  0.5187 -0.3879  0.7008
    5MOL    C63  871   6.669   0.861   7.485  0.1394 -0.1470  0.2682
    5MOL    C64  872   6.767   0.743   7.452 -0.1894 -0.2406 -0.1043
    5MOL    C65  873   6.696   0.611   7.425 -0.3554 -0.1114 -0.4423
    5MOL    H66  874   6.576   0.847   7.430  1.1048  0.2937 -1.5234
    5MOL    H67  875   6.650   0.866   7.592 -0.6874  2.3013  0.0436
    5MOL    H68  876   6.842   0.755   7.374  0.3765 -0.6360  0.3833
    5MOL    H69  877   6.839   0.727   7.532 -0.9488  1.3421  0.9251
    5MOL    H70  878   6.611   0.609   7.494  0.5488  2.0571  0.7767
    5MOL    H71  879   6.770   0.534   7.444 -0.5810 -0.6396 -1.6033
    5MOL    O72  880   6.649   0.605   7.294  0.0493  0.1982 -0.0820
    5MOL    C73  881   6.626   0.480   7.243 -0.3171  0.6141  0.0827
    5MOL    C74  882   6.564   0.487   7.101  0.6311 -0.7750  0.0693
    5MOL    C75  883   6.641   0.552   6.985 -0.8258  0.5949 -0.8674
    5MOL    H76  884   6.560   0.418   7.303  2.0957 -3.2995 -1.1519
    5MOL    H77  885   6.717   0.426   7.218 -0.7469 -0.9535  1.8350
    5MOL    H78  886   6.536   0.387   7.067  1.1608 -1.1653  0.7584
    5MOL    H79  887   6.468   0.538   7.107  1.7059  1.6358 -2.4766
    5MOL    H80  888   6.727   0.488   6.969 -1.9978 -1.0029 -0.9480
    5MOL    H81  889   6.689   0.647   7.010  0.3957 -0.3214  0.3147
    5MOL    O82  890   6.560   0.560   6.880  0.0360  0.0394 -0.1079
    5MOL    C83  891   6.633   0.601   6.763 -0.3937 -0.1521  0.3594
    5MOL    C84  892   6.550   0.566   6.639  0.6440  0.1619 -0.0847
    5MOL    C85  893   6.639   0.582   6.511 -0.9046 -0.4218 -0.2039
    5MOL    H86  894   6.730   0.554   6.744  0.7664  1.2549  2.5959
    5MOL    H87  895   6.652   0.708   6.769 -1.3175 -0.0050  0.8729
    5MOL    H88  896   6.492   0.474   6.637  1.8470 -0.6376  1.6302
    5MOL    H89  897   6.469   0.638   6.624  1.7876  1.1068 -2.0283
    5MOL    H90  898   6.716   0.505   6.503 -1.0809 -0.9699  2.7465
    5MOL    H91  899   6.684   0.682   6.514 -0.1658 -0.7307 -0.7792
    5MOL    O92  900   6.559   0.582   6.391 -0.2263 -0.3972  0.0428
    5MOL    C93  901   6.632   0.581   6.266 -0.0057  0.1320 -0.2097
    5MOL    C94  902   6.525   0.622   6.161 -0.2671  0.4340 -0.0208
    5MOL    C95  903   6.579   0.605   6.017 -0.6182 -0.1895  0.3536
    5MOL    H96  904   6.687   0.489   6.245 -1.7680 -1.0372  0.2031
    5MOL    H97  905   6.713   0.654   6.266 -0.4972  0.6796 -0.4269
    5MOL    H98  906   6.436   0.566   6.189  0.2723 -0.6064 -0.3329
    5MOL    H99  907   6.500   0.727   6.173  0.9650  0.7217  0.1293
    5MOL   H100  908   6.658   0.681   6.016  0.7024 -1.4911  2.6153
    5MOL   H101  909   6.508   0.625   5.937  2.1532  0.4910 -2.0352
    5MOL   O102  910   6.641   0.474   5.996 -0.2598 -0.1534  0.3410
    5MOL   C103  911   6.719   0.464   5.878 -0.3853 -0.0416  0.3812
    5MOL   C104  912   6.773   0.320   5.880  0.0236 -0.0043  0.1058
    5MOL   C105  913   6.896   0.295   5.796 -0.1839  0.1139  0.0968
    5MOL   H106  914   6.798   0.539   5.886  0.5173 -1.0953  1.7313
    5MOL   H107  915   6.660   0.486   5.789 -2.5170  0.1322  1.8076
    5MOL   H108  916   6.797   0.291   5.982  1.2176  1.2750  0.2141
    5MOL   H109  917   6.697   0.254   5.839 -0.2205 -0.2021  0.8839
    5MOL   H110  918   6.989   0.323   5.847 -0.2253  1.2538 -0.4520
    5MOL   H111  919   6.876   0.350   5.705 -1.2086 -1.7628 -0.8562
    5MOL   O112  920   6.893   0.152   5.767 -0.1015  0.0984  0.0245
    5MOL   C113  921   6.984   0.107   5.664  0.0759  0.0203  0.4818
    5MOL   C114  922   6.960   7.748   5.633 -0.4080  0.0000 -0.3432
    5MOL   C115  923   7.049   7.690   5.527 -0.2277  0.6330 -0.1284
    5MOL   H116  924   7.082   0.125   5.707 -0.2093 -1.2934  1.7588
    5MOL   H117  925   6.971   0.167   5.574  0.7175 -0.3840  0.1132
    5MOL   H118  926   6.982   7.689   5.722 -1.6779  0.6297  0.4050
    5MOL   H119  927   6.854   7.733   5.614 -0.7571 -2.9382  3.3614
    5MOL   H120  928   7.152   7.720   5.548  0.9258 -2.0428 -1.5914
    5MOL   H121  929   7.019   7.736   5.433  0.0315 -1.0713 -1.0811
    5MOL   O122  930   7.033   7.546   5.530 -0.3553  0.1589  0.0656
    5MOL   C123  931   7.146   7.469   5.490  0.3796 -0.3840  0.1774
    5MOL   C124  932   7.135   7.322   5.493 -0.3058  0.2410 -0.3894
    5MOL   C125  933   7.033   7.266   5.400 -0.6555 -0.4511  0.3112
    5MOL   H126  934   7.238   7.486   5.546  1.3212 -2.3097 -0.7253
    5MOL   H127  935   7.177   7.500   5.390  2.8684 -3.3327 -0.0423
    5MOL   H128  936   7.231   7.276   5.469 -0.7818 -1.0967  0.2727
    5MOL   H129  937   7.119   7.305   5.599  0.3082 -0.9063 -0.4758
    5MOL   H130  938   7.058   7.273   5.294 -1.7612 -0.3854  0.0459
    5MOL   H131  939   6.950   7.336   5.414 -0.1778  0.4668 -1.2779
    5MOL   O132  940   6.996   7.127   5.429 -0.4718  0.2271 -0.5933
    5MOL   C133  941   6.880   7.082   5.359 -0.4356 -0.5398  0.2979
    5MOL   C134  942   6.854   6.927   5.383  0.2892  0.0674 -0.0400
    5MOL   C135  943   6.945   6.835   5.309 -0.4698  0.2224 -0.0600
    5MOL   H136  944   6.893   7.092   5.251 -1.3321 -3.3249 -0.1053
    5MOL   H137  945   6.793   7.140   5.389  1.0232  1.9265 -0.1262
    5MOL   H138  946   6.879   6.915   5.488  0.6922 -0.3577 -0.1840
    5MOL   H139  947   6.755   6.894   5.354  1.4666 -1.6241 -2.3191
    5MOL   H140  948   7.049   6.847   5.339  0.0940 -1.4992 -1.2365
    5MOL   H141  949   6.934   6.854   5.202  0.0715 -0.7356 -0.2916
    5MOL   O142  950   6.891   6.704   5.331 -1.0461  0.7330  1.0096
    5MOL   C143  951   6.976   6.616   5.253 -0.2432 -0.4308  0.4273
    5MOL   C144  952   6.944   6.473   5.257  0.4582  0.1745 -0.0738
    5MOL   C145  953   7.031   6.393   5.152  0.6374  0.5936  0.1655
    5MOL   H146  954   7.080   6.639   5.277 -0.4131 -0.3205  1.0773
    5MOL   H147  955   6.961   6.647   5.150  0.0910  2.4825  1.2056
    5MOL   H148  956   6.965   6.432   5.356  2.9818 -1.0938 -1.0658
    5MOL   H149  957   6.841   6.463   5.224  0.5460 -0.8187 -0.0547
    5MOL   H150  958   7.137   6.398   5.176  0.7375 -1.3938  0.1762
    5MOL   H151  959   7.015   6.453   5.062 -0.8124  1.1220  0.7595
    5MOL   O152  960   6.985   6.255   5.144 -0.0006 -0.4041 -0.1992
    5MOL   C153  961   6.869   6.235   5.065 -0.0201 -0.6687 -0.7517
    5MOL   C154  962   6.880   6.092   5.017 -0.1503 -1.1524  1.3550
    5MOL   C155  963   6.786   6.055   4.905 -0.4758 -1.0277  0.5348
    5MOL   H156  964   6.865   6.297   4.975 -0.5859 -1.2119 -1.1107
    5MOL   H157  965   6.779   6.236   5.126  0.9183  1.8689  0.6427
    5MOL   H158  966   6.978   6.091   4.969 -1.0489 -0.4482 -0.5617
    5MOL   H159  967   6.880   6.024   5.102 -0.4967 -0.1626  2.1529
    5MOL   H160  968   6.799   6.106   4.809  2.5469 -0.4323  1.2154
    5MOL   H161  969   6.687   6.078   4.943 -0.6989 -0.7431 -0.2128
    5MOL   O162  970   6.796   5.918   4.883  0.0771 -0.4563 -0.1391
    5MOL   C163  971   6.697   5.874   4.789  0.0517 -0.0432  0.1894
    5MOL   C164  972   6.693   5.724   4.790  0.1480  0.4419 -0.9190
    5MOL   C165  973   6.603   5.654   4.690  0.2178 -0.2156 -0.3787
    5MOL   H166  974   6.719   5.907   4.687  0.6226  1.5713  0.8084
    5MOL   H167  975   6.596   5.902   4.818 -0.4208 -1.2865 -0.2203
    5MOL   H168  976   6.791   5.689   4.758 -1.9312 -1.5286 -5.6376
    5MOL   H169  977   6.662   5.681   4.885  3.0172 -0.2317 -0.2532
    5MOL   H170  978   6.499   5.668   4.716  0.4824 -0.0079  0.5849
    5MOL   H171  979   6.623   5.547   4.695  2.0731  0.1440  0.3088
    5MOL   O172  980   6.640   5.710   4.573 -0.1173 -0.1228  0.6259
    5MOL   C173  981   6.565   5.670   4.456 -0.3764 -0.4364 -0.3433
    5MOL   C174  982   6.646   5.735   4.338 -0.0368  0.3118  0.0017
    5MOL   C175  983   6.580   5.734   4.203 -0.0198 -0.2953  0.4710
    5MOL   H176  984   6.461   5.701   4.467  0.1708  1.2943  0.0271
    5MOL   H177  985   6.563   5.562   4.438  0.7803 -0.1939 -2.0925
    5MOL   H178  986   6.676   5.837   4.362 -0.7663  0.7121 -0.7686
    5MOL   H179  987   6.744   5.688   4.331  0.1277  0.9470 -2.3476
    5MOL   H180  988   6.629   5.814   4.146 -1.3710  1.8628  2.2898
    5MOL   H181  989   6.476   5.762   4.214 -0.2307 -0.9999  0.3081
    5MOL   O182  990   6.593   5.608   4.128  0.0365  0.9568 -0.1273
    5MOL   C183  991   6.494   5.605   4.024 -0.1370  0.1811 -0.5393
    5MOL   C184  992   6.493   5.474   3.955  0.0615  0.6856 -0.2375
    5MOL   C185  993   6.435   5.354   4.040 -0.2936  0.3582  0.0510
    5MOL   H186  994   6.497   5.684   3.949 -1.4278  1.9704  1.2246
    5MOL   H187  995   6.400   5.628   4.075  0.3536 -2.3902  1.5984
    5MOL   H188  996   6.439   5.474   3.860  0.5430  2.0639 -0.5231
    5MOL   H189  997   6.598   5.451   3.932 -0.2437  1.5198 -2.6125
    5MOL   H190  998   6.334   5.368   4.077 -0.3975 -0.8730  0.2377
    5MOL   H191  999   6.494   5.336   4.129  0.5687 -0.5587 -0.6908
    5MOL   O192 1000   6.434   5.241   3.962  0.1213 -0.6023  0.0018
    5MOL   C193 1001   6.397   5.118   4.026 -0.3388 -0.7302 -0.2913
    5MOL   C194 1002   6.423   5.000   3.923 -0.2052  0.6371  0.3244
    5MOL   C195 1003   6.564   4.999   3.871  0.3519  0.0568  0.5790
    5MOL   H196 1004   6.292   5.124   4.053 -0.1060  0.5618  0.3997
    5MOL   H197 1005   6.450   5.107   4.121  1.1979 -2.9722 -1.3640
    5MOL   H198 1006   6.394   4.903   3.963  1.2394 -0.3419 -0.9830
    5MOL   H199 1007   6.356   5.022   3.840 -1.8362  0.8667  1.6762
    5MOL   H200 1008   6.565   5.007   3.762 -2.7989 -2.7830  0.2613
    5MOL   H201 1009   6.598   4.898   3.894  2.2185  0.6657  0.5367
    5MOL   H202 1010   6.627   5.075   3.916  1.2900 -0.1903 -0.3080
    6MOL     O1 1011   6.820   3.373   6.099  0.1705  0.5067  0.9669
    6MOL     C2 1012   6.770   3.359   6.236 -0.1688 -0.0690  0.7645
    6MOL     C3 1013   6.767   3.212   6.273 -0.4454  0.7212  0.3320
    6MOL     C4 1014   6.691   3.189   6.406 -0.1161  0.4613 -0.5021
    6MOL     H5 1015   6.662   3.376   6.230 -0.0217  0.7282  0.3743
    6MOL     H6 1016   6.820   3.418   6.313 -1.5288  1.8322  0.2479
    6MOL     H7 1017   6.728   3.148   6.194  1.8081  1.2122 -1.2137
    6MOL     H8 1018   6.868   3.178   6.294  0.0607  0.1548 -2.8148
    6MOL     H9 1019   6.727   3.258   6.482  1.4078  0.2618 -1.0304
    6MOL    H10 1020   6.696   3.084   6.436  2.4804 -0.4258 -3.7085
    6MOL    H11 1021   6.911   3.398   6.106  0.6630 -0.0768 -2.3574
    6MOL    O12 1022   6.548   3.209   6.382 -0.7470 -0.1431  0.1234
    6MOL    C13 1023   6.467   3.185   6.503 -0.2104 -0.7867 -0.0568
    6MOL    C14 1024   6.322   3.203   6.465 -0.3983 -0.4160  0.3929
    6MOL    C15 1025   6.223   3.164   6.574 -0.0912 -0.3316 -0.4713
    6MOL    H16 1026   6.488   3.267   6.571 -1.2365 -1.9134  1.6879
    6MOL    H17 1027   6.492   3.091   6.554  0.4994 -0.2951  0.5029
    6MOL    H18 1028   6.310   3.310   6.449 -1.5439 -0.8700 -2.2012
    6MOL    H19 1029   6.302   3.158   6.368 -2.3019  1.3789 -0.0919
    6MOL    H20 1030   6.126   3.198   6.536 -0.8171 -0.3284  1.3383
    6MOL    H21 1031   6.248   3.233   6.654  0.2207 -0.2258 -0.6619
    6MOL    O22 1032   6.243   3.023   6.593 -0.3164  0.1058  0.5426
    6MOL    C23 1033   6.160   2.963   6.696  0.5999 -0.6533  0.8638
    6MOL    C24 1034   6.184   2.811   6.709 -0.2452  0.3748  0.4803
    6MOL    C25 1035   6.095   2.756   6.822  0.6475 -0.3292 -0.3858
    6MOL    H26 1036   6.055   2.988   6.681  0.1835 -3.0891 -0.5641
    6MOL    H27 1037   6.191   3.016   6.786  0.8838 -0.6447  0.7628
    6MOL    H28 1038   6.149   2.761   6.618  1.6690 -1.0277  0.4767
    6MOL    H29 1039   6.290   2.788   6.717 -0.5603 -2.0577 -1.4580
    6MOL    H30 1040   5.989   2.762   6.797  0.3719  0.8668  0.9717
    6MOL    H31 1041   6.114   2.807   6.917  0.4190 -2.3490  0.7583
    6MOL    O32 1042   6.119   2.620   6.838  0.5192  0.3500  0.0877
    6MOL    C33 1043   6.058   2.561   6.956 -0.2371 -0.5707  0.0052
    6MOL    C34 1044   6.090   2.410   6.967 -0.1926 -0.4855  0.0079
    6MOL    C35 1045   6.023   2.351   7.103  0.0056  0.5112  0.2523
    6MOL    H36 1046   5.951   2.577   6.965 -0.1268 -0.1921  0.7427
    6MOL    H37 1047   6.101   2.613   7.042  0.3469 -0.8451 -0.1209
    6MOL    H38 1048   6.041   2.353   6.888 -4.0167 -0.5176  2.2717
    6MOL    H39 1049   6.198   2.400   6.979 -0.0177 -0.5317 -1.5159
    6MOL    H40 1050   6.047   2.412   7.190 -1.4926  1.5418 -0.0433
    6MOL    H41 1051   6.053   2.248   7.119  0.6683  0.2099 -2.6512
    6MOL    O42 1052   5.882   2.365   7.074 -0.6454  0.6020  0.0050
    6MOL    C43 1053   5.801   2.326   7.177 -0.6062  0.0477 -0.4737
    6MOL    C44 1054   5.664   2.316   7.112  0.1337 -0.4530  0.0022
    6MOL    C45 1055   5.558   2.251   7.197  0.5941  0.0876  0.1321
    6MOL    H46 1056   5.812   2.397   7.260  3.1484 -0.8347 -0.1295
    6MOL    H47 1057   5.835   2.228   7.210  2.1515  1.2774  0.4675
    6MOL    H48 1058   5.622   2.409   7.076  0.6115 -0.5541 -0.8267
    6MOL    H49 1059   5.665   2.254   7.022  2.0309 -0.7234  0.1771
    6MOL    H50 1060   5.584   2.147   7.217 -0.7249 -0.3014 -0.1026
    6MOL    H51 1061   5.476   2.238   7.126 -0.0508 -0.2558  0.9225
    6MOL    O52 1062   5.529   2.323   7.316  0.6420 -0.3040 -0.0648
    6MOL    C53 1063   5.402   2.285   7.373 -0.4394 -0.1281  0.0231
    6MOL    C54 1064   5.342   2.408   7.443 -0.0918 -0.3287 -0.2283
    6MOL    C55 1065   5.307   2.518   7.337  0.2073 -0.5250 -0.3403
    6MOL    H56 1066   5.402   2.191   7.428 -0.9637  0.4844  1.0919
    6MOL    H57 1067   5.333   2.261   7.293 -0.8805  1.6633 -0.1634
    6MOL    H58 1068   5.246   2.378   7.484  0.5613  0.8771  2.2856
    6MOL    H59 1069   5.414   2.453   7.512  0.4762 -1.8642  0.2103
    6MOL    H60 1070   5.239   2.488   7.258  0.2051  1.3656 -1.0680
    6MOL    H61 1071   5.395   2.551   7.282  0.7887 -1.3536  0.0818
    6MOL    O62 1072   5.266   2.629   7.416 -0.1650  0.4043 -0.0979
    6MOL    C63 1073   5.201   2.740   7.345  0.8305 -0.3615 -0.0569
    6MOL    C64 1074   5.288   2.811   7.251  0.3420 -0.4492  0.1504
    6MOL    C65 1075   5.222   2.949   7.216 -0.1064 -0.3183  0.0780
    6MOL    H66 1076   5.158   2.810   7.416  1.2711  0.4481 -0.5849
    6MOL    H67 1077   5.121   2.701   7.281  1.6235 -0.7855 -0.7987
    6MOL    H68 1078   5.389   2.826   7.289  0.9236 -3.7630  0.1136
    6MOL    H69 1079   5.301   2.760   7.155 -0.2610  1.9373 -1.2446
    6MOL    H70 1080   5.175   2.987   7.306 -0.9312  0.5079 -0.6942
    6MOL    H71 1081   5.137   2.927   7.152  0.4092  1.9430 -1.4559
    6MOL    O72 1082   5.325   3.031   7.157 -0.2409  0.3712 -0.4976
    6MOL    C73 1083   5.257   3.129   7.088 -0.4743  0.2444  0.4067
    6MOL    C74 1084   5.361   3.214   7.000  0.1091  0.2480 -0.3976
    6MOL    C75 1085   5.293   3.311   6.909 -0.5299 -0.5879 -0.6703
    6MOL    H76 1086   5.210   3.198   7.158 -1.8084 -0.1696 -0.0692
    6MOL    H77 1087   5.190   3.087   7.013 -0.3171  1.2592 -0.3131
    6MOL    H78 1088   5.422   3.275   7.067 -0.4103  0.1292  0.1876
    6MOL    H79 1089   5.433   3.144   6.957 -0.5709 -0.7820  0.1318
    6MOL    H80 1090   5.231   3.383   6.963  0.6624 -0.9976  1.2940
    6MOL    H81 1091   5.248   3.244   6.835  0.7011 -0.5416 -1.4948
    6MOL    O82 1092   5.392   3.384   6.832  0.0443  0.2154  0.1964
    6MOL    C83 1093   5.334   3.468   6.729  0.3112 -0.3681 -0.9354
    6MOL    C84 1094   5.442   3.547   6.649  0.6812 -0.1333  0.1038
    6MOL    C85 1095   5.381   3.589   6.514  0.0539 -0.4321  0.6693
    6MOL    H86 1096   5.253   3.530   6.768 -0.0117 -0.1474 -1.9444
    6MOL    H87 1097   5.285   3.403   6.658  0.7261 -1.4828 -0.2063
    6MOL    H88 1098   5.482   3.625   6.713 -1.3365  1.4835 -0.5307
    6MOL    H89 1099   5.528   3.483   6.630  1.0373  1.1443 -2.9147
    6MOL    H90 1100   5.347   3.497   6.465  0.8451 -1.8830  2.7534
    6MOL    H91 1101   5.469   3.622   6.459 -1.4351  0.0867 -1.4928
    6MOL    O92 1102   5.285   3.698   6.528  0.1240 -0.9775  0.5916
    6MOL    C93 1103   5.242   3.758   6.407 -0.2253  0.4954 -0.7850
    6MOL    C94 1104   5.134   3.861   6.429  0.1426 -0.3199 -0.6752
    6MOL    C95 1105   5.009   3.792   6.479 -0.2812  0.6802  0.3485
    6MOL    H96 1106   5.211   3.677   6.342 -0.4109 -0.8985  0.9988
    6MOL    H97 1107   5.315   3.819   6.354  1.8388 -1.9001 -0.7529
    6MOL    H98 1108   5.157   3.938   6.503 -3.0732 -0.8370  0.9686
    6MOL    H99 1109   5.116   3.903   6.330 -1.4197 -1.4222 -0.8854
    6MOL   H100 1110   4.931   3.866   6.499 -0.2123  0.1141  2.9110
    6MOL   H101 1111   5.030   3.746   6.576 -1.9392 -0.5607  0.1500
    6MOL   O102 1112   4.942   3.707   6.390  0.1635  0.8664 -0.3931
    6MOL   C103 1113   4.840   3.635   6.457  0.4813  0.1538  0.5623
    6MOL   C104 1114   4.779   3.526   6.374  0.2323  0.2326 -0.6793
    6MOL   C105 1115   4.658   3.457   6.430  0.2634  0.0405 -0.2193
    6MOL   H106 1116   4.754   3.702   6.465 -0.2531 -0.8732  1.4362
    6MOL   H107 1117   4.866   3.592   6.554  2.6445 -2.4395 -1.0824
    6MOL   H108 1118   4.760   3.579   6.281  0.6787  0.5513 -0.5878
    6MOL   H109 1119   4.867   3.464   6.355  0.0301  0.1260 -1.2743
    6MOL   H110 1120   4.586   3.534   6.457  0.4639  0.2513 -0.2855
    6MOL   H111 1121   4.689   3.399   6.517  2.1857  2.6800  0.9133
    6MOL   O112 1122   4.596   3.368   6.341 -0.4255 -0.5759 -0.3501
    6MOL   C113 1123   4.522   3.433   6.239  0.3844 -0.2020  0.8713
    6MOL   C114 1124   4.434   3.334   6.165 -0.4640 -0.5802 -0.4998
    6MOL   C115 1125   4.346   3.390   6.049 -0.0192  0.2542 -0.1758
    6MOL   H116 1126   4.589   3.475   6.165 -0.3564  3.2226  2.0424
    6MOL   H117 1127   4.461   3.511   6.286  0.1440 -0.0710  0.3410
    6MOL   H118 1128   4.500   3.259   6.121 -1.1549 -1.6782  0.2949
    6MOL   H119 1129   4.379   3.271   6.236 -0.1026 -0.7991 -0.4098
    6MOL   H120 1130   4.290   3.301   6.020 -0.7323  0.1816  1.3681
    6MOL   H121 1131   4.404   3.427   5.965 -0.6235 -0.3451 -0.8664
    6MOL   O122 1132   4.267   3.487   6.119 -0.5337 -0.1636 -0.0644
    6MOL   C123 1133   4.163   3.523   6.034 -0.2118 -0.3000  0.1632
    6MOL   C124 1134   4.076   3.625   6.104  0.4745  0.4718 -0.3033
    6MOL   C125 1135   3.982   3.692   6.003  0.3918  0.7960 -0.5446
    6MOL   H126 1136   4.105   3.435   6.007 -4.3525  2.8418 -1.7579
    6MOL   H127 1137   4.201   3.564   5.940  0.5011  1.0046  1.0099
    6MOL   H128 1138   4.013   3.563   6.167  0.3725  0.4421 -0.4326
    6MOL   H129 1139   4.121   3.692   6.177  1.3920 -1.7848  1.2655
    6MOL   H130 1140   3.933   3.613   5.947  0.2689  1.2602 -1.0968
    6MOL   H131 1141   4.034   3.754   5.930 -0.1613 -0.3800 -1.9494
    6MOL   O132 1142   3.885   3.763   6.073 -0.1289 -0.2942 -0.7472
    6MOL   C133 1143   3.801   3.839   5.985 -0.7908  0.9736  0.3907
    6MOL   C134 1144   3.647   3.805   5.979 -0.4011 -0.4321  0.6145
    6MOL   C135 1145   3.578   3.820   6.114  0.9932 -0.3097  0.2522
    6MOL   H136 1146   3.842   3.855   5.885  0.8444 -0.9595  0.7231
    6MOL   H137 1147   3.791   3.940   6.023 -0.6345  0.3725  2.0908
    6MOL   H138 1148   3.601   3.869   5.904  2.0193 -0.0609 -0.6171
    6MOL   H139 1149   3.623   3.710   5.932  2.7023 -1.2786  0.6353
    6MOL   H140 1150   3.560   3.927   6.123 -2.2228 -0.8386  0.5572
    6MOL   H141 1151   3.639   3.805   6.203 -2.7799 -3.3705  2.4834
    6MOL   O142 1152   3.458   3.741   6.121 -0.5939  0.2286  0.3691
    6MOL   C143 1153   3.382   3.780   6.228 -0.3413  1.0916  0.5806
    6MOL   C144 1154   3.259   3.689   6.252  0.4795  0.2354  0.0961
    6MOL   C145 1155   3.157   3.748   6.346 -0.5584  0.7802  0.4269
    6MOL   H146 1156   3.351   3.879   6.194  2.1392  1.6663 -0.0775
    6MOL   H147 1157   3.444   3.793   6.317 -0.4977 -1.3523  1.0879
    6MOL   H148 1158   3.206   3.665   6.159 -0.2267 -0.6200  0.7155
    6MOL   H149 1159   3.293   3.594   6.293  2.9249  1.4938  1.0950
    6MOL   H150 1160   3.133   3.848   6.312 -1.5367  0.7195  0.9302
    6MOL   H151 1161   3.192   3.753   6.449 -1.5381 -0.7441  0.8575
    6MOL   O152 1162   3.030   3.682   6.339 -0.2374  0.1779  0.5419
    6MOL   C153 1163   2.943   3.731   6.436 -0.0186 -0.1189  0.0523
    6MOL   C154 1164   2.823   3.654   6.438 -0.2802 -0.3953  0.7033
    6MOL   C155 1165   2.700   3.706   6.509  0.4910 -0.5533  0.0101
    6MOL   H156 1166   2.933   3.839   6.436 -0.3126 -0.1156 -2.5794
    6MOL   H157 1167   2.989   3.727   6.535  1.2335 -1.3888 -0.5598
    6MOL   H158 1168   2.791   3.628   6.337 -0.1318 -0.2151  0.6096
    6MOL   H159 1169   2.852   3.559   6.482  0.6518  0.1670  1.3132
    6MOL   H160 1170   2.608   3.655   6.480  0.3650  0.4004 -1.2940
    6MOL   H161 1171   2.684   3.811   6.483  2.3174 -0.3699 -0.3784
    6MOL   O162 1172   2.722   3.690   6.650 -0.0493  0.0536 -0.0352
    6MOL   C163 1173   2.624   3.733   6.739 -0.1140  0.6122  0.5238
    6MOL   C164 1174   2.660   3.662   6.869 -0.1208  0.1080  0.1132
    6MOL   C165 1175   2.591   3.727   6.994  0.8077 -0.0315  0.0220
    6MOL   H166 1176   2.522   3.700   6.720  0.2334 -0.2751  0.1849
    6MOL   H167 1177   2.626   3.840   6.760  0.5870  0.3767  1.7251
    6MOL   H168 1178   2.622   3.560   6.870 -1.8262  0.7281  1.0208
    6MOL   H169 1179   2.768   3.646   6.869 -0.2011 -0.5921 -1.6290
    6MOL   H170 1180   2.583   3.649   7.069 -1.3212 -0.0976 -0.2656
    6MOL   H171 1181   2.490   3.761   6.972 -0.3867 -1.4127  3.1554
    6MOL   O172 1182   2.682   3.828   7.041  0.5914 -0.3987  0.0169
    6MOL   C173 1183   2.619   3.897   7.152 -0.3887 -0.0246  0.3592
    6MOL   C174 1184   2.715   4.009   7.193 -0.2544  0.0165 -0.3069
    6MOL   C175 1185   2.652   4.105   7.297  0.3168 -0.6344  0.2813
    6MOL   H176 1186   2.580   3.831   7.230  1.7994 -1.6895  0.0958
    6MOL   H177 1187   2.531   3.942   7.107  1.0216  1.3678 -1.0865
    6MOL   H178 1188   2.802   3.967   7.243 -1.0103  0.3837  1.3919
    6MOL   H179 1189   2.745   4.063   7.104  1.1317  2.9785  1.8699
    6MOL   H180 1190   2.626   4.058   7.392 -1.0258 -3.0386 -1.2206
    6MOL   H181 1191   2.556   4.143   7.259  1.2741  1.4345 -0.1358
    6MOL   O182 1192   2.747   4.215   7.313  0.3433 -0.4375 -0.2102
    6MOL   C183 1193   2.708   4.321   7.401  0.1861  0.7159  0.0244
    6MOL   C184 1194   2.636   4.438   7.327 -0.3399  0.2618 -0.6139
    6MOL   C185 1195   2.601   4.557   7.411  0.1289 -0.6812  0.1489
    6MOL   H186 1196   2.794   4.361   7.455  1.7193 -1.8096 -0.4480
    6MOL   H187 1197   2.640   4.280   7.475  0.8660  1.6143  1.1647
    6MOL   H188 1198   2.711   4.459   7.252  0.6576 -1.9198 -0.2575
    6MOL   H189 1199   2.548   4.404   7.272 -0.3655  1.1705 -1.1496
    6MOL   H190 1200   2.691   4.591   7.461 -0.8214 -0.3291  1.6509
    6MOL   H191 1201   2.534   4.537   7.494 -0.2641 -1.2382 -0.2956
    6MOL   O192 1202   2.552   4.654   7.321 -0.6096 -0.6403 -0.0593
    6MOL   C193 1203   2.509   4.782   7.379  0.8296  0.8073  0.9303
    6MOL   C194 1204   2.523   4.892   7.269  0.0267 -0.6534 -0.9661
    6MOL   C195 1205   2.661   4.906   7.214 -0.0899 -0.3380 -0.0484
    6MOL   H196 1206   2.572   4.795   7.467  0.3500 -0.3408  1.4556
    6MOL   H197 1207   2.404   4.776   7.409 -0.1271  2.5657 -1.8396
    6MOL   H198 1208   2.455   4.848   7.195  0.6173 -1.2071 -1.1856
    6MOL   H199 1209   2.490   4.993   7.294  0.7124 -0.3303 -1.3610
    6MOL   H200 1210   2.681   4.840   7.130 -1.5760 -4.0880  2.4130
    6MOL   H201 1211   2.751   4.912   7.277 -0.0916  0.7680 -0.1243
    6MOL   H202 1212   2.659   5.001   7.159  0.2586 -0.8243 -0.9099
    7MOL     O1 1213   1.202   4.948   7.070  0.0703 -0.4996  0.6227
    7MOL     C2 1214   1.097   5.026   7.122  0.5203  0.3501 -0.2526
    7MOL     C3 1215   1.146   5.137   7.211  0.4349  0.1447  0.3156
    7MOL     C4 1216   1.027   5.215   7.259 -0.6044  0.3613  0.0268
    7MOL     H5 1217   1.033   4.962   7.182 -0.5821  0.9670 -0.7492
    7MOL     H6 1218   1.043   5.064   7.035 -1.0216 -0.0967  0.4909
    7MOL     H7 1219   1.201   5.099   7.297 -1.7790  0.2587  1.8167
    7MOL     H8 1220   1.205   5.210   7.155  1.8159 -0.0108  1.5410
    7MOL     H9 1221   0.962   5.153   7.320 -3.6265  1.5452 -1.9128
    7MOL    H10 1222   0.973   5.254   7.173 -0.2646 -0.3640 -0.5227
    7MOL    H11 1223   1.251   4.908   7.140 -0.2725 -0.8396  0.6683
    7MOL    O12 1224   1.084   5.315   7.338  0.0744 -0.0686 -0.4162
    7MOL    C13 1225   0.994   5.400   7.396  0.1262  0.0146 -0.1141
    7MOL    C14 1226   0.934   5.338   7.533  0.4193 -0.2141 -0.1306
    7MOL    C15 1227   0.841   5.435   7.612 -0.2281 -0.8596  0.2047
    7MOL    H16 1228   0.907   5.434   7.339 -0.2581 -1.4908 -0.4409
    7MOL    H17 1229   1.052   5.485   7.433  1.9508 -1.3030  0.1372
    7MOL    H18 1230   0.873   5.251   7.511  0.1718  0.1916 -1.0611
    7MOL    H19 1231   1.016   5.294   7.590  0.0418 -0.0937  0.5106
    7MOL    H20 1232   0.759   5.464   7.546 -0.3948 -1.1197  0.2963
    7MOL    H21 1233   0.894   5.527   7.637 -2.7053  0.9875 -1.0556
    7MOL    O22 1234   0.790   5.370   7.726 -0.3983  0.0901  0.0285
    7MOL    C23 1235   0.819   5.432   0.061  0.0179  0.4243  0.4923
    7MOL    C24 1236   0.739   5.353   0.160 -0.3629 -0.3092 -0.5003
    7MOL    C25 1237   0.800   5.220   0.209  0.1433  0.4669 -0.6387
    7MOL    H26 1238   0.780   5.534   0.066 -0.1756  0.3685  0.1580
    7MOL    H27 1239   0.927   5.430   0.076 -0.1882  1.7871  2.4290
    7MOL    H28 1240   0.713   5.434   0.228  0.3490  0.8085 -1.5367
    7MOL    H29 1241   0.641   5.336   0.116 -0.8393  0.5409  0.2003
    7MOL    H30 1242   0.815   5.166   0.115  0.2383  0.7074 -0.7632
    7MOL    H31 1243   0.732   5.159   0.268 -1.1294  1.4042 -1.1055
    7MOL    O32 1244   0.930   5.254   0.260 -0.1087 -0.4947 -0.2667
    7MOL    C33 1245   1.013   5.143   0.292 -0.0716  0.4729 -0.2342
    7MOL    C34 1246   1.055   5.047   0.173 -1.0902 -0.1479 -0.5982
    7MOL    C35 1247   1.114   5.120   0.052  0.1905 -0.2044  0.5810
    7MOL    H36 1248   0.976   5.081   0.374  2.0428 -0.9061 -0.2748
    7MOL    H37 1249   1.101   5.187   0.339  1.0546 -1.2788 -0.6628
    7MOL    H38 1250   1.113   4.964   0.211 -0.5038  0.8218  0.6605
    7MOL    H39 1251   0.968   4.989   0.141 -1.2852  1.2029 -2.6182
    7MOL    H40 1252   1.161   5.210   0.093  3.2672 -1.2797 -0.4081
    7MOL    H41 1253   1.033   5.149   7.774  1.3151  1.8587  0.0372
    7MOL    O42 1254   1.196   5.026   7.762 -0.4504 -0.0060 -0.7109
    7MOL    C43 1255   1.278   5.105   7.679 -0.4071  0.0158 -0.3454
    7MOL    C44 1256   1.368   5.026   7.588  0.3728 -0.3116  0.9005
    7MOL    C45 1257   1.459   4.928   7.664 -0.0952 -0.4152 -0.1791
    7MOL    H46 1258   1.339   5.174   7.738 -1.6509  0.7046  0.1462
    7MOL    H47 1259   1.210   5.173   7.628  0.1199  1.5307  0.9166
    7MOL    H48 1260   1.311   4.968   7.516  1.0827  1.5522 -1.1741
    7MOL    H49 1261   1.429   5.092   7.527 -0.3982  0.4339  0.9261
    7MOL    H50 1262   1.403   4.856   7.724  0.1824 -1.2464 -0.8960
    7MOL    H51 1263   1.509   4.987   7.741 -0.7606  0.5431 -0.4844
    7MOL    O52 1264   1.534   4.876   7.555 -0.2444 -0.4790 -0.0178
    7MOL    C53 1265   1.661   4.828   7.596 -0.0081 -0.0302 -0.3418
    7MOL    C54 1266   1.750   4.786   7.482 -0.3869 -0.0384  0.0275
    7MOL    C55 1267   1.899   4.762   7.531 -0.0877 -0.0144  0.4465
    7MOL    H56 1268   1.657   4.745   7.665  0.7843 -0.1621 -0.4497
    7MOL    H57 1269   1.718   4.905   7.648 -1.4731 -0.2612  1.6532
    7MOL    H58 1270   1.707   4.704   7.424 -1.9432 -0.4570  1.7060
    7MOL    H59 1271   1.758   4.865   7.408 -0.5825  3.9537  4.0559
    7MOL    H60 1272   1.905   4.681   7.604 -2.7818  0.7510  1.5889
    7MOL    H61 1273   1.934   4.856   7.575  1.0277 -0.6317  0.8958
    7MOL    O62 1274   1.981   4.716   7.425  0.2665  0.2494  0.0738
    7MOL    C63 1275   2.014   4.821   7.334  0.4428  0.1704 -0.6358
    7MOL    C64 1276   2.112   4.780   7.229  0.3518  0.4475 -0.3114
    7MOL    C65 1277   2.153   4.897   7.148  0.5272  0.3867  0.3423
    7MOL    H66 1278   2.046   4.914   7.380  0.4288  0.2039 -0.6957
    7MOL    H67 1279   1.925   4.851   7.279 -1.8908 -3.5685  0.8927
    7MOL    H68 1280   2.202   4.737   7.275 -1.0079 -0.5004  1.5416
    7MOL    H69 1281   2.072   4.709   7.157 -0.1994 -0.7858  1.1897
    7MOL    H70 1282   2.211   4.956   7.219 -0.2030  1.2260  0.2494
    7MOL    H71 1283   2.071   4.958   7.111  1.1486  0.2320 -1.3296
    7MOL    O72 1284   2.237   4.847   7.041 -0.1707 -0.1292 -0.1394
    7MOL    C73 1285   2.284   4.946   6.962 -0.8557  0.5761  0.0381
    7MOL    C74 1286   2.353   4.872   6.842 -0.0352 -0.0804  0.1432
    7MOL    C75 1287   2.478   4.798   6.878  0.6622  0.3361 -0.2905
    7MOL    H76 1288   2.356   4.994   7.028  0.0082  2.9762 -2.5798
    7MOL    H77 1289   2.207   5.016   6.931 -3.1119 -0.9685  1.9305
    7MOL    H78 1290   2.282   4.812   6.785 -0.4081 -0.1428  0.6692
    7MOL    H79 1291   2.389   4.953   6.778 -1.1369  0.3734  0.0785
    7MOL    H80 1292   2.463   4.727   6.959  0.5494 -1.0321 -1.4888
    7MOL    H81 1293   2.560   4.857   6.919 -0.2265  0.2464  1.6943
    7MOL    O82 1294   2.513   4.727   6.765 -0.2915 -0.0177 -0.0766
    7MOL    C83 1295   2.617   4.790   6.691  0.3867  0.3945  0.1759
    7MOL    C84 1296   2.616   4.739   6.541  0.4015  0.3842 -0.0864
    7MOL    C85 1297   2.681   4.603   6.534 -0.0761  0.4669 -0.1614
    7MOL    H86 1298   2.719   4.774   6.727  0.3768 -0.1545 -0.0265
    7MOL    H87 1299   2.603   4.898   6.696  0.8840  0.4617  0.1996
    7MOL    H88 1300   2.515   4.733   6.501  0.9408 -2.9475 -1.0397
    7MOL    H89 1301   2.658   4.811   6.470 -2.2194  2.0442 -0.0531
    7MOL    H90 1302   2.639   4.545   6.453  0.6293 -0.7344  0.3212
    7MOL    H91 1303   2.657   4.546   6.624 -1.4645  1.4358  0.0951
    7MOL    O92 1304   2.825   4.633   6.543  0.5435 -0.2338  0.4541
    7MOL    C93 1305   2.906   4.517   6.522 -0.3343  0.0879 -0.6061
    7MOL    C94 1306   3.054   4.556   6.545  0.6607  0.4137 -0.0662
    7MOL    C95 1307   3.138   4.427   6.561  0.0567  0.6823 -0.8729
    7MOL    H96 1308   2.884   4.468   6.427  0.5349  2.4754 -2.0964
    7MOL    H97 1309   2.867   4.453   6.601 -2.6212  3.2789  0.9679
    7MOL    H98 1310   3.070   4.609   6.451 -2.6064  0.1602 -0.8362
    7MOL    H99 1311   3.066   4.628   6.625 -0.4950  0.1279  0.3735
    7MOL   H100 1312   3.108   4.352   6.488 -0.4187  0.2540 -0.2418
    7MOL   H101 1313   3.116   4.386   6.660  1.1713  1.1213 -0.4358
    7MOL   O102 1314   3.281   4.464   6.536  0.0686 -0.2612 -0.2235
    7MOL   C103 1315   3.371   4.455   6.650  0.3492  0.5699  0.6369
    7MOL   C104 1316   3.363   4.571   6.748  0.4459 -0.3292  0.2416
    7MOL   C105 1317   3.414   4.703   6.682 -0.4460 -0.3133  0.1324
    7MOL   H106 1318   3.473   4.462   6.611  0.1584 -1.6749 -0.3969
    7MOL   H107 1319   3.368   4.365   6.712 -2.3437  0.2390  0.1016
    7MOL   H108 1320   3.257   4.579   6.771  0.2166  1.8902 -1.3912
    7MOL   H109 1321   3.416   4.551   6.841 -1.3892  3.1235  2.1416
    7MOL   H110 1322   3.359   4.719   6.590 -0.1705  1.1092  0.2021
    7MOL   H111 1323   3.517   4.691   6.648 -0.3385  0.9377 -0.0403
    7MOL   O112 1324   3.402   4.809   6.774  0.3802 -0.0375 -0.1297
    7MOL   C113 1325   3.456   4.922   6.708 -0.2695  0.8129 -0.0811
    7MOL   C114 1326   3.383   5.037   6.778 -0.1732 -0.4659  0.4926
    7MOL   C115 1327   3.392   5.169   6.711 -0.3229 -0.2085 -0.1136
    7MOL   H116 1328   3.435   4.920   6.601  0.3380  3.0865 -0.2676
    7MOL   H117 1329   3.564   4.923   6.724 -0.2901  2.0986  0.0416
    7MOL   H118 1330   3.276   5.021   6.763 -0.2354  1.4240 -1.3882
    7MOL   H119 1331   3.401   5.036   6.886  0.5137  3.5851  0.5116
    7MOL   H120 1332   3.363   5.164   6.606 -0.3426  0.7138 -0.1544
    7MOL   H121 1333   3.489   5.216   6.728 -0.8814  0.7994  0.2911
    7MOL   O122 1334   3.288   5.249   6.775 -0.1803  0.8580 -0.4860
    7MOL   C123 1335   3.290   5.390   6.738  0.2058  0.2875 -0.2237
    7MOL   C124 1336   3.154   5.451   6.772  0.4365 -0.5113  0.3162
    7MOL   C125 1337   3.135   5.605   6.748  0.5106  1.0042 -0.2540
    7MOL   H126 1338   3.300   5.409   6.631 -1.1875  2.2549 -0.0339
    7MOL   H127 1339   3.372   5.447   6.782  1.4853 -0.1357 -2.0114
    7MOL   H128 1340   3.065   5.408   6.726 -0.6337  2.5453 -0.5724
    7MOL   H129 1341   3.139   5.432   6.878  1.8883  1.8174  0.9905
    7MOL   H130 1342   3.213   5.658   6.802 -0.7449  1.6421  0.9835
    7MOL   H131 1343   3.035   5.630   6.784 -1.2681 -3.5466 -1.5929
    7MOL   O132 1344   3.131   5.635   6.609  0.4160 -0.2636 -0.1132
    7MOL   C133 1345   3.093   5.771   6.578 -0.7325 -0.2125 -0.3796
    7MOL   C134 1346   3.189   5.880   6.629  0.6220 -0.0095  0.0523
    7MOL   C135 1347   3.190   6.015   6.553  0.8688 -0.1108 -0.5482
    7MOL   H136 1348   2.992   5.795   6.612 -0.1401  1.8281 -0.0003
    7MOL   H137 1349   3.094   5.767   6.469  0.3917  1.1634 -0.4380
    7MOL   H138 1350   3.184   5.904   6.736  1.3336  1.1608 -0.1590
    7MOL   H139 1351   3.287   5.833   6.616  0.3206 -1.2895  2.0979
    7MOL   H140 1352   3.192   5.979   6.450  1.5473 -1.6648 -0.0007
    7MOL   H141 1353   3.282   6.070   6.570  1.4604 -1.0852 -0.5838
    7MOL   O142 1354   3.077   6.088   6.584  0.0237 -0.0342 -0.3212
    7MOL   C143 1355   3.061   6.187   6.488 -0.4110 -0.5068  0.1054
    7MOL   C144 1356   2.946   6.285   6.519  0.1933 -0.6115  0.0443
    7MOL   C145 1357   2.912   6.374   6.399 -0.2620  0.4997  0.8627
    7MOL   H146 1358   3.050   6.140   6.390  0.5149 -1.8244  0.6196
    7MOL   H147 1359   3.151   6.249   6.491 -1.1038  0.4988  0.2988
    7MOL   H148 1360   2.855   6.240   6.559 -0.0047  1.1238  1.6466
    7MOL   H149 1361   2.987   6.352   6.596  3.0306 -1.7334 -0.4153
    7MOL   H150 1362   3.005   6.420   6.365  0.6758 -0.6907  1.8015
    7MOL   H151 1363   2.846   6.455   6.430 -2.7438 -0.3563 -2.0115
    7MOL   O152 1364   2.852   6.299   6.297  0.2646 -0.1681 -0.6743
    7MOL   C153 1365   2.827   6.370   6.179  0.6776  0.3593 -0.1043
    7MOL   C154 1366   2.749   6.503   6.197 -0.1420  0.1641  0.5475
    7MOL   C155 1367   2.712   6.583   6.069  0.2139  0.2741 -0.9170
    7MOL   H156 1368   2.785   6.300   6.107 -1.7736  0.2910  1.3307
    7MOL   H157 1369   2.922   6.393   6.131  0.4336 -0.9878 -1.2950
    7MOL   H158 1370   2.664   6.477   6.260  0.3687  2.9490  2.4440
    7MOL   H159 1371   2.797   6.576   6.262 -0.8255  0.2936  0.9082
    7MOL   H160 1372   2.641   6.527   6.008  0.2032 -1.2359  0.4719
    7MOL   H161 1373   2.800   6.617   6.013  1.6699 -0.7146  0.7388
    7MOL   O162 1374   2.651   6.712   6.100  0.4412  0.0749  0.1975
    7MOL   C163 1375   2.620   6.787   5.980  0.2628 -0.4038 -0.5205
    7MOL   C164 1376   2.537   6.907   6.021 -0.2592 -0.1909  1.0030
    7MOL   C165 1377   2.505   6.985   5.891  0.4307  0.0368  0.1444
    7MOL   H166 1378   2.569   6.728   5.904  0.0261  1.4036 -1.7855
    7MOL   H167 1379   2.708   6.826   5.929  1.9611 -4.5649 -0.9762
    7MOL   H168 1380   2.448   6.893   6.083  0.5745  0.0405  2.2781
    7MOL   H169 1381   2.584   6.975   6.092 -1.1924  0.6820  0.8022
    7MOL   H170 1382   2.451   6.926   5.817 -1.5524 -0.3368  1.8292
    7MOL   H171 1383   2.592   7.032   5.846 -0.6131  0.3788 -1.5806
    7MOL   O172 1384   2.444   7.097   5.941 -0.6357  0.0622 -0.2830
    7MOL   C173 1385   2.413   7.195   5.834 -0.0332  0.3238  0.4378
    7MOL   C174 1386   2.325   7.316   5.887  0.2932 -0.0235  0.3310
    7MOL   C175 1387   2.406   7.398   5.978  0.2168 -0.1466  0.9791
    7MOL   H176 1388   2.355   7.136   5.764 -1.3917  2.5914 -0.4169
    7MOL   H177 1389   2.504   7.221   5.779  0.0632 -0.3712  0.2662
    7MOL   H178 1390   2.295   7.380   5.804  1.9834 -1.8781 -1.8051
    7MOL   H179 1391   2.237   7.278   5.939  1.8876 -2.7041  1.1766
    7MOL   H180 1392   2.500   7.417   5.927 -0.3600  1.0928  0.3616
    7MOL   H181 1393   2.424   7.336   6.066  2.8243 -0.8941 -0.0507
    7MOL   O182 1394   2.333   7.516   6.026 -0.3243 -0.5372 -0.5705
    7MOL   C183 1395   2.401   7.620   6.086  0.7660  0.0438  0.5959
    7MOL   C184 1396   2.395   7.614   6.239  0.4685  0.0228  0.7332
    7MOL   C185 1397   2.468   7.727   6.308  0.0733  0.5428 -0.4361
    7MOL   H186 1398   2.385   7.715   6.034 -0.3819 -0.0993  0.6711
    7MOL   H187 1399   2.508   7.602   6.073  0.8111  0.7674 -0.0584
    7MOL   H188 1400   2.295   7.604   6.280  1.1458 -0.6758  2.2357
    7MOL   H189 1401   2.438   7.519   6.270 -2.2649 -1.9923 -1.4426
    7MOL   H190 1402   2.449   0.034   6.258  1.2487  0.7061 -0.5937
    7MOL   H191 1403   2.573   7.711   6.285  0.1716  1.4465 -0.6304
    7MOL   O192 1404   2.424   7.751   6.442 -0.2264 -0.2615 -0.4933
    7MOL   C193 1405   2.428   7.646   6.538 -0.1833  0.0309  0.0657
    7MOL   C194 1406   2.387   7.692   6.674 -0.4533  0.2338 -0.1706
    7MOL   C195 1407   2.351   7.566   6.758 -0.0609 -0.7326  0.9647
    7MOL   H196 1408   2.527   7.601   6.546 -0.1208  0.4079  1.6577
    7MOL   H197 1409   2.363   7.567   6.501  0.0550  0.2684 -0.8939
    7MOL   H198 1410   2.469   7.753   6.712  0.3646  1.3816 -3.6000
    7MOL   H199 1411   2.292   7.744   6.662 -1.2137 -1.0458  0.1280
    7MOL   H200 1412   2.435   7.505   6.789 -0.1371 -1.7613 -0.7969
    7MOL   H201 1413   2.279   7.497   6.714  0.4740 -0.7821  0.1650
    7MOL   H202 1414   2.295   7.586   6.849  0.1703  0.4352  0.8613
    8MOL     O1 1415   1.915   3.049   0.139 -0.0894 -0.3489  0.4039
    8MOL     C2 1416   1.914   3.193   0.167  0.5787  0.2141 -0.0011
    8MOL     C3 1417   1.880   3.238   0.311  0.6790 -0.1855  0.3754
    8MOL     C4 1418   1.909   3.391   0.332 -0.3031 -0.3413  0.2491
    8MOL     H5 1419   1.842   3.239   0.100  0.0757 -0.1148  0.3155
    8MOL     H6 1420   2.008   3.237   0.132 -0.3660  0.3479 -2.4708
    8MOL     H7 1421   1.780   3.200   0.329 -0.2018  0.3231 -3.0769
    8MOL     H8 1422   1.944   3.181   0.378  0.7231  0.8508  1.2247
    8MOL     H9 1423   1.894   3.430   0.433 -1.8794  2.0794 -0.8803
    8MOL    H10 1424   1.843   3.448   0.267 -0.0445 -1.4067 -0.9679
    8MOL    H11 1425   1.952   3.044   0.052 -0.6837  0.2130  0.1166
    8MOL    O12 1426   2.042   3.405   0.301 -0.1710  0.0949 -0.3835
    8MOL    C13 1427   2.103   3.533   0.294  0.4173 -0.5766 -0.6260
    8MOL    C14 1428   2.252   3.519   0.259  0.0145  0.3611  0.0370
    8MOL    C15 1429   2.277   3.445   0.126 -0.0089 -0.3695  0.1062
    8MOL    H16 1430   2.101   3.586   0.389 -0.5656 -0.8230 -0.5099
    8MOL    H17 1431   2.046   3.600   0.230 -0.7347 -2.6647 -1.8314
    8MOL    H18 1432   2.303   3.615   0.257  2.2073 -0.7654  0.1821
    8MOL    H19 1433   2.302   3.462   0.337  0.7348 -0.8507 -1.2974
    8MOL    H20 1434   2.242   3.342   0.121 -0.0376 -0.2993 -1.3241
    8MOL    H21 1435   2.384   3.435   0.108 -0.2423 -0.0643 -1.5344
    8MOL    O22 1436   2.213   3.512   0.018 -0.0015 -0.1570 -0.6012
    8MOL    C23 1437   2.207   3.459   7.675 -0.0590 -0.2828  0.1720
    8MOL    C24 1438   2.060   3.453   7.636  0.0996  0.4210 -0.5493
    8MOL    C25 1439   2.034   3.406   7.492 -0.3624  0.0017 -0.1654
    8MOL    H26 1440   2.241   3.356   7.665  0.3630 -0.0870 -0.3972
    8MOL    H27 1441   2.264   3.517   7.603  0.9918 -1.7544 -0.2075
    8MOL    H28 1442   2.001   3.399   7.710 -2.0934  1.4291 -1.4953
    8MOL    H29 1443   2.014   3.552   7.641 -2.8928 -0.9513 -0.0474
    8MOL    H30 1444   2.091   3.315   7.474  2.0276  1.3895  0.1052
    8MOL    H31 1445   2.074   3.477   7.419 -2.1824  0.1462 -1.0600
    8MOL    O32 1446   1.893   3.389   7.478 -0.0968  0.0484 -0.0819
    8MOL    C33 1447   1.845   3.377   7.345  0.8100 -0.1388 -0.5441
    8MOL    C34 1448   1.697   3.324   7.348 -0.2136 -0.0317 -0.1707
    8MOL    C35 1449   1.604   3.425   7.411  0.1448  0.3023  0.6371
    8MOL    H36 1450   1.901   3.302   7.290  0.8016  0.1394 -0.9334
    8MOL    H37 1451   1.858   3.473   7.294  1.6388 -0.1371 -0.3231
    8MOL    H38 1452   1.652   3.289   7.255  0.7960  1.9082 -1.4119
    8MOL    H39 1453   1.691   3.232   7.407 -0.1233  1.3081  1.9574
    8MOL    H40 1454   1.631   3.526   7.380  0.7171  0.3938  1.4338
    8MOL    H41 1455   1.621   3.444   7.517  1.9814  1.7313  0.1180
    8MOL    O42 1456   1.469   3.395   7.378  0.5841 -0.2293  0.1025
    8MOL    C43 1457   1.400   3.319   7.469  0.4041  0.8938 -0.6033
    8MOL    C44 1458   1.336   3.415   7.569  0.9912 -0.2401  0.1997
    8MOL    C45 1459   1.238   3.338   7.663 -0.2642  0.1394 -0.4230
    8MOL    H46 1460   1.465   3.254   7.527  1.4741  0.9248 -1.7476
    8MOL    H47 1461   1.322   3.258   7.424 -0.4053  1.5098 -0.0738
    8MOL    H48 1462   1.405   3.484   7.617 -1.1555  2.5884 -0.6188
    8MOL    H49 1463   1.288   3.495   7.511  3.5931  0.0898 -1.5663
    8MOL    H50 1464   1.290   3.262   7.721  0.6392  0.8438 -0.3037
    8MOL    H51 1465   1.157   3.285   7.612 -2.0126  1.7418  0.5919
    8MOL    O52 1466   1.184   3.424   7.757  0.0860  0.5560 -0.1155
    8MOL    C53 1467   1.099   3.366   0.064 -0.0538  0.0191  0.6316
    8MOL    C54 1468   1.052   3.490   0.145 -0.3123  0.6825 -0.1973
    8MOL    C55 1469   0.953   3.444   0.254  0.0580  0.0230 -0.1629
    8MOL    H56 1470   1.167   3.299   0.117 -0.2422 -2.1310 -1.7863
    8MOL    H57 1471   1.016   3.307   0.026  2.0174 -2.0797 -0.7280
    8MOL    H58 1472   1.132   3.550   0.188  0.7816 -0.5211 -0.5011
    8MOL    H59 1473   0.998   3.541   0.065  0.1154 -0.4516 -1.2196
    8MOL    H60 1474   0.886   3.382   0.194 -1.3904 -0.5376  1.9802
    8MOL    H61 1475   0.887   3.520   0.295 -1.2132 -1.3975  0.4632
    8MOL    O62 1476   1.016   3.375   0.356 -0.0341  0.2961  0.3274
    8MOL    C63 1477   0.926   3.290   0.424 -0.6845 -0.1877  0.0223
    8MOL    C64 1478   1.019   3.209   0.525 -0.0826  0.7262  0.3348
    8MOL    C65 1479   1.103   3.296   0.622  0.6660 -0.1601 -0.1107
    8MOL    H66 1480   0.888   3.224   0.346 -0.9162 -0.3669  0.2847
    8MOL    H67 1481   0.840   3.335   0.472  1.4683  0.1643  3.7547
    8MOL    H68 1482   0.947   3.153   0.585  2.8138  0.3831  3.6676
    8MOL    H69 1483   1.095   3.145   0.481  0.9108  1.6949  0.6127
    8MOL    H70 1484   1.036   3.355   0.684  0.1296  0.8326 -1.6096
    8MOL    H71 1485   1.168   3.372   0.579 -0.2126 -1.3173 -3.6786
    8MOL    O72 1486   1.192   3.219   0.701  0.1482  0.2409 -0.0167
    8MOL    C73 1487   1.282   3.295   0.782  0.0313  0.3415  0.4371
    8MOL    C74 1488   1.382   3.215   0.867  0.6318 -0.6371  0.5556
    8MOL    C75 1489   1.319   3.156   1.001  0.3187  0.3697 -0.0685
    8MOL    H76 1490   1.222   3.356   0.850  2.8757  1.7474  1.7445
    8MOL    H77 1491   1.334   3.370   0.722 -0.9190  0.5144 -0.1818
    8MOL    H78 1492   1.411   3.130   0.804 -1.8926 -0.9403 -0.2381
    8MOL    H79 1493   1.470   3.276   0.888  1.5494 -1.2398 -1.3761
    8MOL    H80 1494   1.241   3.083   0.979  0.4071  0.4442 -0.6273
    8MOL    H81 1495   1.279   3.241   1.056  1.4262  1.2012 -0.5340
    8MOL    O82 1496   1.407   3.086   1.088  0.2111 -0.5247  0.9009
    8MOL    C83 1497   1.492   3.171   1.167 -0.3661 -0.6879 -0.4092
    8MOL    C84 1498   1.604   3.082   1.221 -0.4981  0.8105  1.1013
    8MOL    C85 1499   1.698   3.146   1.322 -0.1374  0.5809  0.2858
    8MOL    H86 1500   1.441   3.202   1.258  0.7003 -1.3836  0.4412
    8MOL    H87 1501   1.534   3.257   1.114 -2.1412 -0.9973 -2.3785
    8MOL    H88 1502   1.557   2.997   1.270  1.0791 -1.3851 -1.0416
    8MOL    H89 1503   1.663   3.029   1.146 -2.9467 -0.8162  0.2883
    8MOL    H90 1504   1.640   3.198   1.399  0.8004  3.0459 -0.6167
    8MOL    H91 1505   1.747   3.226   1.266 -1.4433 -0.5938 -2.6883
    8MOL    O92 1506   1.783   3.055   1.387  0.4585 -0.1682 -0.0310
    8MOL    C93 1507   1.858   3.109   1.488  0.0798 -0.9230 -1.1083
    8MOL    C94 1508   1.875   3.000   1.592 -0.1191  0.0297  1.1122
    8MOL    C95 1509   1.747   2.944   1.661  0.7605  0.8735  0.0254
    8MOL    H96 1510   1.812   3.192   1.543  3.4927  1.3775 -1.5658
    8MOL    H97 1511   1.949   3.146   1.442  0.3806  0.0565  0.2416
    8MOL    H98 1512   1.925   2.916   1.545 -0.7540 -0.0431  0.5506
    8MOL    H99 1513   1.945   3.037   1.667  1.3315  1.4429 -0.8976
    8MOL   H100 1514   1.675   2.905   1.588  1.0900 -0.1350  0.2279
    8MOL   H101 1515   1.685   3.024   1.702 -0.9151 -0.7267  0.6768
    8MOL   O102 1516   1.783   2.846   1.760 -0.5514  0.9218 -0.7623
    8MOL   C103 1517   1.670   2.778   1.819  0.8813 -0.2466 -0.0813
    8MOL   C104 1518   1.704   2.718   1.958 -0.0722  0.6092  0.4569
    8MOL   C105 1519   1.593   2.637   2.021 -0.1190  0.6551 -0.4230
    8MOL   H106 1520   1.634   2.702   1.750  1.6440  0.3925 -1.2051
    8MOL   H107 1521   1.589   2.850   1.831  2.3939  1.7130 -1.1673
    8MOL   H108 1522   1.790   2.651   1.952 -1.1175 -0.6605 -0.6872
    8MOL   H109 1523   1.732   2.795   2.029 -2.1416  0.6090  1.3165
    8MOL   H110 1524   1.573   2.564   1.942  1.4880  0.2255 -0.4622
    8MOL   H111 1525   1.504   2.698   2.033 -0.2035  0.3164  0.6893
    8MOL   O112 1526   1.638   2.579   2.141  0.4316  0.5952 -0.1404
    8MOL   C113 1527   1.537   2.505   2.207 -0.0065 -0.2081 -0.0109
    8MOL   C114 1528   1.596   2.506   2.350 -0.2279  0.2210  0.2214
    8MOL   C115 1529   1.600   2.639   2.422 -0.4318 -0.3450  0.0512
    8MOL   H116 1530   1.522   2.408   2.160  1.3626 -0.7339  0.6152
    8MOL   H117 1531   1.437   2.549   2.208 -0.2019 -0.5447  3.4440
    8MOL   H118 1532   1.525   2.449   2.409  0.3437 -1.3585 -0.5825
    8MOL   H119 1533   1.694   2.461   2.369 -0.8592 -1.3657 -0.2591
    8MOL   H120 1534   1.557   2.646   2.522 -2.7010 -0.6847 -0.8876
    8MOL   H121 1535   1.530   2.704   2.370 -0.7515 -1.2456 -0.6572
    8MOL   O122 1536   1.731   2.689   2.425 -0.3593 -0.5126 -0.2207
    8MOL   C123 1537   1.756   2.825   2.470 -0.2395  0.4073  0.2736
    8MOL   C124 1538   1.901   2.860   2.428 -0.2488 -0.6381 -0.8376
    8MOL   C125 1539   1.931   3.013   2.457 -0.4811 -0.8464 -0.2305
    8MOL   H126 1540   1.754   2.822   2.579 -0.5070  3.2282  0.3959
    8MOL   H127 1541   1.684   2.901   2.437 -1.1330 -0.3517  0.4701
    8MOL   H128 1542   1.977   2.796   2.472  1.0454  0.9264 -0.7230
    8MOL   H129 1543   1.908   2.831   2.323  1.9024 -0.2117 -0.8446
    8MOL   H130 1544   1.949   3.035   2.562  0.1555 -1.6319 -0.1635
    8MOL   H131 1545   1.846   3.068   2.416 -0.5386  0.1455  1.1841
    8MOL   O132 1546   2.046   3.069   2.386  0.4283 -0.5008  0.0869
    8MOL   C133 1547   2.169   3.031   2.451  0.0028  0.0912 -0.3244
    8MOL   C134 1548   2.281   3.078   2.362  0.0588  0.1606 -0.7273
    8MOL   C135 1549   2.415   3.062   2.437  0.6734  0.6650 -0.3514
    8MOL   H136 1550   2.170   2.926   2.481  1.7030  0.1296 -0.1841
    8MOL   H137 1551   2.181   3.083   2.546  1.1520 -0.0664 -0.3722
    8MOL   H138 1552   2.294   3.013   2.275  1.3233 -0.0475 -0.3925
    8MOL   H139 1553   2.263   3.182   2.334 -0.0210  0.0758 -0.9983
    8MOL   H140 1554   2.421   2.956   2.461 -2.9794  0.6398  0.6792
    8MOL   H141 1555   2.421   3.117   2.531 -0.7692 -1.6904  1.1459
    8MOL   O142 1556   2.526   3.092   2.351  0.3184 -0.6700 -0.2617
    8MOL   C143 1557   2.660   3.086   2.411 -0.2427  0.0085  0.3588
    8MOL   C144 1558   2.768   3.140   2.308 -0.5137 -0.6905 -0.2011
    8MOL   C145 1559   2.913   3.134   2.362 -0.0799 -0.1178 -0.0194
    8MOL   H146 1560   2.672   2.982   2.442 -2.8204 -0.2920  0.5321
    8MOL   H147 1561   2.664   3.138   2.507 -1.2509 -0.6316  0.7553
    8MOL   H148 1562   2.764   3.074   2.222 -2.6094 -1.8381  0.7428
    8MOL   H149 1563   2.736   3.239   2.276  2.5402  0.3544 -0.2129
    8MOL   H150 1564   2.970   3.157   2.272  2.1854  1.0598  1.6467
    8MOL   H151 1565   2.944   3.034   2.391  0.2775  0.5834  2.0728
    8MOL   O152 1566   2.933   3.233   2.467  1.1353 -0.4469  0.0234
    8MOL   C153 1567   3.057   3.292   2.475 -0.9427 -0.6347  0.3813
    8MOL   C154 1568   3.067   3.371   2.610  0.9295 -0.4973  0.9158
    8MOL   C155 1569   3.163   3.485   2.607  0.4803  0.0505 -0.3369
    8MOL   H156 1570   3.078   3.358   2.391 -2.8314  0.2178  0.5470
    8MOL   H157 1571   3.133   3.214   2.473 -1.6256 -1.3183  1.0315
    8MOL   H158 1572   2.970   3.402   2.648  0.8942  0.1419  0.3013
    8MOL   H159 1573   3.100   3.290   2.676  0.7696 -0.0287  1.5832
    8MOL   H160 1574   3.180   3.527   2.706  2.9203  1.3415 -1.2582
    8MOL   H161 1575   3.114   3.564   2.550  1.8005  0.2689 -1.1863
    8MOL   O162 1576   3.284   3.444   2.555 -0.8412  0.0676 -0.2782
    8MOL   C163 1577   3.397   3.523   2.587 -0.0714  0.0635  0.2399
    8MOL   C164 1578   3.517   3.472   2.511  0.0371 -0.1440 -0.0304
    8MOL   C165 1579   3.537   3.321   2.529  0.7088  0.3225 -0.7315
    8MOL   H166 1580   3.410   3.515   2.695 -0.9855  2.1817  0.5351
    8MOL   H167 1581   3.387   3.631   2.573  0.9809  0.3945  1.8327
    8MOL   H168 1582   3.486   3.492   2.409  2.0092 -0.4586 -0.7238
    8MOL   H169 1583   3.608   3.525   2.539  0.4980 -0.3298 -1.1402
    8MOL   H170 1584   3.450   3.268   2.490 -0.3213  1.8493 -0.5080
    8MOL   H171 1585   3.559   3.301   2.634  0.2730  0.0291 -0.6939
    8MOL   O172 1586   3.644   3.289   2.440  0.1179  0.2532  0.9510
    8MOL   C173 1587   3.651   3.147   2.401  0.0975  0.8659 -0.8529
    8MOL   C174 1588   3.738   3.134   2.277 -0.2315  0.7939  0.1208
    8MOL   C175 1589   3.685   3.223   2.167  0.6850  0.5538 -0.7907
    8MOL   H176 1590   3.556   3.102   2.373  0.3878 -0.4833  0.2808
    8MOL   H177 1591   3.701   3.089   2.478 -1.5609  1.8749  1.0197
    8MOL   H178 1592   3.843   3.158   2.296  0.1410 -0.2834 -0.5407
    8MOL   H179 1593   3.741   3.037   2.229 -0.4515  0.3355  1.0138
    8MOL   H180 1594   3.681   3.329   2.191 -1.8972  0.2723  0.1351
    8MOL   H181 1595   3.579   3.205   2.151  0.0695  0.5591  2.8719
    8MOL   O182 1596   3.766   3.215   2.055 -0.8294  0.0122 -0.1614
    8MOL   C183 1597   3.713   3.274   1.940  0.1920  0.3671 -0.0378
    8MOL   C184 1598   3.822   3.274   1.833  0.0430  0.5970  0.2488
    8MOL   C185 1599   3.776   3.327   1.697 -0.1348  0.1501 -0.1814
    8MOL   H186 1600   3.684   3.377   1.958  0.8390  1.0184 -2.6353
    8MOL   H187 1601   3.627   3.214   1.910 -0.0849  1.3205 -1.1941
    8MOL   H188 1602   3.904   3.332   1.875  1.2343 -0.1457 -0.9952
    8MOL   H189 1603   3.858   3.172   1.821  1.6422  1.3738 -1.8176
    8MOL   H190 1604   3.733   3.426   1.710 -0.2093 -0.0718  1.3437
    8MOL   H191 1605   3.695   3.265   1.658 -1.2622  0.3611  1.7895
    8MOL   O192 1606   3.888   3.344   1.619 -0.1922  0.7477 -0.4704
    8MOL   C193 1607   3.856   3.375   1.488  0.5240  0.2704 -0.0860
    8MOL   C194 1608   3.972   3.419   1.400 -0.2788 -0.9383  0.2897
    8MOL   C195 1609   3.949   3.425   1.252  0.0502  0.3561 -0.2379
    8MOL   H196 1610   3.765   3.433   1.473 -1.6849 -3.2380 -0.7170
    8MOL   H197 1611   3.826   3.280   1.444  2.2071 -1.7526  2.9259
    8MOL   H198 1612   3.996   3.521   1.433 -2.9678  0.1845 -1.0832
    8MOL   H199 1613   4.060   3.361   1.430  0.0534 -0.1319  0.9127
    8MOL   H200 1614   4.025   3.487   1.203 -0.8336  1.3155 -0.4159
    8MOL   H201 1615   3.853   3.463   1.217 -1.6402 -1.9916  1.7693
    8MOL   H202 1616   3.954   3.331   1.198  1.3717 -0.2266  0.8768
    9MOL     O1 1617   2.380   0.944   7.242  0.3224  0.4760  0.4307
    9MOL     C2 1618   2.391   0.889   7.368  0.0337 -0.2635  0.1132
    9MOL     C3 1619   2.529   0.836   7.391  0.1285  0.2623  0.0815
    9MOL     C4 1620   2.572   0.798   7.531  0.0386 -0.7568  0.3299
    9MOL     H5 1621   2.321   0.808   7.384  1.9817 -2.2822 -1.2317
    9MOL     H6 1622   2.362   0.963   7.442  2.0013 -1.6420  2.3454
    9MOL     H7 1623   2.550   0.754   7.323 -0.8804  1.5748 -1.8691
    9MOL     H8 1624   2.595   0.921   7.373 -0.5448  0.5886 -0.9389
    9MOL     H9 1625   2.522   0.865   7.600 -1.2473  0.2587 -1.5522
    9MOL    H10 1626   2.681   0.804   7.538 -0.0840 -0.5142  2.2064
    9MOL    H11 1627   2.294   0.932   7.204 -0.4314  0.4306  2.1208
    9MOL    O12 1628   2.526   0.669   7.561 -0.3512 -0.0793  0.0579
    9MOL    C13 1629   2.582   0.615   7.683 -0.5531  0.0923  0.2913
    9MOL    C14 1630   2.519   0.476   7.720  0.5625  0.6261 -0.3295
    9MOL    C15 1631   2.378   0.473   7.784 -0.1748 -0.2796 -0.2863
    9MOL    H16 1632   2.565   0.685   7.765 -0.0352  1.2245 -0.5463
    9MOL    H17 1633   2.691   0.613   7.676 -0.6320  0.0650 -0.9479
    9MOL    H18 1634   2.515   0.416   7.628  1.5200 -1.1716  0.7639
    9MOL    H19 1635   2.592   0.419   7.778 -0.2958 -0.6463 -0.4740
    9MOL    H20 1636   2.353   0.368   0.012 -2.2140  0.0559 -1.1730
    9MOL    H21 1637   2.303   0.501   7.711  0.2041  0.5670 -0.3583
    9MOL    O22 1638   2.346   0.540   0.115  0.6749  0.1716  0.5196
    9MOL    C23 1639   2.437   0.504   0.217 -0.2780 -0.1265 -0.3628
    9MOL    C24 1640   2.378   0.545   0.348 -0.7346  0.0076  0.0550
    9MOL    C25 1641   2.261   0.459   0.383  0.9510 -0.3204 -0.1210
    9MOL    H26 1642   2.523   0.570   0.211  0.6558 -1.1623  1.2827
    9MOL    H27 1643   2.480   0.404   0.212  0.1872 -0.0057  1.0576
    9MOL    H28 1644   2.454   0.537   0.426 -0.0359 -3.1578 -0.8440
    9MOL    H29 1645   2.350   0.650   0.355  1.8438  0.7788 -0.6826
    9MOL    H30 1646   2.293   0.356   0.367 -0.4170 -1.2642  2.8286
    9MOL    H31 1647   2.174   0.488   0.323  0.2943 -1.1413  0.4090
    9MOL    O32 1648   2.223   0.493   0.520 -0.2017  0.1341 -0.4422
    9MOL    C33 1649   2.168   0.393   0.601  0.2013  0.0768  0.6528
    9MOL    C34 1650   2.274   0.322   0.670 -0.1708 -0.9723  0.5890
    9MOL    C35 1651   2.229   0.200   0.748 -0.1748  0.2857  0.1340
    9MOL    H36 1652   2.117   0.316   0.543  1.0449  0.6603 -0.9108
    9MOL    H37 1653   2.105   0.442   0.675  0.0831  0.8406  0.0603
    9MOL    H38 1654   2.345   0.302   0.591 -1.8093 -1.9697 -0.6682
    9MOL    H39 1655   2.324   0.394   0.735  2.5364 -3.1705  1.0257
    9MOL    H40 1656   2.157   0.230   0.824  0.4120  1.7612  0.1281
    9MOL    H41 1657   2.307   0.156   0.810 -1.0406  0.8836  1.6711
    9MOL    O42 1658   2.165   0.103   0.658 -0.3137 -0.2427 -0.4596
    9MOL    C43 1659   2.253   0.042   0.565 -0.3266  0.2554 -0.2697
    9MOL    C44 1660   2.158   7.783   0.457 -0.0457  0.0640  0.4536
    9MOL    C45 1661   2.230   7.714   0.344  0.5795  0.3182  0.7720
    9MOL    H46 1662   2.301   7.741   0.606  1.9523  1.2631 -0.7190
    9MOL    H47 1663   2.328   0.113   0.532  1.7337 -1.6658  0.1556
    9MOL    H48 1664   2.093   7.715   0.512 -0.1532  0.8945  1.3778
    9MOL    H49 1665   2.095   0.079   0.428  1.2209  0.9732  0.2783
    9MOL    H50 1666   2.286   7.628   0.380 -0.2232 -1.0599 -1.2290
    9MOL    H51 1667   2.303   7.786   0.306  0.3106 -0.2209 -0.7665
    9MOL    O52 1668   2.131   7.689   0.239  0.1224  0.2049  0.3279
    9MOL    C53 1669   2.174   7.605   0.131  0.4492 -0.1725 -0.4612
    9MOL    C54 1670   2.061   7.612   0.019  0.3864 -0.0798  0.2672
    9MOL    C55 1671   2.099   7.530   7.676  0.0237 -0.2527 -0.7682
    9MOL    H56 1672   2.186   7.502   0.164  1.6431  0.3446  0.7587
    9MOL    H57 1673   2.261   7.650   0.084 -0.6772  0.2732 -2.1651
    9MOL    H58 1674   1.966   7.572   0.055 -0.1343 -0.8302 -1.8322
    9MOL    H59 1675   2.033   7.712   7.773  0.5754 -0.6561 -1.6137
    9MOL    H60 1676   2.141   7.432   7.697  1.8268  0.6232 -0.1629
    9MOL    H61 1677   2.182   7.585   7.632 -0.1570 -1.5763 -2.8033
    9MOL    O62 1678   1.991   7.517   7.593  0.3720 -0.7650  0.6613
    9MOL    C63 1679   2.024   7.451   7.465  0.1491  0.1586  0.0755
    9MOL    C64 1680   1.899   7.398   7.401  0.5385 -0.8087  0.3809
    9MOL    C65 1681   1.922   7.332   7.267 -0.0621  0.3477  1.1846
    9MOL    H66 1682   2.095   7.368   7.472 -1.2475 -1.1480 -0.8910
    9MOL    H67 1683   2.075   7.529   7.408 -1.8391  1.8119  0.4743
    9MOL    H68 1684   1.859   7.328   7.475  1.6155 -0.4042  1.3694
    9MOL    H69 1685   1.833   7.484   7.385  2.3470  0.6218  0.4018
    9MOL    H70 1686   1.993   7.250   7.275 -1.4855 -0.7824  2.6493
    9MOL    H71 1687   1.963   7.402   7.194  0.8191 -0.9226  0.4616
    9MOL    O72 1688   1.796   7.271   7.222  0.4801 -0.1201 -0.1474
    9MOL    C73 1689   1.806   7.208   7.094  0.0276  0.0161  0.6515
    9MOL    C74 1690   1.697   7.261   6.998  0.6041 -0.2429 -0.3087
    9MOL    C75 1691   1.708   7.413   6.982 -0.2850  0.4648  0.2096
    9MOL    H76 1692   1.808   7.100   7.109  0.4652 -0.0005  0.4734
    9MOL    H77 1693   1.905   7.229   7.053  0.2052  0.0180  1.0809
    9MOL    H78 1694   1.700   7.211   6.901  3.8590  1.8347 -1.3877
    9MOL    H79 1695   1.604   7.238   7.049  0.4912 -0.5024 -0.6270
    9MOL    H80 1696   1.691   7.449   7.084  0.1326  1.2435  0.0113
    9MOL    H81 1697   1.620   7.426   6.920  0.6671 -0.8431 -1.4367
    9MOL    O82 1698   1.830   7.462   6.939  0.1622  0.4626 -0.0919
    9MOL    C83 1699   1.837   7.603   6.940  0.0976  0.0672  0.4477
    9MOL    C84 1700   1.981   7.673   6.934 -0.3518  0.1273  0.1833
    9MOL    C85 1701   1.980   0.036   6.966  0.2105 -0.3824 -0.2756
    9MOL    H86 1702   1.786   7.636   7.031 -1.2839  0.7018 -0.5318
    9MOL    H87 1703   1.776   7.632   6.854  0.5841 -0.9652 -0.2472
    9MOL    H88 1704   2.036   7.620   7.011  0.1625 -0.4322 -0.5620
    9MOL    H89 1705   2.034   7.650   6.841 -3.4874  0.7841 -1.8477
    9MOL    H90 1706   1.932   0.041   7.064  1.3978 -0.2931  0.3060
    9MOL    H91 1707   1.923   0.093   6.893 -1.1196 -0.5512  0.5990
    9MOL    O92 1708   2.108   0.076   6.979  0.0038  0.1997  0.2117
    9MOL    C93 1709   2.127   0.213   7.015  0.1370  0.2128 -0.2130
    9MOL    C94 1710   2.263   0.262   6.969 -0.1439 -0.1065  0.2779
    9MOL    C95 1711   2.265   0.266   6.814 -0.2169  0.0507  0.0005
    9MOL    H96 1712   2.127   0.228   7.123  2.5220 -0.2105 -0.1120
    9MOL    H97 1713   2.059   0.271   6.954  1.5649  3.2210  0.9629
    9MOL    H98 1714   2.297   0.351   7.022 -4.5949  1.3725  0.9039
    9MOL    H99 1715   2.333   0.187   7.005 -0.5644 -0.4107  0.4635
    9MOL   H100 1716   2.197   0.338   6.767  1.3951  1.9300  0.4578
    9MOL   H101 1717   2.228   0.173   6.771 -1.2795  1.1741 -1.5618
    9MOL   O102 1718   2.398   0.300   6.775 -0.1145  0.5116 -0.9873
    9MOL   C103 1719   2.414   0.297   6.631 -0.1477  0.8803  0.0117
    9MOL   C104 1720   2.558   0.333   6.598  0.1406  0.0525  0.7228
    9MOL   C105 1721   2.614   0.282   6.468 -0.3707 -0.8349  0.5988
    9MOL   H106 1722   2.339   0.360   6.582 -1.3985  0.3050  1.1643
    9MOL   H107 1723   2.397   0.194   6.599  2.2368  0.0315  1.3472
    9MOL   H108 1724   2.562   0.442   6.595  1.6888 -0.0247 -1.2068
    9MOL   H109 1725   2.623   0.300   6.679 -1.9856  0.3437  2.5955
    9MOL   H110 1726   2.551   0.289   6.380  0.0175 -0.1092  0.3758
    9MOL   H111 1727   2.619   0.173   6.479  0.0741 -0.8341  0.3853
    9MOL   O112 1728   2.733   0.354   6.441  0.1675  0.2646 -0.2256
    9MOL   C113 1729   2.787   0.312   6.318 -0.3323 -0.2461  0.6397
    9MOL   C114 1730   2.907   0.395   6.261  0.3275  0.3082  0.0618
    9MOL   C115 1731   2.860   0.518   6.191  0.4783  0.2740 -0.3348
    9MOL   H116 1732   2.716   0.286   6.239  1.9279 -3.6042 -0.3690
    9MOL   H117 1733   2.821   0.210   6.338 -0.0891 -0.0180  1.3814
    9MOL   H118 1734   2.975   0.415   6.343 -0.7140  0.8452  0.8029
    9MOL   H119 1735   2.970   0.330   6.200 -0.9590 -1.8496  1.0182
    9MOL   H120 1736   2.764   0.547   6.233 -0.0597  0.5756 -1.7617
    9MOL   H121 1737   2.842   0.491   6.087 -3.9557 -0.7051  0.6138
    9MOL   O122 1738   2.961   0.616   6.194  0.6592  0.3240  0.1545
    9MOL   C123 1739   2.926   0.735   6.123  0.0930  0.0696 -0.2068
    9MOL   C124 1740   3.025   0.837   6.169  0.4135  0.1621  0.1625
    9MOL   C125 1741   2.996   0.985   6.135  0.2058 -0.3327 -0.4450
    9MOL   H126 1742   2.825   0.770   6.147 -0.6013 -1.6002 -0.6691
    9MOL   H127 1743   2.926   0.725   6.015 -0.4974  1.2230 -0.3310
    9MOL   H128 1744   3.027   0.832   6.277 -0.8119 -1.8487  0.1082
    9MOL   H129 1745   3.118   0.801   6.125  0.2014 -2.5185  1.8552
    9MOL   H130 1746   2.974   0.995   6.028  2.3298 -2.4389 -1.1011
    9MOL   H131 1747   3.084   1.044   6.159 -0.2054  0.3047 -0.4897
    9MOL   O132 1748   2.880   1.033   6.198 -0.4604 -0.0969  0.0769
    9MOL   C133 1749   2.833   1.159   6.153  0.2675 -0.5483 -0.0505
    9MOL   C134 1750   2.723   1.204   6.255  0.1946 -0.4443 -0.2491
    9MOL   C135 1751   2.596   1.118   6.274 -0.3075  0.0173  0.5217
    9MOL   H136 1752   2.796   1.155   6.051  1.7222  0.0764 -0.6015
    9MOL   H137 1753   2.907   1.238   6.160  0.9632 -0.9912 -2.1933
    9MOL   H138 1754   2.749   1.228   6.358  0.1944  0.0088 -0.3533
    9MOL   H139 1755   2.684   1.297   6.215  1.0164 -0.8566 -2.0639
    9MOL   H140 1756   2.623   1.013   6.290  1.3189 -0.1277 -2.7669
    9MOL   H141 1757   2.548   1.117   6.176  1.5142 -3.0427 -0.4415
    9MOL   O142 1758   2.519   1.193   6.372  0.6583 -0.1039  0.1321
    9MOL   C143 1759   2.400   1.127   6.423 -0.1002 -0.6837 -0.1969
    9MOL   C144 1760   2.306   1.232   6.489 -0.5498  0.0189 -0.0021
    9MOL   C145 1761   2.220   1.312   6.384 -0.3960  0.1712 -0.2242
    9MOL   H146 1762   2.429   1.051   6.496  2.9194 -0.8471 -1.4744
    9MOL   H147 1763   2.344   1.077   6.344 -2.3390  0.0570  0.8874
    9MOL   H148 1764   2.247   1.182   6.566  0.7169 -2.8027 -0.8309
    9MOL   H149 1765   2.379   1.295   6.540  1.5895 -0.4890 -2.3303
    9MOL   H150 1766   2.161   1.235   6.335 -0.4217 -2.5462  3.9000
    9MOL   H151 1767   2.273   1.350   6.296  1.0198  0.0719  0.5707
    9MOL   O152 1768   2.146   1.414   6.444  1.0349  0.8749  0.0050
    9MOL   C153 1769   2.018   1.387   6.487 -0.3362 -1.0703 -0.7472
    9MOL   C154 1770   1.941   1.510   6.547  0.6124 -0.5954 -0.8429
    9MOL   C155 1771   1.908   1.629   6.452 -0.1960  0.0840 -0.6495
    9MOL   H156 1772   2.016   1.300   6.552  0.9814 -1.0619 -0.6909
    9MOL   H157 1773   1.956   1.355   6.402 -1.9435  1.0052 -0.4078
    9MOL   H158 1774   1.847   1.471   6.587  0.3959 -1.5013 -2.2030
    9MOL   H159 1775   1.994   1.550   6.633  0.0018 -0.0530 -0.7082
    9MOL   H160 1776   1.825   1.596   6.389 -0.7548 -0.2272  0.2484
    9MOL   H161 1777   2.001   1.647   6.398  1.8848 -0.3055  2.7250
    9MOL   O162 1778   1.852   1.735   6.526 -0.6071 -0.4683  0.7281
    9MOL   C163 1779   1.809   1.846   6.440 -0.7509 -0.2340  0.2946
    9MOL   C164 1780   1.919   1.954   6.425 -0.2335 -0.2743 -0.0366
    9MOL   C165 1781   1.971   1.993   6.559 -0.0402 -0.8923 -0.6147
    9MOL   H166 1782   1.731   1.889   6.502 -1.5738 -1.3751  0.0658
    9MOL   H167 1783   1.769   1.806   6.347 -1.0055  0.2912  0.1728
    9MOL   H168 1784   2.002   1.913   6.367 -2.1385  0.6881 -3.6411
    9MOL   H169 1785   1.885   2.040   6.367 -0.0066  1.7403  2.7484
    9MOL   H170 1786   2.004   1.899   6.605  0.1205 -0.0275  1.0888
    9MOL   H171 1787   1.887   2.028   6.618 -0.4305 -0.5460 -1.3842
    9MOL   O172 1788   2.079   2.080   6.562 -0.1392 -0.1619  0.0668
    9MOL   C173 1789   2.121   2.110   6.698  0.0843  0.1761 -0.4928
    9MOL   C174 1790   2.234   2.212   6.705 -0.4104  0.2771  0.6348
    9MOL   C175 1791   2.274   2.246   6.850 -0.3620 -0.6043 -0.0720
    9MOL   H176 1792   2.147   2.023   6.758  0.7833  1.0544  0.5018
    9MOL   H177 1793   2.032   2.159   6.740  1.6526  2.0667  0.7150
    9MOL   H178 1794   2.320   2.165   6.656 -1.1043 -1.5068  1.0926
    9MOL   H179 1795   2.198   2.301   6.653 -1.3763 -1.3456 -1.5512
    9MOL   H180 1796   2.369   2.300   6.853 -0.5457 -0.2816 -0.0108
    9MOL   H181 1797   2.297   2.154   6.903  1.2772  0.6019  1.3302
    9MOL   O182 1798   2.163   2.321   6.896  0.4397 -0.0716  0.4412
    9MOL   C183 1799   2.141   2.300   7.036  0.7478 -0.5379 -0.1180
    9MOL   C184 1800   2.027   2.395   7.085 -0.2143  0.2063  0.2655
    9MOL   C185 1801   1.981   2.345   7.222 -0.3418  0.4090 -0.3453
    9MOL   H186 1802   2.224   2.324   7.102 -0.1557 -0.0785  0.8808
    9MOL   H187 1803   2.118   2.194   7.045 -0.6648 -0.0666  2.5797
    9MOL   H188 1804   2.060   2.498   7.077 -1.6482  0.4102 -4.1747
    9MOL   H189 1805   1.945   2.383   7.014  0.6292  1.3659 -0.9247
    9MOL   H190 1806   2.066   2.327   7.289 -0.7176  1.6403  0.4945
    9MOL   H191 1807   1.921   2.257   7.200  0.5090 -0.9238  2.3969
    9MOL   O192 1808   1.901   2.445   7.288  0.1243 -0.4342  0.8919
    9MOL   C193 1809   1.815   2.394   7.394  0.2652 -0.2173  0.1237
    9MOL   C194 1810   1.718   2.503   7.429 -0.8870  0.5069 -0.3275
    9MOL   C195 1811   1.618   2.533   7.315 -0.6053  0.0181 -0.4456
    9MOL   H196 1812   1.885   2.362   7.470 -0.7876 -0.2664  1.0871
    9MOL   H197 1813   1.758   2.307   7.364 -0.2902 -0.0683  0.7462
    9MOL   H198 1814   1.665   2.466   7.517  0.3458  0.0772  0.2461
    9MOL   H199 1815   1.776   2.589   7.463 -0.1680  0.6274 -1.8341
    9MOL   H200 1816   1.668   2.599   7.244  0.3669  0.4899  0.6515
    9MOL   H201 1817   1.533   2.579   7.365 -1.2350 -1.3406 -0.2600
    9MOL   H202 1818   1.574   2.450   7.261 -1.9280  0.8115 -0.6016
   10MOL     O1 1819   6.317   6.656   7.552  0.6171 -0.1712  0.3223
   10MOL     C2 1820   6.456   6.634   7.540  0.6741 -0.0688 -0.1404
   10MOL     C3 1821   6.481   6.515   7.450  0.2705  0.4273  0.0123
   10MOL     C4 1822   6.629   6.475   7.454 -0.2145  0.0088 -0.4097
   10MOL     H5 1823   6.486   6.605   7.641 -4.6455 -0.1503  1.6024
   10MOL     H6 1824   6.518   6.718   7.509  0.6889  0.1693  0.5144
   10MOL     H7 1825   6.424   6.434   7.495  2.9027 -0.2793  2.2289
   10MOL     H8 1826   6.440   6.527   7.350 -0.8041 -1.0860  0.2488
   10MOL     H9 1827   6.646   6.372   7.422 -0.0466 -0.2741  0.5554
   10MOL    H10 1828   6.668   6.500   7.553 -0.5975  0.1354 -0.2896
   10MOL    H11 1829   6.289   6.712   7.481  3.1346  0.6997 -0.0506
   10MOL    O12 1830   6.708   6.564   7.370 -0.7523  0.5399 -0.0348
   10MOL    C13 1831   6.700   6.541   7.227 -0.4533 -0.1587 -1.0798
   10MOL    C14 1832   6.749   6.664   7.147  0.0765  0.1881  0.4474
   10MOL    C15 1833   6.700   6.638   7.004 -0.6077 -0.6044 -0.9002
   10MOL    H16 1834   6.595   6.523   7.203 -0.9382 -0.0982  0.8523
   10MOL    H17 1835   6.770   6.459   7.209  0.3620  0.4568 -0.7409
   10MOL    H18 1836   6.703   6.756   7.182 -0.7393 -0.3032  0.6776
   10MOL    H19 1837   6.856   6.684   7.151  0.3813 -1.0860 -0.7588
   10MOL    H20 1838   6.594   6.661   7.002 -0.5824 -0.4923 -0.9620
   10MOL    H21 1839   6.717   6.533   6.977  0.3308 -0.8695  0.6741
   10MOL    O22 1840   6.775   6.711   6.911  0.3331  0.5240  0.3599
   10MOL    C23 1841   6.718   6.707   6.778  0.4301  0.6765 -0.0265
   10MOL    C24 1842   6.778   6.812   6.679  0.4325 -0.0330 -0.2968
   10MOL    C25 1843   6.698   6.821   6.548 -0.0523  0.1553 -0.5411
   10MOL    H26 1844   6.609   6.719   6.778  0.4742  1.0783 -0.2167
   10MOL    H27 1845   6.748   6.609   6.742  0.8052  0.0914  1.7937
   10MOL    H28 1846   6.792   6.911   6.721  0.0390  0.5230 -1.4771
   10MOL    H29 1847   6.883   6.782   6.671  0.9695  1.0619  2.0843
   10MOL    H30 1848   6.594   6.836   6.574  0.3895  2.3627  0.0202
   10MOL    H31 1849   6.707   6.721   6.504 -0.9243 -0.2255  0.1366
   10MOL    O32 1850   6.735   6.922   6.456  0.1538 -0.2878 -0.4462
   10MOL    C33 1851   6.715   6.890   6.318  0.5831 -0.1963  0.3652
   10MOL    C34 1852   6.701   7.023   6.234  0.4628 -0.1561  0.0977
   10MOL    C35 1853   6.569   7.101   6.264 -0.5493 -0.0519 -0.2041
   10MOL    H36 1854   6.626   6.827   6.315  1.2677 -1.2081  0.8016
   10MOL    H37 1855   6.804   6.840   6.281 -1.3145 -3.2212 -0.2974
   10MOL    H38 1856   6.781   7.093   6.258  1.2638 -0.1627 -2.4129
   10MOL    H39 1857   6.701   6.997   6.128  0.0314  2.0735 -0.4726
   10MOL    H40 1858   6.590   7.146   6.361  0.2047 -0.3068 -0.2454
   10MOL    H41 1859   6.487   7.031   6.279  1.3360 -2.3344 -0.2135
   10MOL    O42 1860   6.550   7.210   6.175 -0.0132 -0.4620 -0.3310
   10MOL    C43 1861   6.430   7.275   6.215  0.1529 -0.6332 -0.3981
   10MOL    C44 1862   6.449   7.419   6.176  0.0259 -0.4932  0.2772
   10MOL    C45 1863   6.366   7.529   6.238 -1.1194 -0.5403  0.1956
   10MOL    H46 1864   6.410   7.275   6.322 -0.1526  2.4761 -0.4270
   10MOL    H47 1865   6.347   7.228   6.161 -0.1810  0.5713 -0.9359
   10MOL    H48 1866   6.551   7.452   6.193 -0.1564 -0.3140  1.0446
   10MOL    H49 1867   6.428   7.432   6.069  0.6975  0.4110  0.2506
   10MOL    H50 1868   6.396   7.627   6.203  0.0587 -0.5667  1.1070
   10MOL    H51 1869   6.385   7.511   6.344  0.8085 -2.3329 -0.4111
   10MOL    O52 1870   6.229   7.508   6.215  0.0652 -0.1741 -0.0331
   10MOL    C53 1871   6.143   7.600   6.275 -0.6115 -0.1470  0.1846
   10MOL    C54 1872   5.995   7.543   6.284  0.4914 -0.2421  0.4122
   10MOL    C55 1873   5.900   7.647   6.348 -0.0445 -0.0736 -0.2090
   10MOL    H56 1874   6.141   7.693   6.219 -0.3468 -0.4846 -0.3976
   10MOL    H57 1875   6.171   7.634   6.375 -1.8174 -0.2441  0.5575
   10MOL    H58 1876   5.960   7.509   6.186 -3.5442 -0.5854  1.9193
   10MOL    H59 1877   5.982   7.456   6.348  1.1603 -0.4601  0.2581
   10MOL    H60 1878   5.868   7.727   6.282 -1.9001  0.8565  1.7263
   10MOL    H61 1879   5.940   7.691   6.440 -4.5196  1.3314  1.2330
   10MOL    O62 1880   5.782   7.572   6.385  0.1067  0.3199 -0.7397
   10MOL    C63 1881   5.660   7.648   6.409 -0.4128 -0.3309  0.6336
   10MOL    C64 1882   5.540   7.548   6.399  0.5439  0.7417  0.0067
   10MOL    C65 1883   5.530   7.484   6.258  0.1881  0.2911  0.6870
   10MOL    H66 1884   5.635   7.730   6.341  0.6806  0.5983  1.3244
   10MOL    H67 1885   5.677   7.684   6.511 -0.1637 -1.1966  0.8953
   10MOL    H68 1886   5.537   7.463   6.467  1.8654 -0.0084 -0.8737
   10MOL    H69 1887   5.444   7.599   6.412 -1.4503 -2.7949 -0.0591
   10MOL    H70 1888   5.627   7.441   6.237 -0.5467 -0.7452 -0.6289
   10MOL    H71 1889   5.500   7.554   6.180 -0.7688  0.3006  1.0502
   10MOL    O72 1890   5.444   7.372   6.243 -0.7341 -0.0473  0.2464
   10MOL    C73 1891   5.313   7.417   6.205 -0.1758  0.0531 -0.4981
   10MOL    C74 1892   5.210   7.307   6.213 -0.2786  0.5578  0.1003
   10MOL    C75 1893   5.215   7.224   6.337  0.1197  0.1782 -0.7384
   10MOL    H76 1894   5.303   7.465   6.108 -0.3293 -2.3071 -1.6922
   10MOL    H77 1895   5.290   7.496   6.276 -1.4120 -2.0608  1.5347
   10MOL    H78 1896   5.110   7.349   6.201 -0.6675 -0.3175  0.2631
   10MOL    H79 1897   5.231   7.243   6.127 -0.4747  1.3528 -0.5520
   10MOL    H80 1898   5.206   7.282   6.428  1.0428  0.3018 -0.7242
   10MOL    H81 1899   5.305   7.162   6.335  0.2906  0.4232 -0.5708
   10MOL    O82 1900   5.109   7.120   6.324  0.4343  0.4840 -0.5066
   10MOL    C83 1901   5.104   7.031   6.444 -0.2297  0.5237  0.1366
   10MOL    C84 1902   5.022   6.905   6.414  0.2390 -0.7013  0.3553
   10MOL    C85 1903   4.996   6.818   6.541 -0.2769 -0.2125  0.1190
   10MOL    H86 1904   5.052   7.092   6.518 -0.5281 -0.3484  0.6541
   10MOL    H87 1905   5.209   7.020   6.471 -0.3465 -2.2570 -0.3802
   10MOL    H88 1906   4.928   6.926   6.362  1.0076  1.4336 -0.2326
   10MOL    H89 1907   5.077   6.848   6.340  0.8446 -0.1176  0.3580
   10MOL    H90 1908   4.931   6.874   6.609 -2.2577 -1.0647 -1.0189
   10MOL    H91 1909   5.092   6.789   6.584 -0.0359 -0.6155 -0.6860
   10MOL    O92 1910   4.927   6.698   6.507 -0.2358 -0.5300  0.0003
   10MOL    C93 1911   4.855   6.639   6.614 -0.2594 -0.3165  0.9548
   10MOL    C94 1912   4.790   6.501   6.575  0.0313 -0.0570 -0.9892
   10MOL    C95 1913   4.703   6.505   6.443  0.2804 -0.2175 -0.3587
   10MOL    H96 1914   4.774   6.708   6.639  1.1064  1.0285  1.7151
   10MOL    H97 1915   4.913   6.616   6.704  0.7992 -1.9559 -0.1196
   10MOL    H98 1916   4.872   6.429   6.570 -0.9237 -1.1579 -1.0070
   10MOL    H99 1917   4.724   6.465   6.654  1.1087 -0.2734 -0.1766
   10MOL   H100 1918   4.768   6.522   6.358 -1.9514 -1.9943 -2.5032
   10MOL   H101 1919   4.622   6.578   6.443 -0.2454 -0.7879  0.2752
   10MOL   O102 1920   4.627   6.385   6.428 -0.2600  0.1123 -0.4787
   10MOL   C103 1921   4.573   6.368   6.303  0.1924 -0.2653  0.3433
   10MOL   C104 1922   4.522   6.229   6.297 -0.1085  0.0259  0.0937
   10MOL   C105 1923   4.417   6.182   6.407 -0.0986 -0.3369  0.4334
   10MOL   H106 1924   4.651   6.401   6.235 -0.3627 -1.1555 -0.7426
   10MOL   H107 1925   4.497   6.445   6.287 -1.1397 -1.6041  0.1155
   10MOL   H108 1926   4.482   6.209   6.198  0.0482  0.2112 -0.0062
   10MOL   H109 1927   4.613   6.169   6.291  0.3733  0.5389  1.8064
   10MOL   H110 1928   4.320   6.230   6.396 -0.3924 -0.7641  1.0841
   10MOL   H111 1929   4.453   6.188   6.510  0.7251  0.5055  0.1012
   10MOL   O112 1930   4.389   6.046   6.378  0.3338 -0.5103  0.3173
   10MOL   C113 1931   4.273   5.988   6.437 -0.8610  0.1255  0.0342
   10MOL   C114 1932   4.272   5.836   6.410 -0.1460  0.1410 -0.1267
   10MOL   C115 1933   4.164   5.765   6.498  0.1906 -0.4944  0.0767
   10MOL   H116 1934   4.186   6.034   6.390 -1.0860 -0.4618 -0.1244
   10MOL   H117 1935   4.271   6.013   6.543 -0.5547  0.8711 -0.1284
   10MOL   H118 1936   4.247   5.814   6.306  1.2656  0.7423 -0.6042
   10MOL   H119 1937   4.363   5.781   6.433 -0.1694 -0.3462 -1.1611
   10MOL   H120 1938   4.170   5.656   6.493 -1.2638 -0.5842  0.2896
   10MOL   H121 1939   4.063   5.794   6.471 -0.9571 -2.3404  2.2753
   10MOL   O122 1940   4.197   5.802   6.633 -0.0413 -0.3608  0.0702
   10MOL   C123 1941   4.133   5.717   6.728 -0.1493  0.3781  0.0958
   10MOL   C124 1942   4.203   5.744   6.863 -0.9390 -0.4736 -0.4044
   10MOL   C125 1943   4.356   5.726   6.858  0.6631 -0.0927  1.0612
   10MOL   H126 1944   4.171   5.615   6.712 -1.4806 -0.1605  0.3374
   10MOL   H127 1945   4.025   5.724   6.736 -0.0946  1.6373 -0.2881
   10MOL   H128 1946   4.173   5.842   6.901  3.0195  1.0419 -0.9565
   10MOL   H129 1947   4.168   5.677   6.941  2.3323  0.5156  1.9828
   10MOL   H130 1948   4.390   5.804   6.790  0.0894  0.1853  1.0916
   10MOL   H131 1949   4.387   5.639   6.800 -0.9738 -1.0965  1.6455
   10MOL   O132 1950   4.418   5.737   6.983 -0.4650  0.2467 -0.4324
   10MOL   C133 1951   4.557   5.737   6.985  0.5826  0.3484  0.1493
   10MOL   C134 1952   4.609   5.767   7.129  0.5445  0.4861  0.2436
   10MOL   C135 1953   4.592   5.641   7.215  0.1228 -0.6648 -0.3531
   10MOL   H136 1954   4.599   5.815   6.922  1.2096 -0.5246 -0.5239
   10MOL   H137 1955   4.586   5.639   6.947  1.8863 -0.2258  2.5234
   10MOL   H138 1956   4.717   5.779   7.115  0.3235 -0.0211 -2.0213
   10MOL   H139 1957   4.562   5.861   7.159 -1.6306 -0.3498 -0.4342
   10MOL   H140 1958   4.593   5.548   7.159  1.3475 -0.3910 -0.7834
   10MOL   H141 1959   4.500   5.661   7.271  0.8233 -1.6832  1.1722
   10MOL   O142 1960   4.694   5.629   7.316 -0.8872  0.3410 -0.4203
   10MOL   C143 1961   4.693   5.508   7.392 -0.3490 -1.0551 -0.2932
   10MOL   C144 1962   4.821   5.496   7.484 -0.1975  0.8628  0.1874
   10MOL   C145 1963   4.832   5.358   7.549 -0.2205 -0.3494 -0.1714
   10MOL   H146 1964   4.704   5.426   7.322 -1.3272 -1.7758  0.3702
   10MOL   H147 1965   4.602   5.510   7.453 -0.3556  1.3427 -0.3462
   10MOL   H148 1966   4.909   5.509   7.422  0.8662  0.3083  1.5643
   10MOL   H149 1967   4.822   5.571   7.564  0.7976  2.0531 -0.9238
   10MOL   H150 1968   4.835   5.282   7.471 -0.4379 -0.4156 -0.1162
   10MOL   H151 1969   4.740   5.350   7.608  0.3654  0.6085  0.8934
   10MOL   O152 1970   4.945   5.353   7.633 -0.4198  0.7532  0.0843
   10MOL   C153 1971   4.951   5.232   7.702 -0.1639 -0.4652 -0.3369
   10MOL   C154 1972   5.012   5.249   0.053 -0.5614 -1.0118  0.1325
   10MOL   C155 1973   5.057   5.121   0.118  0.3249  0.3356 -0.6182
   10MOL   H156 1974   5.024   5.174   7.647  0.3582 -0.3070  0.1852
   10MOL   H157 1975   4.862   5.169   7.703  0.8912 -1.9893 -1.1207
   10MOL   H158 1976   5.094   5.319   0.037 -0.2481 -1.6497 -1.0496
   10MOL   H159 1977   4.955   5.308   0.126  0.3025 -2.1759  1.7545
   10MOL   H160 1978   5.123   5.139   0.203  0.3403  1.2900 -0.8235
   10MOL   H161 1979   5.115   5.067   0.043  1.0499  0.2106  0.0282
   10MOL   O162 1980   4.945   5.052   0.161 -0.0969  0.3086 -0.0006
   10MOL   C163 1981   4.979   4.914   0.190 -0.5675  0.1854 -0.0495
   10MOL   C164 1982   4.879   4.865   0.290 -0.4216 -0.3854 -0.0281
   10MOL   C165 1983   4.892   4.729   0.342  0.1291  0.7715 -0.4310
   10MOL   H166 1984   5.079   4.917   0.235 -1.4057  3.6913  1.7157
   10MOL   H167 1985   4.983   4.847   0.103  0.3780 -1.4721  1.2284
   10MOL   H168 1986   4.865   4.929   0.376 -1.8913 -0.5548 -0.1168
   10MOL   H169 1987   4.784   4.863   0.236 -0.8952  1.1201  0.7555
   10MOL   H170 1988   4.915   4.659   0.262  2.1599  1.9211 -0.8974
   10MOL   H171 1989   4.790   4.707   0.373  0.7510  0.1184  1.1941
   10MOL   O172 1990   4.975   4.719   0.454 -0.4355 -0.0911  0.5535
   10MOL   C173 1991   4.954   4.597   0.521  0.2165  0.3877 -0.3029
   10MOL   C174 1992   5.003   4.598   0.675  1.0278  0.2434 -0.0302
   10MOL   C175 1993   4.945   4.478   0.755 -0.0372  0.2956 -0.0161
   10MOL   H176 1994   5.006   4.511   0.480  2.2599  1.5593 -0.2775
   10MOL   H177 1995   4.848   4.574   0.520  0.6314 -1.9263  2.3500
   10MOL   H178 1996   5.111   4.610   0.676  1.0676 -0.1249  0.1863
   10MOL   H179 1997   4.965   4.685   0.729 -2.9326 -0.6236 -1.2472
   10MOL   H180 1998   4.992   4.458   0.851  0.6766  0.0875 -0.4031
   10MOL   H181 1999   4.974   4.387   0.703 -1.3049 -0.0500 -0.1390
   10MOL   O182 2000   4.810   4.498   0.785 -0.1062  0.3453  0.1138
   10MOL   C183 2001   4.724   4.394   0.728  0.2922 -0.4507 -0.0735
   10MOL   C184 2002   4.575   4.424   0.760  0.4049  0.0448 -0.5305
   10MOL   C185 2003   4.554   4.416   0.914  0.3629  0.2251 -0.3087
   10MOL   H186 2004   4.750   4.290   0.750  2.2200  0.2875  1.3169
   10MOL   H187 2005   4.738   4.391   0.620  4.2548 -3.1406  0.4312
   10MOL   H188 2006   4.543   4.520   0.720 -0.1828  1.0023  2.1079
   10MOL   H189 2007   4.509   4.350   0.714  1.1177  0.8047 -2.7920
   10MOL   H190 2008   4.588   4.508   0.960 -2.7303  1.8770 -1.1791
   10MOL   H191 2009   4.616   4.334   0.949 -0.0280  0.2740  0.4967
   10MOL   O192 2010   4.418   4.383   0.936  0.8167  0.1470 -0.4190
   10MOL   C193 2011   4.389   4.375   1.076 -0.3748 -0.7963  0.3741
   10MOL   C194 2012   4.271   4.467   1.097 -0.7560  0.1358 -0.6801
   10MOL   C195 2013   4.147   4.415   1.025 -0.8946 -0.9276 -0.1472
   10MOL   H196 2014   4.475   4.415   1.130 -0.3574  2.2061 -1.7011
   10MOL   H197 2015   4.375   4.271   1.103 -1.0547 -0.6199  0.7128
   10MOL   H198 2016   4.253   4.479   1.204  1.2675 -1.2414 -0.1453
   10MOL   H199 2017   4.288   4.568   1.059 -0.0198 -0.1835 -1.2117
   10MOL   H200 2018   4.075   4.496   1.013 -0.9703 -1.3515 -2.9007
   10MOL   H201 2019   4.095   4.338   1.082  1.4236 -2.5432 -0.1832
   10MOL   H202 2020   4.179   4.364   0.935  3.2942 -0.0815  0.7785
   11MOL     O1 2021   5.391   5.746   4.670  0.0357 -0.2851  0.0256
   11MOL     C2 2022   5.321   5.785   4.554  0.0993  0.0550 -0.2233
   11MOL     C3 2023   5.260   5.657   4.494  0.1491  0.0652 -0.3331
   11MOL     C4 2024   5.175   5.671   4.368 -0.9163 -0.5376 -0.0679
   11MOL     H5 2025   5.373   5.836   4.473 -0.0917  1.6930  0.6602
   11MOL     H6 2026   5.244   5.858   4.580 -0.9900 -1.0666 -0.2381
   11MOL     H7 2027   5.352   5.608   4.465  0.8453  2.3022 -2.0987
   11MOL     H8 2028   5.210   5.602   4.573 -1.9822  3.3956  0.7688
   11MOL     H9 2029   5.207   5.750   4.300 -0.0635 -0.3436  0.5455
   11MOL    H10 2030   5.079   5.692   4.416 -0.5440  0.7506  0.1597
   11MOL    H11 2031   5.453   5.814   4.691 -0.2607  0.7478 -2.3457
   11MOL    O12 2032   5.144   5.552   4.299  0.1313 -0.3667  0.3679
   11MOL    C13 2033   5.259   5.503   4.226 -0.0011  0.1193 -0.1673
   11MOL    C14 2034   5.222   5.376   4.144  0.0785 -0.3886  0.2725
   11MOL    C15 2035   5.144   5.403   4.013 -0.2012 -0.2679 -0.0349
   11MOL    H16 2036   5.343   5.488   4.293  0.6523  0.6680 -0.8596
   11MOL    H17 2037   5.288   5.586   4.162 -1.3927 -1.2360 -2.6150
   11MOL    H18 2038   5.314   5.317   4.139 -0.6439 -1.4498 -0.7226
   11MOL    H19 2039   5.165   5.315   4.215 -0.9307  0.5179  0.2598
   11MOL    H20 2040   5.211   5.456   3.945  1.8137 -0.6428  1.6050
   11MOL    H21 2041   5.055   5.460   4.037  0.1641  0.9298 -1.4356
   11MOL    O22 2042   5.122   5.283   3.941  0.7312  0.1698 -0.5196
   11MOL    C23 2043   5.070   5.300   3.812  0.1528  0.2056  0.4001
   11MOL    C24 2044   5.019   5.160   3.771  0.4173  0.2388  0.3315
   11MOL    C25 2045   4.966   5.164   3.625 -0.1771 -0.2015 -0.0105
   11MOL    H26 2046   5.155   5.340   3.756  1.8585  0.7393  3.2139
   11MOL    H27 2047   4.990   5.374   3.812 -0.5437 -0.5169 -2.3630
   11MOL    H28 2048   5.093   5.080   3.773  2.2294  1.8485  0.0474
   11MOL    H29 2049   4.942   5.137   3.844 -0.3610  1.2495 -0.1565
   11MOL    H30 2050   5.046   5.197   3.559  0.7742  0.2060  1.3211
   11MOL    H31 2051   4.874   5.221   3.620 -2.7532 -4.2339 -1.6660
   11MOL    O32 2052   4.917   5.039   3.592 -0.0972  0.3793 -0.1050
   11MOL    C33 2053   4.851   5.035   3.463  0.3158 -0.1822  0.3148
   11MOL    C34 2054   4.827   4.886   3.441 -0.0091 -0.2869  0.3601
   11MOL    C35 2055   4.741   4.852   3.313 -0.3853 -0.4917  0.3050
   11MOL    H36 2056   4.902   5.080   3.378  1.0007 -1.5317  0.0095
   11MOL    H37 2057   4.751   5.079   3.473 -0.6132 -2.2568  0.4169
   11MOL    H38 2058   4.916   4.827   3.421 -1.5193 -1.9432 -1.8394
   11MOL    H39 2059   4.781   4.841   3.529 -0.4978  1.5823  1.0836
   11MOL    H40 2060   4.788   4.917   3.239  0.3947 -2.2123 -0.7432
   11MOL    H41 2061   4.636   4.880   3.321 -0.4314 -0.7259  0.5409
   11MOL    O42 2062   4.754   4.713   3.265 -0.8689 -0.2153 -0.0526
   11MOL    C43 2063   4.710   4.611   3.356 -0.2194  0.1889  0.2797
   11MOL    C44 2064   4.722   4.479   3.285 -0.7234  0.2660  0.6054
   11MOL    C45 2065   4.661   4.362   3.360  0.1633 -0.4605  0.4930
   11MOL    H46 2066   4.609   4.629   3.395 -1.0736  1.3299 -2.3598
   11MOL    H47 2067   4.780   4.605   3.439 -2.8895 -1.5958  2.5054
   11MOL    H48 2068   4.665   4.488   3.192 -0.0317  1.6409  0.3185
   11MOL    H49 2069   4.827   4.469   3.260 -0.4532  2.9460  0.5480
   11MOL    H50 2070   4.701   4.352   3.461  3.2543  3.7382 -0.1560
   11MOL    H51 2071   4.695   4.276   3.303  0.4283  1.1957 -1.9041
   11MOL    O52 2072   4.522   4.380   3.376  0.3536  0.4631  0.1644
   11MOL    C53 2073   4.457   4.261   3.407 -0.2780  0.1694 -0.8423
   11MOL    C54 2074   4.303   4.272   3.384 -0.0445  0.5232 -0.6202
   11MOL    C55 2075   4.228   4.159   3.450 -0.0873 -0.2677 -0.2334
   11MOL    H56 2076   4.484   4.225   3.506 -0.7545 -1.7926 -1.4135
   11MOL    H57 2077   4.488   4.179   3.342 -0.7002 -1.7395  1.3044
   11MOL    H58 2078   4.262   4.362   3.430  1.2880  1.0650 -0.4694
   11MOL    H59 2079   4.277   4.279   3.278 -0.6155  0.6429 -0.4728
   11MOL    H60 2080   4.214   4.161   3.558  0.1710  1.5462 -0.2215
   11MOL    H61 2081   4.269   4.060   3.427 -0.6318 -0.6156  0.2878
   11MOL    O62 2082   4.099   4.138   3.392 -0.4123 -0.0883  0.2297
   11MOL    C63 2083   3.991   4.220   3.441 -0.3782  0.4550  0.0196
   11MOL    C64 2084   3.850   4.155   3.419  0.0129 -0.5858  0.2058
   11MOL    C65 2085   3.736   4.246   3.453 -0.3450  0.3389  0.0845
   11MOL    H66 2086   4.000   4.324   3.408 -0.2143  0.7180  0.8815
   11MOL    H67 2087   4.003   4.223   3.550 -1.7470 -1.8929  0.2483
   11MOL    H68 2088   3.845   4.136   3.312 -1.6123  1.7156 -0.1508
   11MOL    H69 2089   3.835   4.064   3.478 -4.9008 -0.7107 -1.0043
   11MOL    H70 2090   3.737   4.335   3.390  1.3976  0.7911  0.7447
   11MOL    H71 2091   3.738   4.266   3.560  2.4107  1.0282 -0.0671
   11MOL    O72 2092   3.620   4.176   3.416  0.6083  0.5817  0.5694
   11MOL    C73 2093   3.498   4.245   3.428 -0.0196 -0.2889  0.1543
   11MOL    C74 2094   3.386   4.143   3.392 -0.7425 -0.6008 -0.0237
   11MOL    C75 2095   3.381   4.111   3.244 -0.8941 -0.8869 -0.6899
   11MOL    H76 2096   3.499   4.325   3.354  2.3072 -0.7066 -0.3136
   11MOL    H77 2097   3.483   4.290   3.526  1.0478 -0.7768  0.5490
   11MOL    H78 2098   3.400   4.050   3.447  1.2585 -0.4886 -0.3004
   11MOL    H79 2099   3.293   4.179   3.435 -1.4018 -1.3094 -0.8343
   11MOL    H80 2100   3.478   4.103   3.195 -0.4108 -1.6878  0.3783
   11MOL    H81 2101   3.316   4.191   3.207 -1.3004 -0.6641  0.5042
   11MOL    O82 2102   3.317   3.986   3.229  0.3633  0.3693 -0.0446
   11MOL    C83 2103   3.293   3.944   3.099 -0.2111 -1.0094  0.2831
   11MOL    C84 2104   3.243   3.801   3.095  0.6248 -0.2465 -0.1226
   11MOL    C85 2105   3.095   3.793   3.140 -0.3635 -0.3630 -0.3569
   11MOL    H86 2106   3.391   3.946   3.052  0.3157 -0.5106  1.3892
   11MOL    H87 2107   3.239   4.017   3.038  0.1032 -2.4055 -1.7111
   11MOL    H88 2108   3.235   3.775   2.990 -1.9219 -1.7482  0.4022
   11MOL    H89 2109   3.312   3.734   3.147  1.2825  0.4602 -0.0732
   11MOL    H90 2110   3.045   3.875   3.088 -3.4719 -0.6327  2.0745
   11MOL    H91 2111   3.086   3.831   3.242  1.9620 -0.0046 -0.2629
   11MOL    O92 2112   3.029   3.665   3.117  0.0651  1.1497 -0.0226
   11MOL    C93 2113   3.065   3.580   3.223  0.1897 -0.2108  0.1644
   11MOL    C94 2114   3.112   3.446   3.161  0.3074  0.3960 -0.4066
   11MOL    C95 2115   3.117   3.331   3.255 -0.0636 -1.2189  0.3701
   11MOL    H96 2116   2.974   3.549   3.274 -0.0459 -0.6595 -0.5179
   11MOL    H97 2117   3.119   3.623   3.308 -0.4058 -1.3944  1.1677
   11MOL    H98 2118   3.042   3.414   3.084 -1.3641 -1.0460  1.6659
   11MOL    H99 2119   3.207   3.462   3.109  0.3898 -0.4545 -0.5239
   11MOL   H100 2120   3.020   3.323   3.304 -0.2973 -0.8410 -0.0289
   11MOL   H101 2121   3.195   3.356   3.327  0.3952 -1.1958 -0.1322
   11MOL   O102 2122   3.175   3.219   3.197 -0.2335  0.1807  0.5658
   11MOL   C103 2123   3.174   3.103   3.286  0.3396  0.1385 -0.0377
   11MOL   C104 2124   3.244   2.995   3.209  0.2294 -0.2241  0.5224
   11MOL   C105 2125   3.202   2.857   3.249 -0.6560  0.0758 -0.1233
   11MOL   H106 2126   3.074   3.071   3.315 -0.2372  0.2734 -1.8006
   11MOL   H107 2127   3.225   3.124   3.380  0.5853 -0.0985 -0.1166
   11MOL   H108 2128   3.233   3.010   3.102  0.9577  0.9891  0.6160
   11MOL   H109 2129   3.352   3.000   3.219  0.3380  0.6040 -1.0545
   11MOL   H110 2130   3.094   2.841   3.241 -0.7400  0.7038 -0.2540
   11MOL   H111 2131   3.212   2.849   3.357 -0.3895  2.1279  0.0226
   11MOL   O112 2132   3.275   2.752   3.180 -0.2677  0.6535  0.4685
   11MOL   C113 2133   3.218   2.629   3.190 -0.3221 -0.0388 -0.6308
   11MOL   C114 2134   3.313   2.539   3.116 -0.3838  0.0854  0.4848
   11MOL   C115 2135   3.457   2.523   3.170  0.1763  0.4055 -0.4272
   11MOL   H116 2136   3.120   2.633   3.143 -1.4393 -0.4837  1.5717
   11MOL   H117 2137   3.191   2.586   3.287  0.3988 -0.6026 -0.6749
   11MOL   H118 2138   3.266   2.443   3.094 -0.6937  0.2101  0.5966
   11MOL   H119 2139   3.329   2.589   3.021 -1.7607 -1.7376 -0.7406
   11MOL   H120 2140   3.452   2.478   3.269  3.5127  0.1126 -0.3377
   11MOL   H121 2141   3.501   2.622   3.170 -2.5266  1.6432  1.1940
   11MOL   O122 2142   3.525   2.429   3.083  0.0092 -0.1964  0.2028
   11MOL   C123 2143   3.665   2.445   3.092 -0.5401  0.7251  0.7369
   11MOL   C124 2144   3.730   2.328   3.024  0.5439  0.5182 -0.5164
   11MOL   C125 2145   3.882   2.346   3.025 -0.1795 -0.4451 -0.0896
   11MOL   H126 2146   3.702   2.448   3.194 -0.5351  1.5985  0.7132
   11MOL   H127 2147   3.703   2.537   3.047 -0.4992  0.3984  0.0921
   11MOL   H128 2148   3.699   2.237   3.075 -0.5670  0.6698 -0.9179
   11MOL   H129 2149   3.691   2.316   2.922  1.0388  0.5979 -0.7181
   11MOL   H130 2150   3.926   2.357   3.124  2.4094  0.3620 -1.3049
   11MOL   H131 2151   3.914   2.431   2.966 -0.7015 -0.5383 -0.5036
   11MOL   O132 2152   3.936   2.226   2.971  0.0745 -0.4818 -0.4523
   11MOL   C133 2153   4.078   2.221   2.986 -0.5067 -0.3864 -0.4434
   11MOL   C134 2154   4.124   2.114   2.884 -0.1002  0.2794 -0.6235
   11MOL   C135 2155   4.273   2.122   2.854 -0.2443 -0.0965 -0.2528
   11MOL   H136 2156   4.113   2.193   3.085  1.0755  1.0389 -0.5739
   11MOL   H137 2157   4.117   2.319   2.957  0.5127  0.1196  2.4862
   11MOL   H138 2158   4.089   2.015   2.912 -0.3880  0.2811 -0.9914
   11MOL   H139 2159   4.081   2.122   2.785 -1.6326 -1.2188 -0.0969
   11MOL   H140 2160   4.334   2.126   2.944 -2.2635  0.3209  1.1254
   11MOL   H141 2161   4.294   2.222   2.817  1.7111  0.4523  2.2031
   11MOL   O142 2162   4.314   2.027   2.756 -0.1568  0.0231 -0.5494
   11MOL   C143 2163   4.338   1.899   2.818 -0.5074  0.5383 -0.3960
   11MOL   C144 2164   4.325   1.784   2.714 -0.0521  0.4592  0.2576
   11MOL   C145 2165   4.424   1.793   2.597  0.9628  0.4943  0.1408
   11MOL   H146 2166   4.264   1.889   2.898  0.3867  1.0068  0.4949
   11MOL   H147 2167   4.435   1.896   2.867  0.9387 -0.2330 -3.1669
   11MOL   H148 2168   4.346   1.694   2.772 -0.2872  1.1420  1.4076
   11MOL   H149 2169   4.226   1.781   2.668 -0.7639  0.3459  1.7700
   11MOL   H150 2170   4.521   1.830   2.631  0.9454 -1.3873  2.3909
   11MOL   H151 2171   4.385   1.868   2.530  0.4667 -0.3424 -0.5167
   11MOL   O152 2172   4.433   1.663   2.539 -0.1600 -0.4141 -0.1595
   11MOL   C153 2173   4.513   1.672   2.418  0.6680 -0.3296  0.2032
   11MOL   C154 2174   4.540   1.531   2.367  0.8653  0.2396 -0.5937
   11MOL   C155 2175   4.627   1.450   2.465  0.5607  0.1092 -0.3985
   11MOL   H156 2176   4.608   1.725   2.430  0.3599  0.4091 -0.5122
   11MOL   H157 2177   4.453   1.728   2.346  1.0919 -0.8517 -0.5535
   11MOL   H158 2178   4.440   1.488   2.357  1.1252  0.0390 -2.5399
   11MOL   H159 2179   4.584   1.532   2.268  1.3124  0.6342 -0.3922
   11MOL   H160 2180   4.577   1.427   2.560  1.7323  1.8888  0.6598
   11MOL   H161 2181   4.706   1.522   2.486  0.3171 -0.3123  2.2341
   11MOL   O162 2182   4.683   1.335   2.412 -0.2182 -0.6194  0.2861
   11MOL   C163 2183   4.771   1.279   2.515 -0.3781 -0.0973 -0.2538
   11MOL   C164 2184   4.855   1.171   2.436  0.3368 -0.1695 -0.0909
   11MOL   C165 2185   4.937   1.072   2.519  0.1545  0.0783  0.8795
   11MOL   H166 2186   4.728   1.237   2.606  3.3885  0.5024  1.9023
   11MOL   H167 2187   4.838   1.358   2.549  0.0030 -0.6973  0.4164
   11MOL   H168 2188   4.781   1.110   2.385 -0.2895  0.5681 -0.0805
   11MOL   H169 2189   4.920   1.225   2.367  0.1643  0.4624  0.2340
   11MOL   H170 2190   4.863   1.035   2.590 -0.6220 -1.7045 -0.8213
   11MOL   H171 2191   5.015   1.108   2.586 -0.3757  0.7206  1.1489
   11MOL   O172 2192   5.000   0.971   2.438  0.1255 -0.0656 -0.1215
   11MOL   C173 2193   5.079   0.873   2.508  0.0539  0.2450 -0.5494
   11MOL   C174 2194   5.129   0.757   2.430  0.8756 -0.1753  0.2121
   11MOL   C175 2195   5.022   0.674   2.359  0.0869  0.7788  0.2548
   11MOL   H176 2196   5.004   0.838   2.579 -0.8434  2.3595 -0.4023
   11MOL   H177 2197   5.155   0.931   2.560 -0.1927 -0.1387  0.2380
   11MOL   H178 2198   5.205   0.792   2.361  1.0888 -0.2719  0.3964
   11MOL   H179 2199   5.180   0.690   2.499  2.3177 -1.3378 -1.9584
   11MOL   H180 2200   4.970   0.732   2.283 -1.2054 -0.1559  0.4269
   11MOL   H181 2201   4.953   0.631   2.431  1.1880  0.4955  1.1563
   11MOL   O182 2202   5.084   0.558   2.291  0.0035  0.1264  0.4869
   11MOL   C183 2203   5.001   0.468   2.215  0.2849 -0.5234  0.0518
   11MOL   C184 2204   5.070   0.339   2.200 -0.1230 -0.1796  0.3631
   11MOL   C185 2205   4.991   0.239   2.126  0.5414  0.1181  0.4492
   11MOL   H186 2206   4.989   0.518   2.118  0.4344 -2.1624 -0.8350
   11MOL   H187 2207   4.904   0.469   2.264 -0.5713  1.3184 -1.6154
   11MOL   H188 2208   5.162   0.348   2.142  0.3687  1.6099  1.4006
   11MOL   H189 2209   5.084   0.318   2.306  0.6282 -0.9469  0.1207
   11MOL   H190 2210   4.993   0.250   2.018  2.3184 -1.0605  0.3398
   11MOL   H191 2211   4.888   0.245   2.161  0.4646 -0.5959  0.3571
   11MOL   O192 2212   5.046   0.113   2.166 -0.0242  0.3864 -0.2307
   11MOL   C193 2213   4.998   0.009   2.079  0.0403  0.5431  0.1519
   11MOL   C194 2214   5.002   7.674   2.161  0.2167 -0.2133 -0.3094
   11MOL   C195 2215   4.877   7.669   2.261 -0.0988  0.3161  0.8129
   11MOL   H196 2216   5.066   0.008   1.994 -1.1263  0.0616 -0.7825
   11MOL   H197 2217   4.897   0.031   2.044  0.3193 -1.7958 -2.2706
   11MOL   H198 2218   5.002   7.583   2.101 -2.1393  0.1251 -0.8547
   11MOL   H199 2219   5.094   7.672   2.219  1.5401  0.8507 -2.3018
   11MOL   H200 2220   4.875   7.583   2.327 -0.0997  0.0553  0.4745
   11MOL   H201 2221   4.792   7.651   2.194  0.6551  0.4304 -0.1881
   11MOL   H202 2222   4.861   7.770   2.299  2.8596  1.1387  0.0109
   12MOL     O1 2223   5.332   4.452   0.940  0.3803 -0.0926 -0.2930
   12MOL     C2 2224   5.468   4.451   0.893 -0.2332 -0.5221  0.1497
   12MOL     C3 2225   5.467   4.454   0.737 -0.2840  0.9681 -0.3962
   12MOL     C4 2226   5.597   4.426   0.668  0.2645 -0.0144  0.3289
   12MOL     H5 2227   5.513   4.358   0.926  0.9487 -0.1203 -0.2964
   12MOL     H6 2228   5.518   4.536   0.939 -2.2774  0.4011  0.7158
   12MOL     H7 2229   5.407   4.370   0.701 -2.2020  0.5244  3.5752
   12MOL     H8 2230   5.418   4.547   0.705 -0.5499  1.4738  1.4603
   12MOL     H9 2231   5.636   4.326   0.686 -1.4454 -0.6078  0.8593
   12MOL    H10 2232   5.670   4.500   0.701  2.2491 -0.9610 -1.8528
   12MOL    H11 2233   5.302   4.364   0.925  1.5639 -0.4586 -0.5658
   12MOL    O12 2234   5.571   4.420   0.529  0.0117 -0.0254  0.2428
   12MOL    C13 2235   5.703   4.403   0.461  0.7233  0.9962 -0.0906
   12MOL    C14 2236   5.726   4.510   0.357 -0.6040  0.0126 -0.2811
   12MOL    C15 2237   5.849   4.483   0.278  0.1945 -0.0956  0.1004
   12MOL    H16 2238   5.701   4.303   0.417  0.8065  0.6560  0.6819
   12MOL    H17 2239   5.782   4.398   0.535 -0.0318  0.9822  0.7224
   12MOL    H18 2240   5.635   4.524   0.297  0.0554 -0.8657 -1.5093
   12MOL    H19 2241   5.725   4.604   0.411 -3.1706  0.3024 -0.7420
   12MOL    H20 2242   5.838   4.401   0.207 -1.6744 -1.1033  1.5339
   12MOL    H21 2243   5.931   4.455   0.344  0.5680  1.2253  0.2169
   12MOL    O22 2244   5.876   4.606   0.213 -0.0078  0.0049  0.2003
   12MOL    C23 2245   6.004   4.616   0.167  0.0202  0.0267 -0.0448
   12MOL    C24 2246   6.034   4.759   0.146 -0.4410  0.2164  0.5374
   12MOL    C25 2247   6.172   4.768   0.078 -0.0138 -0.1467 -0.6160
   12MOL    H26 2248   5.988   4.563   0.074  1.1597  1.9878 -1.3840
   12MOL    H27 2249   6.081   4.564   0.225  0.2721  1.5908  1.0798
   12MOL    H28 2250   5.971   4.805   0.070 -1.1085 -1.2839  0.1760
   12MOL    H29 2251   6.019   4.830   0.227 -0.4321  2.1432 -1.1027
   12MOL    H30 2252   6.167   4.705   7.777  0.4780 -1.6247  0.3833
   12MOL    H31 2253   6.246   4.732   0.150 -0.8042  0.5856  0.5742
   12MOL    O32 2254   6.202   4.901   0.049  0.7263  1.1092  0.0808
   12MOL    C33 2255   6.335   4.931   7.788 -0.0700  0.3302 -0.0316
   12MOL    C34 2256   6.359   5.087   7.783  0.3576  0.0260 -0.2599
   12MOL    C35 2257   6.266   5.167   7.688 -0.3739  0.4341 -0.2539
   12MOL    H36 2258   6.357   4.894   7.688  0.3852  0.9694 -0.1710
   12MOL    H37 2259   6.407   4.877   0.061  0.8697 -0.7429 -2.0495
   12MOL    H38 2260   6.339   5.123   0.096  0.6145 -2.4985  0.7214
   12MOL    H39 2261   6.466   5.106   7.771  0.5647 -0.1648  1.1141
   12MOL    H40 2262   6.170   5.115   7.685  0.2383 -0.6161 -2.7063
   12MOL    H41 2263   6.304   5.139   7.590  2.0710  2.2300  0.1441
   12MOL    O42 2264   6.269   5.306   7.705  0.1740  0.0364 -0.6519
   12MOL    C43 2265   6.204   5.385   7.607 -0.6022 -0.0469 -0.1737
   12MOL    C44 2266   6.158   5.511   7.674  0.0025  0.5960  0.4100
   12MOL    C45 2267   6.087   5.598   7.580 -0.4131  0.3390  0.7331
   12MOL    H46 2268   6.123   5.340   7.550 -1.0661  0.4617  0.0893
   12MOL    H47 2269   6.283   5.411   7.537 -1.2446 -2.6197 -1.9380
   12MOL    H48 2270   6.096   5.506   7.763  0.2553  2.2288  0.6941
   12MOL    H49 2271   6.248   5.564   7.705  1.2124 -0.3866 -1.3341
   12MOL    H50 2272   6.002   5.547   7.534 -0.6913  1.8050 -0.4098
   12MOL    H51 2273   6.158   5.624   7.501 -1.3480 -0.2959 -0.3383
   12MOL    O52 2274   6.068   5.722   7.641  0.2198  0.0871 -0.7695
   12MOL    C53 2275   5.937   5.772   7.626  0.2321  0.1446  0.6902
   12MOL    C54 2276   5.925   5.924   7.663  0.5423  0.2047  0.8353
   12MOL    C55 2277   5.808   5.993   7.582  0.2521  0.2318 -0.0820
   12MOL    H56 2278   5.870   5.706   7.683 -0.8372 -0.7910 -1.5630
   12MOL    H57 2279   5.906   5.758   7.522  1.4285 -1.7858  0.5707
   12MOL    H58 2280   5.899   5.924   7.769 -1.3154  2.0067  0.4171
   12MOL    H59 2281   6.014   5.986   7.648 -0.2354  1.2131  0.2901
   12MOL    H60 2282   5.807   5.983   7.474 -0.0262 -2.0193  0.1090
   12MOL    H61 2283   5.791   6.098   7.609  0.3491  0.4520 -0.8787
   12MOL    O62 2284   5.687   5.930   7.631 -0.5851 -0.1145  0.0968
   12MOL    C63 2285   5.577   5.975   7.561 -0.4747 -0.5864 -0.5440
   12MOL    C64 2286   5.460   5.878   7.589 -0.7464 -0.2298 -0.3792
   12MOL    C65 2287   5.491   5.736   7.549 -0.2176  0.7980 -0.2239
   12MOL    H66 2288   5.587   5.983   7.453 -1.3043 -1.0402 -0.6631
   12MOL    H67 2289   5.553   6.074   7.598  2.1678 -0.5378  1.2193
   12MOL    H68 2290   5.450   5.881   7.697  0.0318  0.0454 -0.3109
   12MOL    H69 2291   5.370   5.919   7.543 -1.3670  0.3751  1.3320
   12MOL    H70 2292   5.593   5.714   7.580 -0.5353  0.8084  0.8232
   12MOL    H71 2293   5.485   5.714   7.442  0.0506  1.4134 -0.3716
   12MOL    O72 2294   5.411   5.645   7.624  0.0321 -0.2959 -0.0269
   12MOL    C73 2295   5.417   5.510   7.571  0.6243  0.3242 -0.1150
   12MOL    C74 2296   5.341   5.419   7.673  0.1382 -0.2731 -0.6443
   12MOL    C75 2297   5.374   5.268   7.654 -0.7763  0.3138  0.1383
   12MOL    H76 2298   5.520   5.485   7.545  0.6550 -0.7844  1.0425
   12MOL    H77 2299   5.368   5.508   7.473 -0.8575 -0.9001  0.6279
   12MOL    H78 2300   5.380   5.445   7.771  1.8569  1.8234 -1.8422
   12MOL    H79 2301   5.233   5.430   7.675  0.3329  1.7838  1.7351
   12MOL    H80 2302   5.334   5.200   7.729 -1.7544 -0.2945 -0.9072
   12MOL    H81 2303   5.481   5.255   7.669 -0.7012  0.3002 -0.3687
   12MOL    O82 2304   5.342   5.218   7.521  0.0647 -0.4744  0.0368
   12MOL    C83 2305   5.401   5.102   7.484 -0.0113  0.2819  0.5767
   12MOL    C84 2306   5.335   4.968   7.528 -0.1725  0.1001 -0.0016
   12MOL    C85 2307   5.369   4.855   7.424  0.2116 -0.3308  0.1763
   12MOL    H86 2308   5.510   5.096   7.489 -0.0634 -1.1225  0.3883
   12MOL    H87 2309   5.390   5.112   7.377  1.1652 -1.2919  0.2889
   12MOL    H88 2310   5.365   4.941   7.629  0.8711 -2.4637 -0.9470
   12MOL    H89 2311   5.228   4.983   7.538  0.1296  2.6277 -0.1533
   12MOL    H90 2312   5.476   4.834   7.419 -0.0998 -1.7337 -0.9403
   12MOL    H91 2313   5.339   4.897   7.328  0.5563  0.2934  0.3392
   12MOL    O92 2314   5.293   4.741   7.441  0.8235  0.5862  0.4039
   12MOL    C93 2315   5.327   4.678   7.568 -0.1391 -0.0199 -0.1931
   12MOL    C94 2316   5.217   4.697   7.667 -0.0778  0.5873  0.4409
   12MOL    C95 2317   5.231   4.626   0.016  0.0558 -0.2670 -0.2300
   12MOL    H96 2318   5.423   4.709   7.609 -0.2427 -1.0751  0.8840
   12MOL    H97 2319   5.336   4.570   7.556  0.5999  0.0865 -0.5820
   12MOL    H98 2320   5.193   4.801   7.691 -2.4121 -0.0460  0.9746
   12MOL    H99 2321   5.128   4.655   7.622  0.5455  1.0251 -1.2193
   12MOL   H100 2322   5.281   4.531   0.002  0.3288 -0.1712  0.0896
   12MOL   H101 2323   5.132   4.607   0.056 -1.4383  0.1134 -3.5368
   12MOL   O102 2324   5.312   4.702   0.103  0.7684 -0.2802 -0.0462
   12MOL   C103 2325   5.304   4.657   0.237 -0.5726 -0.0399  0.2557
   12MOL   C104 2326   5.372   4.768   0.321 -0.0280 -0.6110 -0.0180
   12MOL   C105 2327   5.386   4.737   0.466 -0.1925 -0.2210 -0.4218
   12MOL   H106 2328   5.361   4.565   0.247  0.1815  0.4083  0.0473
   12MOL   H107 2329   5.203   4.636   0.274 -0.4856 -0.2957  0.3450
   12MOL   H108 2330   5.464   4.812   0.282  0.1959  0.2965  1.4969
   12MOL   H109 2331   5.290   4.840   0.321  1.9719  1.7570 -0.7215
   12MOL   H110 2332   5.441   4.644   0.484  0.8877  0.7861  1.5728
   12MOL   H111 2333   5.288   4.714   0.507  0.3883  0.1088  1.1559
   12MOL   O112 2334   5.444   4.846   0.530  0.0801  0.1940  0.3816
   12MOL   C113 2335   5.468   4.822   0.665 -0.4751 -0.6598 -0.1395
   12MOL   C114 2336   5.538   4.939   0.737 -0.4016  0.2285 -0.2726
   12MOL   C115 2337   5.566   4.910   0.890 -0.3996  0.1145 -0.1179
   12MOL   H116 2338   5.533   4.735   0.676 -2.0454 -1.6751  1.3522
   12MOL   H117 2339   5.378   4.786   0.714 -0.9584  2.2460  1.2326
   12MOL   H118 2340   5.633   4.952   0.685  0.8646  0.0833  1.9154
   12MOL   H119 2341   5.486   5.035   0.732  0.8617  1.0477  1.4813
   12MOL   H120 2342   5.471   4.893   0.941  0.4633 -0.4627  1.3091
   12MOL   H121 2343   5.618   4.986   0.949 -1.5879 -0.1471  1.3034
   12MOL   O122 2344   5.653   4.793   0.901 -0.0475 -0.0122 -0.1395
   12MOL   C123 2345   5.682   4.751   1.030 -0.8965  0.1975 -0.4755
   12MOL   C124 2346   5.809   4.666   1.025  0.0008 -0.8594 -0.2585
   12MOL   C125 2347   5.834   4.570   1.136  0.5226 -1.2376 -0.0886
   12MOL   H126 2348   5.595   4.701   1.073 -1.5330  1.2389 -0.5288
   12MOL   H127 2349   5.704   4.827   1.105  0.1404 -0.7405  0.1688
   12MOL   H128 2350   5.823   4.604   0.936  1.4458  0.5046 -0.9950
   12MOL   H129 2351   5.901   4.724   1.021 -0.6780  0.2307 -0.0798
   12MOL   H130 2352   5.759   4.494   1.158 -0.2968 -0.9279 -1.7952
   12MOL   H131 2353   5.837   4.619   1.234  0.3027  0.3797 -0.8765
   12MOL   O132 2354   5.945   4.506   1.094  0.2241 -0.1721 -0.8066
   12MOL   C133 2355   6.012   4.437   1.200 -0.8415  0.7957  0.0001
   12MOL   C134 2356   6.118   4.363   1.127  0.7297  0.6124  0.5934
   12MOL   C135 2357   6.194   4.277   1.229  0.2100 -0.1960  0.2659
   12MOL   H136 2358   5.945   4.370   1.254 -0.1471  1.7556  2.1104
   12MOL   H137 2359   6.060   4.505   1.270  1.6972  0.2281 -1.1401
   12MOL   H138 2360   6.078   4.298   1.049  2.1139  0.6586 -0.1511
   12MOL   H139 2361   6.183   4.433   1.076  2.3229 -0.9060  0.4784
   12MOL   H140 2362   6.272   4.237   1.164 -0.7843 -0.9503 -0.4895
   12MOL   H141 2363   6.127   4.204   1.276 -1.1072  1.8460  1.6136
   12MOL   O142 2364   6.252   4.366   1.325 -0.2140  0.2129 -0.3707
   12MOL   C143 2365   6.315   4.300   1.434 -0.1549  0.4266  0.4175
   12MOL   C144 2366   6.313   4.393   1.551 -0.1120  0.0449 -0.0859
   12MOL   C145 2367   6.386   4.332   1.665 -0.9657  0.8493  0.0439
   12MOL   H146 2368   6.416   4.270   1.404 -0.2436 -1.1697  1.7034
   12MOL   H147 2369   6.267   4.203   1.443 -0.0169  0.0225 -2.5060
   12MOL   H148 2370   6.355   4.490   1.527  1.5139 -0.7853 -0.6629
   12MOL   H149 2371   6.209   4.401   1.584  0.0526 -1.4820  0.8453
   12MOL   H150 2372   6.414   4.398   1.747  0.0130  0.1971  0.2426
   12MOL   H151 2373   6.480   4.293   1.627 -1.0517  0.5091  0.1764
   12MOL   O152 2374   6.305   4.234   1.728  0.1707 -0.6719 -0.0081
   12MOL   C153 2375   6.382   4.146   1.810 -0.1700 -0.7453 -0.4343
   12MOL   C154 2376   6.285   4.054   1.876 -0.7482 -0.1289 -0.5815
   12MOL   C155 2377   6.352   3.932   1.941  0.2567  0.9097  0.6355
   12MOL   H156 2378   6.439   4.201   1.885  1.2956  0.3091 -2.2430
   12MOL   H157 2379   6.453   4.097   1.743  0.7200  1.0600 -0.8535
   12MOL   H158 2380   6.234   4.107   1.956 -0.6902 -0.7688 -0.1229
   12MOL   H159 2381   6.201   4.027   1.811  0.2322 -0.5734 -1.6860
   12MOL   H160 2382   6.434   3.964   2.005  0.6628  1.6693 -0.2409
   12MOL   H161 2383   6.380   3.857   1.867  1.3992  0.7115  1.2566
   12MOL   O162 2384   6.253   3.858   2.019 -0.0940 -0.5183 -0.0333
   12MOL   C163 2385   6.255   3.889   2.155 -0.4238  0.4445  0.3195
   12MOL   C164 2386   6.169   3.798   2.239  0.8471 -0.6376  0.4126
   12MOL   C165 2387   6.131   3.859   2.374  0.3111 -0.2998 -0.0753
   12MOL   H166 2388   6.219   3.991   2.147 -1.7304  0.0399  0.9669
   12MOL   H167 2389   6.349   3.898   2.209 -0.4331 -2.9699  1.0238
   12MOL   H168 2390   6.082   3.769   2.179  2.1431  0.6083 -2.1440
   12MOL   H169 2391   6.229   3.710   2.259  0.2156 -0.6645  2.3432
   12MOL   H170 2392   6.062   3.943   2.364 -0.4499 -0.7372  1.3694
   12MOL   H171 2393   6.223   3.893   2.423  1.2278  1.1869 -2.7562
   12MOL   O172 2394   6.067   3.771   2.462 -0.3400  0.5217  0.2904
   12MOL   C173 2395   5.931   3.789   2.486  0.3515  0.1922 -0.5582
   12MOL   C174 2396   5.885   3.693   2.598 -0.1648 -0.7151  0.4502
   12MOL   C175 2397   5.734   3.682   2.616 -0.0883  0.5754  0.4607
   12MOL   H176 2398   5.857   3.766   2.409  0.6223  2.6600 -1.6078
   12MOL   H177 2399   5.919   3.894   2.511  2.0093  0.0693  0.8678
   12MOL   H178 2400   5.929   3.598   2.568  3.2510  1.3930 -1.6329
   12MOL   H179 2401   5.928   3.718   2.695  0.9939  0.1025 -0.2563
   12MOL   H180 2402   5.705   3.609   2.692 -1.1960  0.5614  0.0328
   12MOL   H181 2403   5.700   3.621   2.533  0.9795  1.5126 -0.6804
   12MOL   O182 2404   5.661   3.805   2.629  0.0324 -0.6278 -0.3630
   12MOL   C183 2405   5.524   3.792   2.646  0.6074  0.0351 -0.4210
   12MOL   C184 2406   5.457   3.922   2.609 -0.3462 -0.1207  0.4529
   12MOL   C185 2407   5.304   3.923   2.627  0.1978 -0.4111  0.0144
   12MOL   H186 2408   5.502   3.778   2.752 -1.1782 -1.1982 -0.9350
   12MOL   H187 2409   5.488   3.713   2.580 -1.2974 -0.0072  0.6624
   12MOL   H188 2410   5.507   4.003   2.661  1.4132 -0.7439 -0.2311
   12MOL   H189 2411   5.470   3.948   2.504 -1.7791  0.1375  0.3296
   12MOL   H190 2412   5.277   3.962   2.725 -0.5289 -2.3200  0.5896
   12MOL   H191 2413   5.264   3.822   2.615 -0.1515 -0.4891  1.7527
   12MOL   O192 2414   5.239   4.012   2.533  0.2273  0.3606 -0.0962
   12MOL   C193 2415   5.100   4.027   2.570  0.1898 -0.3645 -0.0104
   12MOL   C194 2416   5.018   4.029   2.441  0.5218 -0.1505  0.3707
   12MOL   C195 2417   5.066   4.132   2.335  0.5184  0.0739 -0.6093
   12MOL   H196 2418   5.086   4.119   2.628 -0.1486 -0.3515 -0.1143
   12MOL   H197 2419   5.058   3.955   2.639  1.9322  0.1606  1.6337
   12MOL   H198 2420   5.010   3.927   2.402 -3.1431  0.8845 -1.8704
   12MOL   H199 2421   4.916   4.062   2.461  0.7574  0.6555  0.2524
   12MOL   H200 2422   5.052   4.235   2.366 -3.4621 -1.0706  1.8334
   12MOL   H201 2423   5.010   4.119   2.242 -0.3910  1.2290 -0.2252
   12MOL   H202 2424   5.169   4.115   2.301  1.0202 -1.9305  1.7298
   13MOL     O1 2425   6.448   0.163   0.667 -0.0332  0.6439 -0.4361
   13MOL     C2 2426   6.427   0.096   0.792  0.7408  0.0089  0.7527
   13MOL     C3 2427   6.360   0.173   0.897 -0.0103  0.3183 -0.2641
   13MOL     C4 2428   6.346   0.080   1.024  0.1501 -0.3986 -0.1320
   13MOL     H5 2429   6.526   0.061   0.822  1.2908  1.0660  0.1896
   13MOL     H6 2430   6.376   0.002   0.772  2.5878 -0.2021 -3.3527
   13MOL     H7 2431   6.412   0.266   0.921  0.7722 -0.1061 -0.2710
   13MOL     H8 2432   6.262   0.207   0.864  0.2670  0.7698 -0.6388
   13MOL     H9 2433   6.443   0.039   1.052  0.1717 -1.6018 -1.8656
   13MOL    H10 2434   6.287   7.778   1.003  0.4164 -0.8980  1.2093
   13MOL    H11 2435   6.438   0.095   0.602  2.0390 -0.6692  0.5570
   13MOL    O12 2436   6.292   0.159   1.128  0.1318  0.6172  0.1915
   13MOL    C13 2437   6.154   0.155   1.141  0.0128 -0.2507  0.4589
   13MOL    C14 2438   6.129   0.241   1.262 -0.2923 -0.7947 -0.1155
   13MOL    C15 2439   5.983   0.294   1.276  0.2065 -0.2926 -0.1701
   13MOL    H16 2440   6.123   0.055   1.169  0.7174 -0.9489 -1.1941
   13MOL    H17 2441   6.102   0.193   1.053 -1.5365 -0.2264  1.3504
   13MOL    H18 2442   6.166   0.198   1.355 -2.0626 -1.2657  0.3864
   13MOL    H19 2443   6.185   0.335   1.257  1.1818 -1.7265 -2.2023
   13MOL    H20 2444   5.901   0.222   1.277 -1.3002  1.3873  0.3997
   13MOL    H21 2445   5.974   0.355   1.186  0.9683 -1.0972 -0.8014
   13MOL    O22 2446   5.972   0.381   1.383  0.5005  0.1930 -0.1278
   13MOL    C23 2447   5.870   0.353   1.471  0.0949 -1.2853 -0.2811
   13MOL    C24 2448   5.905   0.237   1.574  0.4864 -0.4602 -0.2388
   13MOL    C25 2449   5.824   0.246   1.702  0.3038  0.0443 -0.7993
   13MOL    H26 2450   5.774   0.333   1.422 -0.4091  0.0083  0.1264
   13MOL    H27 2451   5.864   0.445   1.529 -1.4354 -0.6136 -1.4660
   13MOL    H28 2452   5.905   0.139   1.528 -0.9684 -0.7794  0.4358
   13MOL    H29 2453   6.009   0.259   1.599  1.0875 -1.8743 -1.4178
   13MOL    H30 2454   5.861   0.325   1.767 -1.0073 -1.3258  1.6715
   13MOL    H31 2455   5.837   0.146   1.744 -1.6914 -0.1584 -0.5983
   13MOL    O32 2456   5.684   0.257   1.668  0.1514  0.9204  0.2521
   13MOL    C33 2457   5.593   0.276   1.778  0.7660 -0.1720  0.3277
   13MOL    C34 2458   5.572   0.144   1.850  0.0926 -0.4685 -0.0095
   13MOL    C35 2459   5.461   0.156   1.953 -0.1484  1.2203  0.3378
   13MOL    H36 2460   5.497   0.288   1.728  0.5693 -1.6782  0.3218
   13MOL    H37 2461   5.635   0.356   1.838 -2.0176  2.1021 -0.6454
   13MOL    H38 2462   5.547   0.068   1.776 -1.3991  2.0641 -2.2008
   13MOL    H39 2463   5.670   0.106   1.881  0.5038 -0.2810 -1.0855
   13MOL    H40 2464   5.366   0.192   1.914 -2.0273 -2.3943  1.3589
   13MOL    H41 2465   5.492   0.221   2.034 -3.9527  0.3216  2.6497
   13MOL    O42 2466   5.428   0.026   2.003 -0.2353  0.5020 -0.4242
   13MOL    C43 2467   5.360   0.019   2.129 -0.0137  0.2745 -0.8240
   13MOL    C44 2468   5.456   7.780   2.242 -0.6818 -0.1572  0.0677
   13MOL    C45 2469   5.380   7.744   2.373  0.1369 -0.1249  0.1780
   13MOL    H46 2470   5.292   7.722   2.120  0.3168  0.0056 -0.8101
   13MOL    H47 2471   5.290   0.100   2.148 -1.5097 -1.6766  2.3880
   13MOL    H48 2472   5.539   7.712   2.223  0.2396  0.4241  1.9236
   13MOL    H49 2473   5.510   0.085   2.259  1.7476 -1.1626 -1.8266
   13MOL    H50 2474   5.310   7.663   2.350 -0.0548  0.7260 -2.4272
   13MOL    H51 2475   5.326   0.046   2.402  1.7437  1.8844 -2.8316
   13MOL    O52 2476   5.478   7.725   2.473 -0.0532 -0.2434 -0.7166
   13MOL    C53 2477   5.413   7.698   2.597 -0.2058  0.5002 -0.2817
   13MOL    C54 2478   5.512   7.642   2.702  0.5904 -0.2697  0.7251
   13MOL    C55 2479   5.634   7.745   2.722 -0.0724  0.1686  0.7261
   13MOL    H56 2480   5.335   7.625   2.578 -0.4267  0.8369 -0.6892
   13MOL    H57 2481   5.375   0.007   2.629 -2.0304 -0.1251 -0.4746
   13MOL    H58 2482   5.452   7.643   2.793 -0.9728  1.7043 -0.2741
   13MOL    H59 2483   5.550   7.541   2.694 -0.3008 -0.7499  2.3211
   13MOL    H60 2484   5.591   0.053   2.751  0.7555  0.5392  0.7132
   13MOL    H61 2485   5.684   7.755   2.626 -1.6183 -0.4893 -0.1760
   13MOL    O62 2486   5.716   7.684   2.817  0.3822  0.0776  0.5312
   13MOL    C63 2487   5.848   7.743   2.833  0.0979  0.5268  0.3861
   13MOL    C64 2488   5.830   0.072   2.926 -0.4713 -0.4122  0.5062
   13MOL    C65 2489   5.960   0.127   2.971  0.7420  0.4417 -0.6554
   13MOL    H66 2490   5.908   7.758   2.744  1.9066 -3.1432  0.9183
   13MOL    H67 2491   5.905   7.663   2.879 -0.9887 -1.0954 -1.0316
   13MOL    H68 2492   5.764   0.149   2.884 -0.6896 -0.8415  0.0680
   13MOL    H69 2493   5.771   0.042   3.013  0.4880 -2.0683  0.5969
   13MOL    H70 2494   6.014   0.162   2.882 -1.5024 -0.7840 -2.5761
   13MOL    H71 2495   6.007   0.042   3.020 -1.2845  0.6953  1.8102
   13MOL    O72 2496   5.951   0.230   3.067 -0.6405  0.5579 -0.0502
   13MOL    C73 2497   6.075   0.284   3.104 -0.1587 -0.2742 -0.8435
   13MOL    C74 2498   6.040   0.409   3.191 -0.7093 -0.5028  0.0467
   13MOL    C75 2499   6.169   0.473   3.252 -0.5701  0.0700  0.4368
   13MOL    H76 2500   6.128   0.316   3.014  1.9005 -1.8644 -0.2196
   13MOL    H77 2501   6.142   0.213   3.153 -0.1590  0.9766  1.0320
   13MOL    H78 2502   6.005   0.485   3.121 -1.6732 -1.0192 -0.0411
   13MOL    H79 2503   5.966   0.382   3.266  1.4843  2.1731  3.3200
   13MOL    H80 2504   6.224   0.394   3.304  0.5552  0.6641  0.1613
   13MOL    H81 2505   6.136   0.534   3.335  3.3063  0.4540  1.7852
   13MOL    O82 2506   6.256   0.548   3.171 -1.1751 -0.1818  0.0084
   13MOL    C83 2507   6.374   0.598   3.238  0.3012 -0.0611  0.3587
   13MOL    C84 2508   6.470   0.651   3.134  0.0822  1.0212  0.1187
   13MOL    C85 2509   6.597   0.713   3.201  0.7176  0.1527 -0.0674
   13MOL    H86 2510   6.422   0.517   3.294 -0.3948 -0.4015  0.4732
   13MOL    H87 2511   6.346   0.677   3.306 -0.6596  0.9415 -1.1732
   13MOL    H88 2512   6.491   0.568   3.067 -0.6040  0.0423  1.0991
   13MOL    H89 2513   6.422   0.738   3.089 -1.3075  0.5481  0.6581
   13MOL    H90 2514   6.657   0.639   3.255 -3.3291 -2.7854  0.6578
   13MOL    H91 2515   6.566   0.787   3.275 -2.0194  0.5874 -1.5853
   13MOL    O92 2516   6.679   0.766   3.099  0.5663 -0.3388 -0.1243
   13MOL    C93 2517   6.676   0.907   3.079 -0.0846 -0.6443 -0.1756
   13MOL    C94 2518   6.757   0.925   2.954 -0.8532  0.2253  0.8568
   13MOL    C95 2519   6.905   0.946   2.979 -0.3767  0.4296  0.0863
   13MOL    H96 2520   6.716   0.969   3.159  0.1028 -0.1717 -0.6324
   13MOL    H97 2521   6.573   0.938   3.062 -0.0470 -0.7446 -0.5934
   13MOL    H98 2522   6.751   0.837   2.891 -1.6130  1.1540 -0.3726
   13MOL    H99 2523   6.736   1.011   2.891  2.5773 -1.2689 -2.5193
   13MOL   H100 2524   6.949   0.930   2.881 -0.1274  0.6411  0.1632
   13MOL   H101 2525   6.946   0.876   3.052  0.4642 -1.2702 -1.9973
   13MOL   O102 2526   6.929   1.076   3.021  0.0770 -0.4920  0.0692
   13MOL   C103 2527   7.058   1.114   3.056 -0.2279 -0.2575 -0.0604
   13MOL   C104 2528   7.072   1.249   3.128  0.6426  0.2279 -0.0962
   13MOL   C105 2529   7.218   1.302   3.121 -0.5159 -0.5318  0.5372
   13MOL   H106 2530   7.118   1.102   2.966  1.7726 -0.1671  1.2158
   13MOL   H107 2531   7.105   1.053   3.133  0.7367  0.5021 -0.0312
   13MOL   H108 2532   6.999   1.319   3.087  0.7350  1.8013  2.3201
   13MOL   H109 2533   7.043   1.247   3.233 -0.1034  2.4708 -0.2204
   13MOL   H110 2534   7.236   1.331   3.017  3.4123  1.2453  1.6408
   13MOL   H111 2535   7.287   1.227   3.158 -1.2344 -1.6431 -0.3242
   13MOL   O112 2536   7.225   1.428   3.191 -0.3987  0.1436 -0.3051
   13MOL   C113 2537   7.358   1.461   3.216  0.5285  0.5732  0.0521
   13MOL   C114 2538   7.364   1.587   3.281 -0.2255  0.3173  0.1835
   13MOL   C115 2539   7.493   1.670   3.273 -0.1989  0.5443 -0.3376
   13MOL   H116 2540   7.411   1.461   3.121  0.3389 -1.9007 -0.0770
   13MOL   H117 2541   7.411   1.383   3.272  1.0825  1.6160  1.0010
   13MOL   H118 2542   7.271   1.637   3.252  0.0395 -0.1514 -1.5196
   13MOL   H119 2543   7.353   1.580   3.389  1.5196 -1.4427  0.2581
   13MOL   H120 2544   7.538   1.669   3.173  0.9903  0.1156  0.1924
   13MOL   H121 2545   7.564   1.623   3.341  1.1063 -0.8370 -2.5499
   13MOL   O122 2546   7.477   1.805   3.306 -0.0505  0.2215 -0.1923
   13MOL   C123 2547   7.591   1.864   3.359  0.3920  0.0814 -0.2601
   13MOL   C124 2548   7.704   1.869   3.259  0.3605  0.6538  0.2960
   13MOL   C125 2549   0.026   1.961   3.315 -0.5382 -0.5010 -0.4071
   13MOL   H126 2550   7.616   1.818   3.454  1.4444  2.2984  0.5817
   13MOL   H127 2551   7.572   1.967   3.391  0.3107  0.1109 -0.4036
   13MOL   H128 2552   7.738   1.765   3.253  2.8846  1.4568  0.0413
   13MOL   H129 2553   7.672   1.911   3.164 -0.6590  0.7521  0.6766
   13MOL   H130 2554   0.045   1.929   3.418  0.2221 -0.7962 -0.6348
   13MOL   H131 2555   7.776   2.062   3.324 -0.1910 -0.5436  2.0961
   13MOL   O132 2556   0.138   1.947   3.228 -0.0340  0.8572  0.3750
   13MOL   C133 2557   0.246   2.025   3.274 -0.4172  0.0076 -0.6405
   13MOL   C134 2558   0.362   2.017   3.183  0.4208  0.6368 -0.7359
   13MOL   C135 2559   0.422   1.879   3.165 -0.2044  0.0301 -0.1080
   13MOL   H136 2560   0.281   1.980   3.367  0.4257  1.0806 -0.4187
   13MOL   H137 2561   0.219   2.129   3.292  1.0098  0.8248 -3.0077
   13MOL   H138 2562   0.329   2.050   3.084  1.5993 -0.3445 -1.4596
   13MOL   H139 2563   0.439   2.080   3.227  0.9950 -1.1088  0.8228
   13MOL   H140 2564   0.367   1.817   3.094  0.1322 -2.6415  1.8791
   13MOL   H141 2565   0.425   1.822   3.257  2.9285 -2.0580 -1.4440
   13MOL   O142 2566   0.559   1.887   3.118  0.4313 -0.3078  0.0026
   13MOL   C143 2567   0.589   1.931   2.983  0.2803 -0.0482 -0.0584
   13MOL   C144 2568   0.581   1.819   2.884 -0.0319  0.1425  1.0396
   13MOL   C145 2569   0.582   1.863   2.736  0.4340  0.0075  0.1663
   13MOL   H146 2570   0.692   1.967   2.984  0.1409  0.5022 -2.5378
   13MOL   H147 2571   0.534   2.021   2.954 -0.6663 -1.1801 -1.8357
   13MOL   H148 2572   0.650   1.737   2.904  0.8474  0.7928  0.6818
   13MOL   H149 2573   0.481   1.777   2.892 -0.4590  0.9539  0.0692
   13MOL   H150 2574   0.661   1.934   2.709 -1.2260  1.6353 -0.5382
   13MOL   H151 2575   0.482   1.896   2.709 -0.1512 -1.3426  0.6595
   13MOL   O152 2576   0.600   1.738   2.667  0.3137 -0.2473  0.2906
   13MOL   C153 2577   0.604   1.762   2.526  0.1316  0.3322 -0.6952
   13MOL   C154 2578   0.588   1.634   2.448 -0.3119  0.9030 -0.1438
   13MOL   C155 2579   0.607   1.646   2.298 -0.2692 -0.3076  0.1400
   13MOL   H156 2580   0.702   1.808   2.517  0.1455  0.6615  0.9486
   13MOL   H157 2581   0.527   1.832   2.493  0.1192  0.8304  0.3790
   13MOL   H158 2582   0.667   1.565   2.477  0.7913  2.2373  0.0784
   13MOL   H159 2583   0.492   1.585   2.465 -0.1833  0.4925 -0.5787
   13MOL   H160 2584   0.551   1.729   2.256  1.2254 -1.0088 -3.4802
   13MOL   H161 2585   0.565   1.551   2.263 -0.7248  0.0279 -0.2280
   13MOL   O162 2586   0.746   1.658   2.275  0.5349 -0.2724 -0.7748
   13MOL   C163 2587   0.779   1.614   2.139 -0.0589  0.5415  0.2958
   13MOL   C164 2588   0.929   1.599   2.133 -0.2257 -0.5100  0.3755
   13MOL   C165 2589   0.981   1.601   1.988 -0.1138 -0.4242  0.0868
   13MOL   H166 2590   0.750   1.695   2.072 -0.8336  1.7064  1.9900
   13MOL   H167 2591   0.743   1.520   2.099 -1.9885  1.3818  0.0256
   13MOL   H168 2592   0.975   1.681   2.189 -0.8285  1.0703 -1.4174
   13MOL   H169 2593   0.955   1.510   2.189 -2.2263 -0.2236  1.8161
   13MOL   H170 2594   1.078   1.650   1.990 -0.0937 -0.4232 -0.6568
   13MOL   H171 2595   0.919   1.658   1.918  0.3099 -1.1693 -0.9075
   13MOL   O172 2596   0.988   1.469   1.938  0.7438 -0.0433  0.0372
   13MOL   C173 2597   1.041   1.472   1.805  0.5214 -0.5992  0.8000
   13MOL   C174 2598   1.105   1.335   1.769 -0.0183  0.1093  0.1099
   13MOL   C175 2599   1.203   1.330   1.648  0.0839 -0.0538 -0.0998
   13MOL   H176 2600   1.115   1.550   1.785  1.1256 -1.0997  1.0596
   13MOL   H177 2601   0.959   1.504   1.741 -1.5993 -0.5994  3.4809
   13MOL   H178 2602   1.165   1.298   1.852  0.5510  0.6730 -0.0414
   13MOL   H179 2603   1.029   1.258   1.763  1.2168 -1.0885 -0.3685
   13MOL   H180 2604   1.168   1.400   1.573  0.1286 -2.5155 -2.4961
   13MOL   H181 2605   1.213   1.233   1.598  2.1248  1.9211 -3.6839
   13MOL   O182 2606   1.335   1.371   1.691 -0.1482 -0.2004  0.0666
   13MOL   C183 2607   1.429   1.357   1.588 -0.3987 -0.0473  0.5722
   13MOL   C184 2608   1.553   1.446   1.601  0.3291 -0.2633  0.1188
   13MOL   C185 2609   1.633   1.433   1.470  0.4893 -0.3827 -0.6180
   13MOL   H186 2610   1.387   1.370   1.488  0.2006 -1.6064  0.0956
   13MOL   H187 2611   1.466   1.254   1.587  0.7865  0.3773  0.2638
   13MOL   H188 2612   1.521   1.550   1.609  1.1833  0.1975 -1.8865
   13MOL   H189 2613   1.608   1.407   1.686  0.4904  0.1415  0.2054
   13MOL   H190 2614   1.584   1.486   1.388  2.3980 -1.0279 -2.1869
   13MOL   H191 2615   1.644   1.327   1.450  1.4820 -0.3403 -0.2962
   13MOL   O192 2616   1.753   1.502   1.489 -0.1532 -0.2060 -0.2827
   13MOL   C193 2617   1.834   1.514   1.373 -0.0633  0.2829 -0.2847
   13MOL   C194 2618   1.934   1.629   1.387 -0.1251 -0.0735 -0.0768
   13MOL   C195 2619   1.888   1.767   1.343  0.1876  0.6284 -0.3950
   13MOL   H196 2620   1.774   1.529   1.283 -0.7142  0.0058  0.1008
   13MOL   H197 2621   1.883   1.418   1.363  0.2302  0.6033 -2.3206
   13MOL   H198 2622   1.964   1.624   1.492  0.3087  1.4353 -0.1155
   13MOL   H199 2623   2.028   1.600   1.341 -0.2554 -0.9554  0.1926
   13MOL   H200 2624   1.978   1.826   1.357  1.9241 -1.7043 -1.4433
   13MOL   H201 2625   1.805   1.817   1.394  2.5526  3.4385  0.7890
   13MOL   H202 2626   1.863   1.769   1.237 -4.0337 -1.7708  0.4093
   14MOL     O1 2627   2.325   0.542   3.260  0.1227  0.4510  0.5647
   14MOL     C2 2628   2.345   0.668   3.320  0.7815  0.2785  0.1792
   14MOL     C3 2629   2.316   0.674   3.469 -0.4598  0.4247 -1.1425
   14MOL     C4 2630   2.367   0.805   3.536 -0.2344  0.2201 -0.4778
   14MOL     H5 2631   2.286   0.738   3.261  1.7765  0.3749 -0.7211
   14MOL     H6 2632   2.447   0.699   3.300 -0.2164  3.6095 -0.1046
   14MOL     H7 2633   2.209   0.667   3.486  0.0945 -0.3106  2.4644
   14MOL     H8 2634   2.369   0.590   3.514  1.9820  2.2727 -0.4574
   14MOL     H9 2635   2.310   0.809   3.629 -0.4017  1.8529 -0.6445
   14MOL    H10 2636   2.331   0.892   3.481  0.0074  1.2302  0.9292
   14MOL    H11 2637   2.235   0.537   3.231  0.8283  2.3890 -2.1729
   14MOL    O12 2638   2.507   0.809   3.539 -0.2155  0.5509  0.1744
   14MOL    C13 2639   2.558   0.930   3.582 -0.6919  0.0447 -0.0881
   14MOL    C14 2640   2.561   0.943   3.731  0.4685 -0.1257  0.0968
   14MOL    C15 2641   2.665   1.035   3.785 -0.2358 -0.0556 -0.0905
   14MOL    H16 2642   2.532   1.023   3.531  0.1464  1.2204  1.5733
   14MOL    H17 2643   2.658   0.897   3.554 -0.1647  2.1679 -0.7759
   14MOL    H18 2644   2.472   0.989   3.773  0.3572 -0.3420  0.0984
   14MOL    H19 2645   2.557   0.843   3.774  1.1906 -0.5809 -0.8750
   14MOL    H20 2646   2.659   1.136   3.743 -1.5009 -0.3381 -0.6183
   14MOL    H21 2647   2.766   1.000   3.767 -0.8081 -1.8328  0.0411
   14MOL    O22 2648   2.659   1.033   3.929 -0.8200  0.2390  0.2435
   14MOL    C23 2649   2.743   1.128   3.990 -0.5285  0.4837  0.3849
   14MOL    C24 2650   2.699   1.143   4.131 -0.3911 -0.1040  0.4960
   14MOL    C25 2651   2.790   1.230   4.214 -0.2378 -1.0298  0.4850
   14MOL    H26 2652   2.730   1.224   3.941 -0.8173  0.1693 -0.1572
   14MOL    H27 2653   2.850   1.107   3.980 -0.8191 -0.0515 -1.9489
   14MOL    H28 2654   2.593   1.169   4.131 -0.8915 -1.9372  2.9070
   14MOL    H29 2655   2.686   1.046   4.180 -1.0754 -1.2314 -1.8692
   14MOL    H30 2656   2.784   1.328   4.166  1.9581 -1.6553 -1.1616
   14MOL    H31 2657   2.896   1.206   4.206 -0.0160  0.6204 -1.8712
   14MOL    O32 2658   2.735   1.235   4.349 -0.7265  0.5701 -0.1255
   14MOL    C33 2659   2.773   1.338   4.429  0.0279 -0.5985 -0.4965
   14MOL    C34 2660   2.643   1.409   4.464  0.4684 -0.0083  0.0736
   14MOL    C35 2661   2.660   1.527   4.563 -0.5998 -0.8433 -0.3848
   14MOL    H36 2662   2.838   1.400   4.368  0.1433 -0.4260 -0.2005
   14MOL    H37 2663   2.831   1.309   4.517  0.5021 -1.0301 -0.9460
   14MOL    H38 2664   2.597   1.457   4.378 -0.6087 -0.4659  0.3857
   14MOL    H39 2665   2.563   1.350   4.508  0.5116  2.0797  3.1178
   14MOL    H40 2666   2.709   1.606   4.505  0.1071 -0.4725  0.7006
   14MOL    H41 2667   2.732   1.512   4.643  0.0822  3.4728 -0.0273
   14MOL    O42 2668   2.529   1.563   4.610  0.1257 -0.2130 -1.0127
   14MOL    C43 2669   2.539   1.674   4.701  0.3999 -0.5928  0.3846
   14MOL    C44 2670   2.511   1.800   4.618 -0.1336 -0.1239 -0.0488
   14MOL    C45 2671   2.533   1.924   4.698  0.7303  0.1201  0.2812
   14MOL    H46 2672   2.641   1.682   4.739  0.8136 -0.8871 -0.6393
   14MOL    H47 2673   2.466   1.658   4.779 -0.1198 -1.4324 -0.2759
   14MOL    H48 2674   2.593   1.797   4.546 -1.1654 -0.3369 -1.2274
   14MOL    H49 2675   2.416   1.790   4.566  0.3837 -2.1654 -0.6552
   14MOL    H50 2676   2.509   2.013   4.639  2.6716  0.1656 -0.4838
   14MOL    H51 2677   2.632   1.927   4.743  0.6785  0.2346  0.3877
   14MOL    O52 2678   2.454   1.939   4.816  0.1583 -0.1949  0.2018
   14MOL    C53 2679   2.448   2.061   4.893 -0.0665 -0.2421  0.1032
   14MOL    C54 2680   2.422   2.008   5.034 -0.1018 -0.3324  0.2166
   14MOL    C55 2681   2.413   2.126   5.130 -0.1236 -0.8770  0.8625
   14MOL    H56 2682   2.368   2.126   4.857  1.9993  0.5831 -3.1048
   14MOL    H57 2683   2.547   2.105   4.889  1.5286 -3.3364  2.7324
   14MOL    H58 2684   2.332   1.947   5.044  0.9965 -1.7526  1.6896
   14MOL    H59 2685   2.502   1.939   5.059  0.3531  0.1551  0.1282
   14MOL    H60 2686   2.339   2.200   5.100  1.2687  0.0462 -0.3474
   14MOL    H61 2687   2.510   2.174   5.141 -1.1503  1.2936  0.6493
   14MOL    O62 2688   2.383   2.070   5.260 -0.4196 -0.1300  0.0185
   14MOL    C63 2689   2.396   2.166   5.365  0.5224  0.1249  0.7551
   14MOL    C64 2690   2.462   2.107   5.494  0.1199 -0.2170  0.8698
   14MOL    C65 2691   2.585   2.021   5.478  0.1613  0.3050 -0.3360
   14MOL    H66 2692   2.297   2.207   5.379  0.4969  0.7275 -1.0419
   14MOL    H67 2693   2.459   2.248   5.330 -0.6458  0.1299 -1.4065
   14MOL    H68 2694   2.487   2.191   5.559 -2.3357 -1.1489  3.0922
   14MOL    H69 2695   2.378   2.057   5.542 -0.7540 -0.4485 -0.8679
   14MOL    H70 2696   2.671   2.082   5.451  1.5981 -0.7792  1.5983
   14MOL    H71 2697   2.561   1.957   5.393 -3.8291  1.5779 -0.2698
   14MOL    O72 2698   2.605   1.932   5.589  0.1724 -0.6858 -0.1947
   14MOL    C73 2699   2.715   1.838   5.568 -0.2498  0.7560 -0.4102
   14MOL    C74 2700   2.691   1.722   5.658 -0.1554 -0.3797  0.3609
   14MOL    C75 2701   2.805   1.613   5.635  0.6655 -0.2971 -0.2817
   14MOL    H76 2702   2.809   1.889   5.584 -0.0882  0.6270 -0.9584
   14MOL    H77 2703   2.725   1.799   5.467  1.5956  3.1164 -1.1603
   14MOL    H78 2704   2.685   1.763   5.759 -0.9705  0.8633 -0.1811
   14MOL    H79 2705   2.594   1.682   5.628 -0.0041 -1.0898  0.8014
   14MOL    H80 2706   2.900   1.667   5.643 -1.3053  3.0810  1.4616
   14MOL    H81 2707   2.783   1.584   5.532  2.2727 -1.6262 -0.2566
   14MOL    O82 2708   2.787   1.498   5.717  0.0187 -0.1957 -0.2645
   14MOL    C83 2709   2.865   1.383   5.673  0.1669 -0.1884  0.3209
   14MOL    C84 2710   2.847   1.250   5.755  0.3332  0.6006 -0.5927
   14MOL    C85 2711   2.721   1.162   5.727  0.3479  0.3689  0.6576
   14MOL    H86 2712   2.970   1.401   5.652 -0.3196 -0.5458 -2.5822
   14MOL    H87 2713   2.820   1.365   5.575 -2.8074  2.1411  1.1675
   14MOL    H88 2714   2.932   1.183   5.744 -0.1300  0.4625 -3.7590
   14MOL    H89 2715   2.838   1.282   5.859 -2.5202 -0.9882 -0.2865
   14MOL    H90 2716   2.726   1.136   5.621  1.4725 -3.3391  1.5601
   14MOL    H91 2717   2.631   1.223   5.735  0.1455  0.2942 -0.8755
   14MOL    O92 2718   2.733   1.053   5.817 -0.4122  0.0756 -0.0797
   14MOL    C93 2719   2.637   0.956   5.792  0.3116 -0.6338 -0.0043
   14MOL    C94 2720   2.628   0.868   5.912 -0.0045  0.3211 -0.1013
   14MOL    C95 2721   2.533   0.744   5.887 -0.8792 -0.3070 -0.6476
   14MOL    H96 2722   2.649   0.905   5.696  2.2424 -0.8013  0.3163
   14MOL    H97 2723   2.544   1.013   5.791  1.6176  1.5626  1.2872
   14MOL    H98 2724   2.729   0.836   5.938 -1.3552 -2.4137  2.0526
   14MOL    H99 2725   2.591   0.934   5.990 -1.0310 -0.2595 -0.0837
   14MOL   H100 2726   2.536   0.729   5.779  1.2973 -1.1754 -0.4848
   14MOL   H101 2727   2.437   0.782   5.922 -1.2414 -0.9174 -0.9490
   14MOL   O102 2728   2.591   0.637   5.950  0.0779  0.8899  0.5478
   14MOL   C103 2729   2.493   0.535   5.939  0.5326  0.2364 -0.0472
   14MOL   C104 2730   2.562   0.409   5.980  0.3327 -0.0277 -0.0888
   14MOL   C105 2731   2.471   0.291   5.984  0.0122 -0.0624  0.0466
   14MOL   H106 2732   2.455   0.525   5.837  0.4456 -1.7081  0.1586
   14MOL   H107 2733   2.413   0.550   6.012  1.6124 -2.0226  1.6830
   14MOL   H108 2734   2.635   0.385   5.902  0.2534 -1.6344  0.3066
   14MOL   H109 2735   2.613   0.420   6.075 -1.2105  0.3991  0.7165
   14MOL   H110 2736   2.396   0.299   6.063 -0.2541  0.8139 -0.2918
   14MOL   H111 2737   2.534   0.206   6.013 -0.1368  0.0455  0.6832
   14MOL   O112 2738   2.405   0.282   5.851 -0.0727 -0.0974  0.3426
   14MOL   C113 2739   2.355   0.153   5.829  0.2211 -0.0799  0.1436
   14MOL   C114 2740   2.264   0.140   5.711 -0.2087  0.4729  0.4567
   14MOL   C115 2741   2.202   7.787   5.702  0.2601  0.2349  0.0451
   14MOL   H116 2742   2.305   0.130   5.923  0.5226 -2.0652 -0.1550
   14MOL   H117 2743   2.436   0.081   5.827  2.1358  2.0628 -2.3538
   14MOL   H118 2744   2.182   0.210   5.729 -0.7992  0.1442 -0.8501
   14MOL   H119 2745   2.315   0.177   5.622 -0.8872 -0.1339 -0.1964
   14MOL   H120 2746   2.111   0.006   5.761 -0.5607 -1.4207 -0.9541
   14MOL   H121 2747   2.264   7.711   5.749 -0.2428 -1.2202 -1.5755
   14MOL   O122 2748   2.165   7.767   5.559 -0.6028 -0.1281 -0.4544
   14MOL   C123 2749   2.118   7.640   5.533 -0.2210  0.2689 -0.6022
   14MOL   C124 2750   2.093   7.634   5.381  0.2317  0.0912  0.7028
   14MOL   C125 2751   2.046   7.504   5.326  0.2501 -0.0623 -0.2063
   14MOL   H126 2752   2.022   7.627   5.584 -0.7181 -1.0673 -1.8649
   14MOL   H127 2753   2.191   7.564   5.561 -1.3819 -0.8642 -0.6577
   14MOL   H128 2754   2.008   7.701   5.372 -1.2370 -1.7672  0.2701
   14MOL   H129 2755   2.179   7.674   5.329  0.0430  0.2918  0.5446
   14MOL   H130 2756   2.007   7.517   5.225  2.3192  0.1556 -0.9970
   14MOL   H131 2757   1.963   7.475   5.390  1.5798 -0.3149  1.4490
   14MOL   O132 2758   2.149   7.405   5.328 -0.0809  0.8100  0.2928
   14MOL   C133 2759   2.082   7.278   5.304  0.0704  0.3276 -0.0991
   14MOL   C134 2760   2.187   7.164   5.308  1.1525  0.3583  0.5533
   14MOL   C135 2761   2.120   7.035   5.247  0.7485  0.2612 -0.4028
   14MOL   H136 2762   2.051   7.293   5.201  4.4216  0.5181 -1.4984
   14MOL   H137 2763   1.995   7.250   5.363  0.2265  0.5394  0.2283
   14MOL   H138 2764   2.273   7.175   5.243  0.3443  0.4032 -0.5092
   14MOL   H139 2765   2.222   7.144   5.410 -0.6801 -1.4919  0.8640
   14MOL   H140 2766   2.059   7.059   5.161  0.2047 -1.9548 -0.6744
   14MOL   H141 2767   2.043   6.993   5.313  1.6528  1.4655  1.4667
   14MOL   O142 2768   2.211   6.923   5.232  0.4116 -0.1278 -0.1043
   14MOL   C143 2769   2.144   6.800   5.202 -0.0157 -0.0944 -0.3259
   14MOL   C144 2770   2.081   6.809   5.058 -0.0644 -0.1709  0.5555
   14MOL   C145 2771   2.045   6.673   4.995  0.0895 -0.7434 -0.2568
   14MOL   H146 2772   2.070   6.785   5.281  1.8534 -0.5662  1.3781
   14MOL   H147 2773   2.216   6.718   5.200 -0.2348 -0.2595 -1.7102
   14MOL   H148 2774   1.999   6.879   5.045  0.5411 -0.1585 -3.7447
   14MOL   H149 2775   2.154   6.849   4.988 -0.2897 -1.7652 -0.6080
   14MOL   H150 2776   1.991   6.613   5.070  0.3357 -2.6926 -1.5960
   14MOL   H151 2777   2.130   6.610   4.968  1.1639  1.3018 -1.7580
   14MOL   O152 2778   1.970   6.687   4.876  0.3700 -0.1903  0.2725
   14MOL   C153 2779   1.962   6.566   4.798  0.2259  0.0280  0.1725
   14MOL   C154 2780   1.854   6.592   4.691  0.5519  0.6828  0.3899
   14MOL   C155 2781   1.812   6.475   4.603  0.0018  0.5975 -0.5886
   14MOL   H156 2782   1.920   6.486   4.859  0.2079 -0.4658 -0.4742
   14MOL   H157 2783   2.058   6.548   4.751 -0.7119 -0.8059 -1.4773
   14MOL   H158 2784   1.766   6.636   4.737  0.0917 -1.8704  2.0711
   14MOL   H159 2785   1.891   6.659   4.613  2.5553 -0.2037  0.5530
   14MOL   H160 2786   1.897   6.418   4.565  1.5200  1.4054  1.4697
   14MOL   H161 2787   1.742   6.503   4.524 -1.4872  1.0193  0.8567
   14MOL   O162 2788   1.740   6.385   4.690 -0.6135 -0.5424  0.5547
   14MOL   C163 2789   1.687   6.276   4.613 -0.7543 -0.0997 -0.2773
   14MOL   C164 2790   1.651   6.159   4.709 -0.0730  0.1956  0.0604
   14MOL   C165 2791   1.624   6.024   4.644 -0.0768 -0.3098  0.5721
   14MOL   H166 2792   1.766   6.230   4.553 -1.0588 -0.5457 -0.3345
   14MOL   H167 2793   1.599   6.308   4.557 -0.1691 -1.0942 -1.7923
   14MOL   H168 2794   1.731   6.155   4.783  1.0780 -0.6070 -1.1931
   14MOL   H169 2795   1.565   6.189   4.769  1.4793  1.6087  1.6519
   14MOL   H170 2796   1.579   5.951   4.711 -5.6209  1.2401 -1.2069
   14MOL   H171 2797   1.719   5.987   4.604 -0.5443 -0.5496 -0.3209
   14MOL   O172 2798   1.536   6.032   4.534  0.0875 -1.0883 -0.3831
   14MOL   C173 2799   1.525   5.907   4.468 -0.0306 -0.2168 -0.1500
   14MOL   C174 2800   1.424   5.924   4.354 -0.2749 -0.1679  0.0546
   14MOL   C175 2801   1.377   5.791   4.303  0.4252 -0.4739 -0.2378
   14MOL   H176 2802   1.496   5.835   4.545  0.5408  0.4459  0.6910
   14MOL   H177 2803   1.618   5.866   4.429 -0.1231 -0.2630 -0.3241
   14MOL   H178 2804   1.340   5.987   4.385  0.4087  0.4592  0.6279
   14MOL   H179 2805   1.473   5.972   4.269 -1.4909 -1.9475 -1.7158
   14MOL   H180 2806   1.458   5.724   4.275  0.2198 -0.8523  0.0616
   14MOL   H181 2807   1.319   5.826   4.218  0.0601 -1.1033 -0.2512
   14MOL   O182 2808   1.290   5.721   4.395 -0.1248 -0.1758  0.1927
   14MOL   C183 2809   1.303   5.581   4.395 -0.3215  0.0767  0.9029
   14MOL   C184 2810   1.184   5.517   4.458 -0.1331  0.5874  0.9410
   14MOL   C185 2811   1.214   5.372   4.503  0.0008 -0.4964 -0.2466
   14MOL   H186 2812   1.388   5.559   4.460 -0.2695  1.6597  1.3841
   14MOL   H187 2813   1.329   5.533   4.301  1.9036  2.9282 -0.0192
   14MOL   H188 2814   1.148   5.570   4.546  0.1599  1.7555  0.3660
   14MOL   H189 2815   1.100   5.525   4.390  0.3336  0.2273  0.3161
   14MOL   H190 2816   1.126   5.336   4.557  1.4908 -1.6596  1.4693
   14MOL   H191 2817   1.298   5.372   4.573  0.6247  1.9931 -0.9494
   14MOL   O192 2818   1.249   5.299   4.387  0.8401 -0.9821 -0.6177
   14MOL   C193 2819   1.275   5.166   4.414  0.0426 -0.0215 -0.5386
   14MOL   C194 2820   1.361   5.118   4.298 -0.4776 -0.8848 -0.2959
   14MOL   C195 2821   1.509   5.182   4.312  0.7415  1.0844  0.1774
   14MOL   H196 2822   1.186   5.106   4.434 -0.8262  1.7891  1.1848
   14MOL   H197 2823   1.337   5.145   4.501  0.1203 -1.8245 -1.0052
   14MOL   H198 2824   1.374   5.010   4.309  3.7395 -0.2421  2.1418
   14MOL   H199 2825   1.314   5.147   4.204  0.0662 -0.8448 -0.5535
   14MOL   H200 2826   1.562   5.163   4.405 -0.1077  0.1078  0.4766
   14MOL   H201 2827   1.511   5.291   4.303  3.6008  1.0189 -0.3601
   14MOL   H202 2828   1.569   5.135   4.235  1.3132 -1.7229  2.2808
   15MOL     O1 2829   5.031   7.593   6.268 -0.0839  0.1679  0.2182
   15MOL     C2 2830   5.038   7.703   6.360 -0.0441 -0.1098  0.0623
   15MOL     C3 2831   5.178   7.709   6.430  0.2790  0.5457  0.7255
   15MOL     C4 2832   5.191   0.035   6.532 -0.1516  0.2679  0.6120
   15MOL     H5 2833   4.960   7.690   6.435  0.7617  1.2313  1.1624
   15MOL     H6 2834   5.015   0.007   6.306 -1.7376 -2.3583 -3.2342
   15MOL     H7 2835   5.213   7.617   6.475 -0.7259 -1.2320 -2.0342
   15MOL     H8 2836   5.250   7.715   6.349  1.4785  0.8690  1.7941
   15MOL     H9 2837   5.158   0.010   6.633  2.3055  1.6779  1.8044
   15MOL    H10 2838   5.133   0.119   6.492 -0.0767  0.8761  1.7718
   15MOL    H11 2839   4.961   7.546   6.310 -1.3449  1.3699 -0.4964
   15MOL    O12 2840   5.324   0.080   6.523  0.0196 -0.2382 -0.0934
   15MOL    C13 2841   5.369   0.167   6.629 -0.6951  0.2413  0.1201
   15MOL    C14 2842   5.361   0.108   6.773 -0.3512  0.2281  0.5680
   15MOL    C15 2843   5.454   0.191   6.872 -0.0927 -0.2813  0.4169
   15MOL    H16 2844   5.311   0.259   6.638 -2.7159 -1.0596  0.9360
   15MOL    H17 2845   5.474   0.183   6.607 -0.6789  1.1025  0.8432
   15MOL    H18 2846   5.258   0.097   6.809 -0.7008 -1.0847 -0.7489
   15MOL    H19 2847   5.412   0.012   6.780 -2.5146 -0.9123  1.2733
   15MOL    H20 2848   5.549   0.202   6.819 -0.2144 -0.7284  0.0999
   15MOL    H21 2849   5.479   0.152   6.970 -2.4225  0.0020  1.1468
   15MOL    O22 2850   5.402   0.324   6.889 -0.6620  0.4161 -0.1450
   15MOL    C23 2851   5.486   0.421   6.943 -0.3907 -0.2609 -0.0654
   15MOL    C24 2852   5.594   0.476   6.852  0.0559 -0.7017  1.0433
   15MOL    C25 2853   5.539   0.531   6.724  0.2426 -0.3684  0.0751
   15MOL    H26 2854   5.542   0.379   7.026  0.4879  0.3508 -0.3477
   15MOL    H27 2855   5.428   0.504   6.984  0.5773  1.1165 -1.4522
   15MOL    H28 2856   5.643   0.553   6.911 -0.0226  0.9765 -0.9819
   15MOL    H29 2857   5.666   0.398   6.828 -2.0388 -1.5759 -3.0156
   15MOL    H30 2858   5.461   0.604   6.746  0.5768 -0.1697  0.6138
   15MOL    H31 2859   5.484   0.455   6.669 -1.6406  1.7858 -1.1287
   15MOL    O32 2860   5.647   0.589   6.655  0.0512  0.2955 -0.3998
   15MOL    C33 2861   5.610   0.635   6.525 -0.1868  0.4278  0.1403
   15MOL    C34 2862   5.716   0.709   6.447 -0.6830 -0.1103  1.1053
   15MOL    C35 2863   5.671   0.752   6.304 -0.5524 -0.8106  0.7553
   15MOL    H36 2864   5.520   0.696   6.531  0.7976  2.0198 -0.7410
   15MOL    H37 2865   5.582   0.548   6.465  0.8575 -0.8569  1.4673
   15MOL    H38 2866   5.751   0.798   6.498  0.8054 -0.7381  1.2051
   15MOL    H39 2867   5.813   0.659   6.445 -0.1541  0.9127  0.8564
   15MOL    H40 2868   5.583   0.815   6.309 -1.3679 -2.0535  2.4464
   15MOL    H41 2869   5.638   0.672   6.238  1.0787 -0.8291 -0.0791
   15MOL    O42 2870   5.772   0.820   6.232 -0.4409  0.0965 -0.7028
   15MOL    C43 2871   5.795   0.952   6.265  0.3029 -0.0862  0.3379
   15MOL    C44 2872   5.899   1.020   6.178  0.1866 -0.2974 -1.0574
   15MOL    C45 2873   5.891   1.171   6.192  0.4405  0.6312  0.1061
   15MOL    H46 2874   5.815   0.957   6.372 -0.3589  0.8576  0.4244
   15MOL    H47 2875   5.697   1.000   6.255  1.9477  3.4646  0.5171
   15MOL    H48 2876   5.998   0.987   6.209  0.3518 -0.3620 -1.6595
   15MOL    H49 2877   5.888   0.994   6.073  0.7225 -0.6548 -1.0268
   15MOL    H50 2878   5.967   1.211   6.125  0.7888  1.0730  0.7608
   15MOL    H51 2879   5.922   1.199   6.292  1.8489  0.2280 -0.2159
   15MOL    O52 2880   5.761   1.232   6.152  0.0594  0.7578  0.0077
   15MOL    C53 2881   5.760   1.376   6.132 -0.2788 -0.1482  0.1663
   15MOL    C54 2882   5.620   1.415   6.133  0.8347  0.2821  0.1478
   15MOL    C55 2883   5.588   1.561   6.146 -0.3940 -0.3360  0.0618
   15MOL    H56 2884   5.813   1.401   6.040  0.4942  4.8733  1.8295
   15MOL    H57 2885   5.819   1.423   6.211 -0.2373 -0.7319  0.4848
   15MOL    H58 2886   5.578   1.382   6.038 -0.8550  2.2375  0.2065
   15MOL    H59 2887   5.563   1.372   6.216 -0.0236  1.4234  0.1512
   15MOL    H60 2888   5.625   1.602   6.240 -1.9283 -1.8362  1.3645
   15MOL    H61 2889   5.480   1.577   6.148 -0.3980 -0.4850  2.4012
   15MOL    O62 2890   5.640   1.631   6.031 -0.3896 -0.2329  0.4154
   15MOL    C63 2891   5.605   1.770   6.031 -0.0517 -0.6177  0.3172
   15MOL    C64 2892   5.642   1.845   5.914 -0.0742 -0.1554 -0.8829
   15MOL    C65 2893   5.589   1.990   5.907  0.3819  0.3178 -0.1061
   15MOL    H66 2894   5.655   1.813   6.118 -0.2886 -0.8791  0.5860
   15MOL    H67 2895   5.501   1.789   6.059 -0.0913  0.1134 -0.3075
   15MOL    H68 2896   5.751   1.842   5.911 -0.0119 -0.4530  0.7918
   15MOL    H69 2897   5.607   1.792   5.826 -0.3813 -2.0718  0.3475
   15MOL    H70 2898   5.665   2.046   5.962  0.8117 -1.4718  1.1601
   15MOL    H71 2899   5.489   2.000   5.949  0.0407 -1.6971 -0.3830
   15MOL    O72 2900   5.595   2.027   5.773 -0.4160 -0.3156 -0.4059
   15MOL    C73 2901   5.539   2.156   5.737 -0.6919 -0.5595  0.2681
   15MOL    C74 2902   5.591   2.203   5.605 -0.5807  0.4825  0.3885
   15MOL    C75 2903   5.502   2.312   5.541 -0.0977 -0.2469 -0.0314
   15MOL    H76 2904   5.564   2.233   5.809 -1.0287 -0.9934  0.8578
   15MOL    H77 2905   5.431   2.147   5.745 -0.4632 -3.0085  0.9488
   15MOL    H78 2906   5.692   2.240   5.624 -0.3683  0.0903  0.0369
   15MOL    H79 2907   5.599   2.118   5.537 -0.9273  0.1447  0.7695
   15MOL    H80 2908   5.495   2.392   5.615 -0.2211 -0.5418  0.2711
   15MOL    H81 2909   5.401   2.276   5.522 -0.9740  2.1249 -0.0635
   15MOL    O82 2910   5.558   2.367   5.422 -0.1005 -0.1828 -0.1680
   15MOL    C83 2911   5.500   2.305   5.310  0.7409  0.3619 -0.1813
   15MOL    C84 2912   5.585   2.323   5.185 -0.2426  0.7660 -0.0694
   15MOL    C85 2913   5.545   2.231   5.071  0.6708 -0.4873 -0.2221
   15MOL    H86 2914   5.409   2.362   5.291  1.2387  1.9321  1.9574
   15MOL    H87 2915   5.482   2.200   5.331  2.0405  0.2141  0.2907
   15MOL    H88 2916   5.570   2.424   5.148 -1.8653  0.1735 -1.1418
   15MOL    H89 2917   5.689   2.307   5.211 -0.0194 -0.9544 -1.8623
   15MOL    H90 2918   5.439   2.238   5.047  0.6774 -2.1553 -0.8079
   15MOL    H91 2919   5.550   2.126   5.101  2.1242 -0.1315  0.8003
   15MOL    O92 2920   5.619   2.242   4.944 -0.2788  0.3431 -0.5816
   15MOL    C93 2921   5.564   2.156   4.852  0.2845 -0.7579  0.3747
   15MOL    C94 2922   5.658   2.163   4.723 -0.3065  0.2816 -0.3133
   15MOL    C95 2923   5.805   2.133   4.758  0.1852 -0.1966 -0.2750
   15MOL    H96 2924   5.464   2.185   4.819  1.5881  2.0065 -1.3295
   15MOL    H97 2925   5.553   2.052   4.885 -0.6976 -0.4327  1.0883
   15MOL    H98 2926   5.617   2.085   4.658  0.1326 -0.0900 -0.1457
   15MOL    H99 2927   5.640   2.247   4.656  0.2000  0.9958  0.4483
   15MOL   H100 2928   5.811   2.044   4.820 -0.4955  0.2250  0.3929
   15MOL   H101 2929   5.844   2.226   4.799 -4.0234 -0.6113  5.0501
   15MOL   O102 2930   5.881   2.124   4.639  0.4955 -0.1373 -0.4988
   15MOL   C103 2931   6.015   2.071   4.663 -0.4514 -0.1482  0.7053
   15MOL   C104 2932   6.079   2.104   4.533 -0.4467 -0.1998 -0.2995
   15MOL   C105 2933   6.220   2.047   4.520 -0.3662 -0.9027  0.9703
   15MOL   H106 2934   6.013   1.964   4.686 -2.7377 -1.0204 -3.1321
   15MOL   H107 2935   6.066   2.125   4.743 -1.5795  0.5642  0.9419
   15MOL   H108 2936   6.014   2.053   4.461 -2.3240  0.8039  0.6645
   15MOL   H109 2937   6.082   2.212   4.523  2.4464 -0.2513 -0.2864
   15MOL   H110 2938   6.234   1.953   4.574 -2.4060 -2.8984 -1.8548
   15MOL   H111 2939   6.290   2.109   4.576 -0.4677  0.8203 -0.7646
   15MOL   O112 2940   6.244   2.047   4.380 -0.4074 -0.1514  0.4108
   15MOL   C113 2941   6.342   1.944   4.355 -0.5871  0.0600 -0.7799
   15MOL   C114 2942   6.424   1.996   4.248  0.2802 -0.3140  0.0715
   15MOL   C115 2943   6.505   1.881   4.187 -0.5171 -0.4233 -0.4709
   15MOL   H116 2944   6.286   1.854   4.330  1.3744 -1.6264  0.7154
   15MOL   H117 2945   6.417   1.928   4.433 -1.0570 -0.5889 -0.4570
   15MOL   H118 2946   6.359   2.027   4.167  0.9854  0.4124 -0.2299
   15MOL   H119 2947   6.481   2.084   4.280  0.8460 -0.7020  0.1286
   15MOL   H120 2948   6.440   1.796   4.166 -0.3940 -0.3813 -1.0171
   15MOL   H121 2949   6.571   1.839   4.263 -2.8010 -3.3473 -0.0292
   15MOL   O122 2950   6.568   1.919   4.066 -0.2121  0.2002  0.0296
   15MOL   C123 2951   6.619   1.807   3.992  0.0642  1.0163  0.5776
   15MOL   C124 2952   6.752   1.766   4.068  0.3850 -0.7249 -0.2256
   15MOL   C125 2953   6.816   1.643   3.996  0.0592 -0.0605 -0.4112
   15MOL   H126 2954   6.657   1.849   3.899 -0.8918 -0.8296 -0.6947
   15MOL   H127 2955   6.548   1.725   3.974  0.8980  0.6270 -1.0108
   15MOL   H128 2956   6.823   1.847   4.084 -0.1926 -0.4013  0.6957
   15MOL   H129 2957   6.724   1.721   4.163  0.0601  1.8545  0.9305
   15MOL   H130 2958   6.920   1.628   4.025 -0.5052 -0.9197  1.2387
   15MOL   H131 2959   6.824   1.664   3.889  2.7720  1.7284  0.0755
   15MOL   O132 2960   6.729   1.532   4.007 -0.0740  0.3838 -0.0523
   15MOL   C133 2961   6.771   1.411   3.944 -0.1020  0.4752  0.3172
   15MOL   C134 2962   6.764   1.415   3.791  0.2148  0.0051  0.2747
   15MOL   C135 2963   6.838   1.295   3.725 -0.4954  0.3689 -0.9447
   15MOL   H136 2964   6.691   1.340   3.968  1.4413 -1.8066 -1.1488
   15MOL   H137 2965   6.867   1.373   3.979 -1.1850 -0.2924  2.5667
   15MOL   H138 2966   6.664   1.429   3.752 -0.1089  1.7565  1.6268
   15MOL   H139 2967   6.806   1.511   3.758 -1.5340  0.9110  0.6303
   15MOL   H140 2968   6.863   1.216   3.796 -0.4374  1.4618  0.2708
   15MOL   H141 2969   6.936   1.336   3.700 -1.3390  3.3330  0.4322
   15MOL   O142 2970   6.784   1.272   3.600  0.1727  0.1757  0.3054
   15MOL   C143 2971   6.858   1.198   3.505 -0.7299  0.3938 -0.5250
   15MOL   C144 2972   6.779   1.158   3.384  0.1280  0.3474  0.6170
   15MOL   C145 2973   6.737   1.274   3.303  0.2036 -0.3659  0.8147
   15MOL   H146 2974   6.884   1.104   3.555  0.7534  0.7246 -0.6343
   15MOL   H147 2975   6.949   1.252   3.478 -0.6278  0.2977 -0.3681
   15MOL   H148 2976   6.851   1.096   3.330 -0.9374  0.7181 -1.3049
   15MOL   H149 2977   6.696   1.089   3.401 -1.3871  2.0417  0.2618
   15MOL   H150 2978   6.820   1.344   3.293  3.0780 -3.7775 -0.2177
   15MOL   H151 2979   6.660   1.324   3.363 -0.3578  1.7189 -1.5222
   15MOL   O152 2980   6.689   1.226   3.178 -0.1219 -0.4185  0.8975
   15MOL   C153 2981   6.627   1.328   3.101  0.3907  0.0949 -0.0966
   15MOL   C154 2982   6.554   1.264   2.987  0.2612  0.8377  0.1789
   15MOL   C155 2983   6.445   1.344   2.912  0.3942 -0.4662  0.4259
   15MOL   H156 2984   6.694   1.404   3.061  1.3341 -0.3402  0.6299
   15MOL   H157 2985   6.563   1.391   3.162  1.0875 -0.6748  1.4693
   15MOL   H158 2986   6.631   1.232   2.917  0.6088 -0.8771  1.3341
   15MOL   H159 2987   6.498   1.183   3.033  2.4233  0.5674  2.4463
   15MOL   H160 2988   6.381   1.284   2.846  0.4027  2.2807 -2.1680
   15MOL   H161 2989   6.486   1.422   2.849 -0.5829  1.3316  1.9669
   15MOL   O162 2990   6.370   1.398   3.012 -0.1071 -0.3802 -0.2614
   15MOL   C163 2991   6.275   1.310   3.076 -0.0495 -0.4907  0.5532
   15MOL   C164 2992   6.165   1.399   3.135  0.5424 -0.3383 -1.2888
   15MOL   C165 2993   6.044   1.336   3.198 -1.1840 -0.5397 -0.0129
   15MOL   H166 2994   6.306   1.239   3.152 -1.0626 -0.6783  0.8007
   15MOL   H167 2995   6.240   1.242   2.998  0.3619  0.2347 -0.2793
   15MOL   H168 2996   6.190   1.477   3.207 -0.0711 -0.0604 -1.3800
   15MOL   H169 2997   6.125   1.459   3.054  2.4169  2.1376 -0.4497
   15MOL   H170 2998   6.068   1.302   3.299 -2.5486  0.4956  0.6679
   15MOL   H171 2999   6.003   1.253   3.139  0.5433 -0.2110 -1.7219
   15MOL   O172 3000   5.949   1.435   3.202 -0.1088  0.3292 -0.2046
   15MOL   C173 3001   5.831   1.387   3.260 -0.3541  0.2042 -0.1493
   15MOL   C174 3002   5.760   1.503   3.321  0.2405 -0.9636 -0.3590
   15MOL   C175 3003   5.629   1.455   3.383 -0.5953 -0.0599  1.0281
   15MOL   H176 3004   5.845   1.306   3.333 -2.5205  0.8136  0.9919
   15MOL   H177 3005   5.779   1.336   3.179 -1.0125 -0.2085  0.5158
   15MOL   H178 3006   5.818   1.546   3.402 -0.7833 -1.9442  0.9129
   15MOL   H179 3007   5.749   1.583   3.247  0.9132 -0.1536  0.4167
   15MOL   H180 3008   5.584   1.540   3.435 -0.8619  0.4311  0.0128
   15MOL   H181 3009   5.653   1.375   3.452  2.4364 -0.5522 -0.5369
   15MOL   O182 3010   5.537   1.409   3.288  0.2813 -0.2099 -0.1315
   15MOL   C183 3011   5.410   1.396   3.350  0.4151  0.8251 -0.5653
   15MOL   C184 3012   5.313   1.371   3.238  0.5383  0.3723  0.9472
   15MOL   C185 3013   5.166   1.332   3.275  0.2950 -0.4269 -1.2636
   15MOL   H186 3014   5.387   1.489   3.402  1.0665 -0.3679  1.9769
   15MOL   H187 3015   5.406   1.318   3.427 -2.0365  2.3636  0.9317
   15MOL   H188 3016   5.307   1.453   3.166 -0.7268 -0.1524  0.4345
   15MOL   H189 3017   5.350   1.285   3.183  0.8985  0.9735  0.2312
   15MOL   H190 3018   5.104   1.342   3.187 -0.6035  1.4471 -0.4424
   15MOL   H191 3019   5.131   1.399   3.354 -1.1822 -0.6703 -1.7143
   15MOL   O192 3020   5.165   1.194   3.326  0.2327  0.3489  0.1127
   15MOL   C193 3021   5.046   1.121   3.302 -0.9719  0.0579  0.2945
   15MOL   C194 3022   5.076   0.972   3.329  0.1140  0.2439 -0.5294
   15MOL   C195 3023   4.950   0.882   3.325 -0.2290 -0.3130  0.3472
   15MOL   H196 3024   5.017   1.136   3.198  0.4240  1.5392  0.0943
   15MOL   H197 3025   4.962   1.167   3.355  0.2471  1.2401  1.2390
   15MOL   H198 3026   5.152   0.943   3.257 -0.5786 -2.3396 -0.2809
   15MOL   H199 3027   5.111   0.976   3.432 -1.0344  0.0408 -0.1186
   15MOL   H200 3028   4.875   0.915   3.397 -0.5768 -0.3524  0.0053
   15MOL   H201 3029   4.971   0.780   3.358  0.6963 -0.6063 -1.0888
   15MOL   H202 3030   4.899   0.890   3.229  1.1761 -0.1229 -0.4017
   16MOL     O1 3031   5.216   0.462   5.569 -0.0893 -0.3300 -0.0499
   16MOL     C2 3032   5.316   0.489   5.666  0.7726  0.4703 -0.3683
   16MOL     C3 3033   5.275   0.445   5.804  0.0345 -1.1173  0.2531
   16MOL     C4 3034   5.358   0.502   5.910  0.2285  0.2142  0.4088
   16MOL     H5 3035   5.351   0.592   5.671  2.6811 -0.1700  0.1835
   16MOL     H6 3036   5.405   0.434   5.635 -0.1583 -2.1255  1.2706
   16MOL     H7 3037   5.167   0.463   5.809 -0.0038 -1.0525 -0.6691
   16MOL     H8 3038   5.280   0.337   5.815  1.5552 -0.8885  2.1357
   16MOL     H9 3039   5.347   0.609   5.888  0.6155  0.1032 -0.3694
   16MOL    H10 3040   5.461   0.470   5.894  0.0610  0.2774 -0.8617
   16MOL    H11 3041   5.150   0.530   5.566 -1.0584 -1.2484  0.2535
   16MOL    O12 3042   5.308   0.448   6.033  0.6055  0.0605 -0.2936
   16MOL    C13 3043   5.261   0.551   6.121  0.3030 -0.0411  0.2152
   16MOL    C14 3044   5.226   0.489   6.252  0.2655 -0.1002  0.4507
   16MOL    C15 3045   5.208   0.580   6.371  0.2348  0.3918  0.8142
   16MOL    H16 3046   5.182   0.616   6.083  0.6189 -0.0548 -0.4809
   16MOL    H17 3047   5.344   0.620   6.124  1.3091 -1.2446  0.3899
   16MOL    H18 3048   5.136   0.432   6.229 -0.1567  1.0669 -0.7919
   16MOL    H19 3049   5.305   0.420   6.283  0.6111  0.3908  0.6746
   16MOL    H20 3050   5.119   0.638   6.344 -1.2176 -2.7552 -1.5946
   16MOL    H21 3051   5.284   0.655   6.392 -0.4099  0.8535  1.5085
   16MOL    O22 3052   5.171   0.502   6.489 -0.1980  0.6510 -0.4779
   16MOL    C23 3053   5.161   0.571   6.611  0.0418  0.5264  0.4083
   16MOL    C24 3054   5.093   0.485   6.722  0.0888 -0.7619 -0.4423
   16MOL    C25 3055   5.048   0.571   6.832 -0.1448 -0.1523 -0.2435
   16MOL    H26 3056   5.109   0.663   6.587 -0.8050  0.1044  0.6053
   16MOL    H27 3057   5.259   0.606   6.642 -0.5516  2.1054  0.5256
   16MOL    H28 3058   5.011   0.423   6.686  1.7777 -2.6512 -1.1490
   16MOL    H29 3059   5.165   0.410   6.756 -0.6222 -0.2114  2.3544
   16MOL    H30 3060   5.127   0.640   6.864 -0.0053 -0.3629 -0.1296
   16MOL    H31 3061   5.043   0.498   6.914  2.6748 -0.7878 -0.5570
   16MOL    O32 3062   4.935   0.644   6.810 -0.1398 -0.3624 -0.0639
   16MOL    C33 3063   4.918   0.749   6.907  0.7591 -0.6371  0.3715
   16MOL    C34 3064   4.771   0.775   6.907 -1.0639 -0.9208 -0.8252
   16MOL    C35 3065   4.727   0.894   7.001 -0.2377 -0.1015 -0.2117
   16MOL    H36 3066   4.968   0.841   6.878 -1.2627  1.0110  1.9372
   16MOL    H37 3067   4.957   0.720   7.005  1.1171 -1.6665 -0.0631
   16MOL    H38 3068   4.739   0.804   6.806  0.8280  0.8591 -0.9328
   16MOL    H39 3069   4.710   0.687   6.926 -2.7442  0.5269  0.6601
   16MOL    H40 3070   4.777   0.986   6.972  3.6063 -1.8968  0.3052
   16MOL    H41 3071   4.762   0.865   7.101  0.2687  0.2537 -0.2825
   16MOL    O42 3072   4.581   0.902   7.028 -0.1164 -0.3755  0.2675
   16MOL    C43 3073   4.547   1.005   7.114  0.2330  0.2932  0.4585
   16MOL    C44 3074   4.398   1.022   7.101  0.5519  0.2803 -0.3197
   16MOL    C45 3075   4.348   1.126   7.210  0.4351 -0.0538  0.0373
   16MOL    H46 3076   4.606   1.093   7.088  4.3448 -2.1165  1.2431
   16MOL    H47 3077   4.575   0.972   7.214 -1.4824 -0.2550  0.7790
   16MOL    H48 3078   4.370   1.067   7.006  0.5238  1.7403  0.3642
   16MOL    H49 3079   4.349   0.926   7.119 -0.0094  0.7525  0.7658
   16MOL    H50 3080   4.401   1.219   7.189 -1.3072  0.4099 -2.4043
   16MOL    H51 3081   4.378   1.095   7.310  0.0085  1.7146  0.7385
   16MOL    O52 3082   4.205   1.144   7.197 -0.1946  0.2270  0.3556
   16MOL    C53 3083   4.174   1.283   7.206 -0.1966  0.1920  0.1645
   16MOL    C54 3084   4.020   1.289   7.225 -0.0552  0.2066 -0.5851
   16MOL    C55 3085   3.956   1.276   7.082  0.4934 -0.1589 -0.2395
   16MOL    H56 3086   4.216   1.355   7.136  2.0950  1.1319  2.4113
   16MOL    H57 3087   4.202   1.305   7.310 -0.3958  1.3156 -0.0122
   16MOL    H58 3088   3.983   1.203   7.282  2.7508 -0.4553  0.3480
   16MOL    H59 3089   3.981   1.378   7.273 -1.0043 -1.2608  1.4233
   16MOL    H60 3090   3.997   1.186   7.036  0.2665 -1.5300  2.1806
   16MOL    H61 3091   3.972   1.369   7.027 -0.7494  1.4597  2.0441
   16MOL    O62 3092   3.822   1.251   7.116  0.1818  0.4005 -0.0285
   16MOL    C63 3093   3.743   1.211   7.002 -0.6945 -0.9965 -0.2492
   16MOL    C64 3094   3.798   1.092   6.918 -0.5344  0.1505  0.5060
   16MOL    C65 3095   3.699   1.048   6.812 -0.4054  0.2149 -0.6906
   16MOL    H66 3096   3.730   1.301   6.942 -1.3004 -0.2832  0.9351
   16MOL    H67 3097   3.645   1.187   7.042 -0.6474  0.1364  0.5774
   16MOL    H68 3098   3.897   1.111   6.877  0.4193 -1.0173  2.1892
   16MOL    H69 3099   3.804   0.999   6.975  1.1211 -0.7159 -1.0501
   16MOL    H70 3100   3.629   1.122   6.774 -1.5929 -0.3793  0.3078
   16MOL    H71 3101   3.635   0.969   6.850 -0.1679  0.2322 -0.2432
   16MOL    O72 3102   3.769   0.985   6.699  0.3835  0.2252 -0.6341
   16MOL    C73 3103   3.681   0.948   6.594  0.2491  0.1592  0.0211
   16MOL    C74 3104   3.751   0.882   6.480  0.0304 -0.2841  0.1521
   16MOL    C75 3105   3.834   0.984   6.400  0.2240 -0.1130 -0.8338
   16MOL    H76 3106   3.625   1.029   6.548 -0.3129 -0.4243 -0.3242
   16MOL    H77 3107   3.608   0.873   6.623  0.6262 -0.3210 -0.2639
   16MOL    H78 3108   3.792   0.786   6.512  1.1402 -0.3583 -1.4060
   16MOL    H79 3109   3.663   0.856   6.422 -0.9978 -1.3577  2.1247
   16MOL    H80 3110   3.915   1.026   6.460 -0.3349 -0.0615 -0.1197
   16MOL    H81 3111   3.773   1.070   6.372  0.9924  1.2114  1.4491
   16MOL    O82 3112   3.881   0.921   6.282  0.4189 -0.6177 -0.5452
   16MOL    C83 3113   3.980   1.008   6.224 -0.1544  0.5516  0.4223
   16MOL    C84 3114   3.916   1.109   6.127  0.7096 -1.1290  0.4494
   16MOL    C85 3115   4.015   1.163   6.028  0.3057 -0.2783 -0.1968
   16MOL    H86 3116   4.052   0.946   6.171  0.4801  0.8665  0.9017
   16MOL    H87 3117   4.041   1.055   6.301  0.9904 -1.9322  1.0845
   16MOL    H88 3118   3.837   1.062   6.068 -0.2017  0.0195  0.7506
   16MOL    H89 3119   3.870   1.191   6.183 -2.8394 -2.2174 -0.7075
   16MOL    H90 3120   3.969   1.215   5.943  1.4038  1.2063  0.0897
   16MOL    H91 3121   4.071   1.078   5.989 -0.4911 -0.2800 -1.3604
   16MOL    O92 3122   4.110   1.259   6.076 -0.6480 -0.6222  0.1691
   16MOL    C93 3123   4.162   1.359   5.987 -0.3831  0.2658  0.1663
   16MOL    C94 3124   4.243   1.461   6.070 -0.4924 -0.3377 -0.6168
   16MOL    C95 3125   4.325   1.558   5.998  0.0556 -0.3137 -0.8564
   16MOL    H96 3126   4.067   1.406   5.958 -1.3968 -1.6476  0.3387
   16MOL    H97 3127   4.217   1.321   5.901 -2.6706  0.5140 -1.4633
   16MOL    H98 3128   4.176   1.521   6.131  1.7667  0.5534  1.0245
   16MOL    H99 3129   4.315   1.401   6.125 -0.8595  0.1913  0.4479
   16MOL   H100 3130   4.363   1.634   6.066 -1.4753 -1.9442  1.9272
   16MOL   H101 3131   4.259   1.604   5.925  0.8738  0.1934 -1.2857
   16MOL   O102 3132   4.432   1.490   5.933  1.0820 -0.5072  0.2742
   16MOL   C103 3133   4.468   1.551   5.808 -0.3147  0.0470 -0.3500
   16MOL   C104 3134   4.605   1.514   5.772  0.5955  0.3444  0.5165
   16MOL   C105 3135   4.641   1.372   5.741  0.4915  0.3651  0.9221
   16MOL   H106 3136   4.462   1.658   5.828  1.0875  0.1505 -0.4510
   16MOL   H107 3137   4.395   1.512   5.737 -1.1876 -1.5137  1.3320
   16MOL   H108 3138   4.624   1.573   5.683  0.5774  0.0465  0.3157
   16MOL   H109 3139   4.669   1.550   5.852  0.6708  2.0957 -0.3270
   16MOL   H110 3140   4.584   1.325   5.661  0.8504  2.2982 -0.4910
   16MOL   H111 3141   4.611   1.303   5.820 -0.2681 -1.9653 -1.3111
   16MOL   O112 3142   4.779   1.368   5.693  0.1840  0.3977 -0.1708
   16MOL   C113 3143   4.860   1.256   5.703 -0.8715  0.8304 -0.4184
   16MOL   C114 3144   4.904   1.229   5.849 -0.3143 -1.2960  0.5411
   16MOL   C115 3145   4.963   1.088   5.865 -0.2171  0.0042  0.6093
   16MOL   H116 3146   4.952   1.275   5.647 -1.2459 -1.4743 -1.8971
   16MOL   H117 3147   4.800   1.173   5.666 -1.9489  0.8193  1.3244
   16MOL   H118 3148   4.976   1.301   5.888 -1.6297  0.1930  0.2862
   16MOL   H119 3149   4.817   1.246   5.912  0.1403  1.4606  0.4995
   16MOL   H120 3150   5.027   1.070   5.778 -0.9472 -1.1687  0.3015
   16MOL   H121 3151   4.883   1.014   5.868  0.0000 -0.1682  2.1276
   16MOL   O122 3152   5.032   1.085   5.985 -0.1302  0.2994 -0.4632
   16MOL   C123 3153   5.082   0.955   6.001  0.5017  0.1698  0.3793
   16MOL   C124 3154   5.142   0.949   6.149 -0.1288 -0.3335  0.0195
   16MOL   C125 3155   5.261   1.048   6.175  0.3563 -0.1775  0.2049
   16MOL   H126 3156   5.162   0.931   5.931 -1.5014 -3.2876 -0.8467
   16MOL   H127 3157   5.005   0.878   6.000 -0.1645  0.8307 -0.2268
   16MOL   H128 3158   5.067   0.975   6.223  0.6653 -1.7342  1.3484
   16MOL   H129 3159   5.172   0.848   6.178  0.4119 -0.1109  0.2599
   16MOL   H130 3160   5.245   1.140   6.119 -1.2267 -0.3681  0.3190
   16MOL   H131 3161   5.353   1.007   6.134  1.0796  2.9229 -1.4566
   16MOL   O132 3162   5.292   1.066   6.316 -0.0492  0.0677 -0.1059
   16MOL   C133 3163   5.413   1.146   6.335  0.1126  0.2970  0.0909
   16MOL   C134 3164   5.482   1.097   6.459  0.1019 -0.0303  0.6467
   16MOL   C135 3165   5.607   1.174   6.503 -0.4748 -0.0703 -0.2159
   16MOL   H136 3166   5.410   1.253   6.318 -3.8909  0.0723 -1.2094
   16MOL   H137 3167   5.479   1.122   6.252 -0.2581  0.3452 -0.2171
   16MOL   H138 3168   5.408   1.099   6.539 -0.0666 -0.8442  0.5137
   16MOL   H139 3169   5.508   0.992   6.447 -4.0575 -0.8340 -2.2966
   16MOL   H140 3170   5.585   1.280   6.519  1.1727 -0.1229  2.7184
   16MOL   H141 3171   5.677   1.186   6.420 -0.0912 -3.4138 -0.4238
   16MOL   O142 3172   5.679   1.118   6.608  0.1677 -0.3365 -0.4051
   16MOL   C143 3173   5.815   1.148   6.623  0.1220  0.0838 -0.7445
   16MOL   C144 3174   5.835   1.147   6.772 -0.0467 -0.7902  0.3412
   16MOL   C145 3175   5.979   1.179   6.812 -0.5540  0.1411 -0.2094
   16MOL   H146 3176   5.830   1.252   6.593  2.4404  0.0991  0.2938
   16MOL   H147 3177   5.867   1.073   6.563 -1.1421 -0.1996 -1.4918
   16MOL   H148 3178   5.761   1.212   6.817 -0.0692 -0.4540 -0.1791
   16MOL   H149 3179   5.806   1.047   6.804  3.1909 -1.9017  0.0600
   16MOL   H150 3180   6.045   1.108   6.761 -0.7913  1.7094 -2.7821
   16MOL   H151 3181   5.980   1.144   6.916 -0.8535  1.9097  0.4015
   16MOL   O152 3182   5.999   1.312   6.803  0.2617 -0.4358  0.1879
   16MOL   C153 3183   6.132   1.359   6.821 -0.2284 -0.0356  0.3048
   16MOL   C154 3184   6.193   1.374   6.686 -0.2405  0.0456  0.2192
   16MOL   C155 3185   6.342   1.402   6.681 -0.3515 -0.1224  0.3773
   16MOL   H156 3186   6.196   1.299   6.887  1.7712 -1.0943 -2.5154
   16MOL   H157 3187   6.118   1.457   6.866  1.0731  1.1505 -1.8335
   16MOL   H158 3188   6.186   1.280   6.630  0.6435 -0.3401  0.7412
   16MOL   H159 3189   6.147   1.457   6.632  1.0187 -0.5733 -1.8648
   16MOL   H160 3190   6.406   1.318   6.708  1.0622  0.9631  0.4188
   16MOL   H161 3191   6.361   1.470   6.763  2.7677 -0.8827  0.3480
   16MOL   O162 3192   6.377   1.459   6.557 -0.0798 -0.5414  0.5282
   16MOL   C163 3193   6.409   1.358   6.463 -0.9681 -0.7055 -0.0124
   16MOL   C164 3194   6.410   1.420   6.326  0.0585 -0.0863  0.4018
   16MOL   C165 3195   6.276   1.475   6.294 -0.0676  0.1367  0.0673
   16MOL   H166 3196   6.336   1.277   6.464 -0.6351 -1.0108 -0.1447
   16MOL   H167 3197   6.508   1.316   6.480 -1.1384 -1.2539 -0.3685
   16MOL   H168 3198   6.489   1.495   6.320 -0.4477  0.5413  1.4186
   16MOL   H169 3199   6.432   1.336   6.260 -2.2419 -0.5574  0.2094
   16MOL   H170 3200   6.232   1.536   6.373  0.3310  1.7126 -0.8976
   16MOL   H171 3201   6.200   1.397   6.298 -0.8237  0.8914  0.7517
   16MOL   O172 3202   6.283   1.535   6.166 -0.0663  0.0896 -0.0963
   16MOL   C173 3203   6.157   1.587   6.116 -0.1160  0.0097  0.0033
   16MOL   C174 3204   6.175   1.640   5.974 -0.2124  0.1889  0.3304
   16MOL   C175 3205   6.046   1.690   5.910 -0.4783  0.9843  0.1798
   16MOL   H176 3206   6.121   1.676   6.168 -0.8537  0.5471 -1.3891
   16MOL   H177 3207   6.076   1.516   6.133  0.2771 -0.6665 -0.9404
   16MOL   H178 3208   6.251   1.717   5.976  0.1686 -0.1831  0.3473
   16MOL   H179 3209   6.212   1.562   5.907  1.1726 -0.1312  1.4213
   16MOL   H180 3210   5.999   1.762   5.977 -0.2250  1.6699 -0.3713
   16MOL   H181 3211   5.979   1.606   5.890  3.1819 -2.3497  1.2209
   16MOL   O182 3212   6.075   1.763   5.785 -0.1130 -0.9545 -0.8743
   16MOL   C183 3213   5.960   1.826   5.733  0.6814  0.3623 -0.3889
   16MOL   C184 3214   5.999   1.872   5.586 -0.1825  0.3489 -0.1698
   16MOL   C185 3215   5.873   1.896   5.500 -0.3140  0.0338  0.0875
   16MOL   H186 3216   5.916   1.905   5.793 -2.1562  0.2698 -2.2676
   16MOL   H187 3217   5.882   1.750   5.729  0.3084  0.6434  1.2432
   16MOL   H188 3218   6.050   1.968   5.594 -2.4125  1.4855  0.7497
   16MOL   H189 3219   6.061   1.800   5.533 -0.8990 -1.2818  1.1578
   16MOL   H190 3220   5.790   1.957   5.536  0.7083  1.8363 -0.5389
   16MOL   H191 3221   5.824   1.801   5.475  2.1284 -1.3618  0.3858
   16MOL   O192 3222   5.923   1.942   5.376  0.3348 -0.3231 -0.5252
   16MOL   C193 3223   5.821   1.987   5.282  0.1877 -0.0979 -0.3670
   16MOL   C194 3224   5.874   2.038   5.149  0.6697 -0.1713  0.1999
   16MOL   C195 3225   5.968   2.166   5.159 -0.3727 -0.0653 -0.4553
   16MOL   H196 3226   5.765   2.070   5.326  2.9678  1.1646  0.9084
   16MOL   H197 3227   5.740   1.916   5.264  0.3358 -0.3075 -0.1979
   16MOL   H198 3228   5.924   1.953   5.103  0.6798 -0.7620  1.3022
   16MOL   H199 3229   5.803   2.057   5.068  0.0351 -2.2476  0.2369
   16MOL   H200 3230   6.019   2.166   5.063 -1.7041  0.6850 -1.1661
   16MOL   H201 3231   6.028   2.156   5.250 -0.4231 -2.7744 -0.6644
   16MOL   H202 3232   5.925   2.265   5.153  0.9090  0.7050  1.9973
   17MOL     O1 3233   6.609   2.802   5.164 -0.3063 -0.5259 -0.3090
   17MOL     C2 3234   6.680   2.679   5.130  0.1712  0.6460 -0.7137
   17MOL     C3 3235   6.751   2.709   4.996 -0.1676  0.8343 -0.1754
   17MOL     C4 3236   6.816   2.585   4.933  0.9992  0.0382 -0.2519
   17MOL     H5 3237   6.612   2.595   5.143 -0.4906  1.3973  0.7625
   17MOL     H6 3238   6.753   2.657   5.208 -0.4930 -2.5997 -0.9515
   17MOL     H7 3239   6.669   2.730   4.929  0.4046  0.9416 -0.8456
   17MOL     H8 3240   6.825   2.788   5.010  1.2947 -0.8625  2.0872
   17MOL     H9 3241   6.724   2.528   4.921  0.8640  0.2417 -0.1993
   17MOL    H10 3242   6.875   2.539   5.012 -0.0116  0.3330  0.6956
   17MOL    H11 3243   6.546   2.773   5.228 -1.9341  1.5293 -0.9550
   17MOL    O12 3244   6.898   2.605   4.811  0.0270 -0.1530 -0.1088
   17MOL    C13 3245   6.954   2.483   4.768 -0.1315  0.3976  0.4188
   17MOL    C14 3246   6.981   2.511   4.620  0.0802 -0.3661  0.2620
   17MOL    C15 3247   7.062   2.400   4.544 -0.0145  0.4642  0.3623
   17MOL    H16 3248   6.902   2.387   4.774 -1.4175  1.2231  3.4426
   17MOL    H17 3249   7.049   2.470   4.819 -0.7036  1.2391  1.7206
   17MOL    H18 3250   6.882   2.523   4.576 -0.1580  0.0647  0.9024
   17MOL    H19 3251   7.022   2.608   4.595 -1.8592  0.6090  0.7375
   17MOL    H20 3252   7.023   2.299   4.556 -0.7862  0.9526  2.1191
   17MOL    H21 3253   7.161   2.385   4.587  1.1150 -0.6234 -2.5198
   17MOL    O22 3254   7.087   2.435   4.407 -0.2418  0.0011  0.2906
   17MOL    C23 3255   7.170   2.340   4.349 -0.3747  0.3787 -0.5470
   17MOL    C24 3256   7.202   2.403   4.210 -0.1232  0.3328  0.1817
   17MOL    C25 3257   7.100   2.346   4.110 -0.4076 -0.0326 -0.2144
   17MOL    H26 3258   7.141   2.235   4.363 -1.0855  0.6357 -0.0757
   17MOL    H27 3259   7.266   2.341   4.400  0.5515 -0.0173 -2.2477
   17MOL    H28 3260   7.199   2.512   4.210  2.4179  0.4270 -0.3003
   17MOL    H29 3261   7.296   2.373   4.163  0.0187 -3.3236  2.5890
   17MOL    H30 3262   7.002   2.380   4.145 -1.8605 -3.1822 -1.0593
   17MOL    H31 3263   7.091   2.238   4.123 -2.7518 -0.0435 -1.5754
   17MOL    O32 3264   7.128   2.371   3.974  0.1457  0.0191  0.6278
   17MOL    C33 3265   7.027   2.328   3.885  0.0439  0.5793  0.3462
   17MOL    C34 3266   7.002   2.179   3.874 -0.0149 -0.3782  0.6296
   17MOL    C35 3267   6.899   2.131   3.769 -0.6049 -0.3570 -0.1137
   17MOL    H36 3268   7.041   2.363   3.782 -0.9042  3.0807  1.0153
   17MOL    H37 3269   6.943   2.383   3.927  0.8004  1.7518  0.3557
   17MOL    H38 3270   7.102   2.137   3.861  0.7685  0.7115  2.7781
   17MOL    H39 3271   6.973   2.143   3.973  0.7693  2.1425  1.8056
   17MOL    H40 3272   6.886   2.023   3.769  0.3598 -0.4799 -0.3967
   17MOL    H41 3273   6.927   2.162   3.669  0.1416 -0.6357  0.0080
   17MOL    O42 3274   6.770   2.187   3.788 -0.2977 -0.2623  0.1145
   17MOL    C43 3275   6.685   2.150   3.682  0.2298 -0.4541  0.3128
   17MOL    C44 3276   6.570   2.246   3.679 -0.3480  0.2341  0.3383
   17MOL    C45 3277   6.462   2.217   3.780  0.2631 -0.3219  0.2636
   17MOL    H46 3278   6.657   2.045   3.672  0.0915 -0.6418  2.4699
   17MOL    H47 3279   6.732   2.149   3.583 -2.5501 -0.2961 -1.0437
   17MOL    H48 3280   6.615   2.344   3.694 -1.0719  0.9303 -1.9672
   17MOL    H49 3281   6.529   2.249   3.578  0.8018  2.0766 -0.1020
   17MOL    H50 3282   6.407   2.309   3.800 -0.5602 -0.5725 -0.8287
   17MOL    H51 3283   6.503   2.179   3.874  0.6442 -0.3466  0.0869
   17MOL    O52 3284   6.372   2.119   3.724  0.1627  0.5037  0.1164
   17MOL    C53 3285   6.255   2.095   3.801  0.5631 -0.4783  1.0226
   17MOL    C54 3286   6.256   1.960   3.882 -0.5182 -1.1415 -0.2741
   17MOL    C55 3287   6.134   1.934   3.971  0.4337 -0.4415  0.4011
   17MOL    H56 3288   6.171   2.106   3.732  2.2913 -3.3921 -1.6639
   17MOL    H57 3289   6.243   2.179   3.869 -0.0390 -0.4887  0.9317
   17MOL    H58 3290   6.256   1.872   3.817 -1.1532 -0.3659 -1.3453
   17MOL    H59 3291   6.349   1.962   3.938 -1.9658 -1.0210  2.2039
   17MOL    H60 3292   6.044   1.955   3.913  3.3161  0.1888 -4.1187
   17MOL    H61 3293   6.137   2.012   4.048  0.0185 -1.0777  1.0686
   17MOL    O62 3294   6.132   1.805   4.029  0.1174  0.3835  0.1055
   17MOL    C63 3295   6.058   1.802   4.149  0.5914 -0.1395  0.2050
   17MOL    C64 3296   6.071   1.657   4.200  0.4457  0.2046  0.1642
   17MOL    C65 3297   6.032   1.633   4.344  0.0034 -0.2868 -0.6148
   17MOL    H66 3298   5.954   1.837   4.150 -0.2607 -2.6079  1.0170
   17MOL    H67 3299   6.102   1.864   4.227  1.5362 -1.5425  0.7987
   17MOL    H68 3300   6.004   1.598   4.136 -0.6563  2.1773 -0.5513
   17MOL    H69 3301   6.172   1.617   4.189  0.0220 -0.6806 -0.6234
   17MOL    H70 3302   5.993   1.532   4.352 -0.7561  0.1476  1.3956
   17MOL    H71 3303   5.948   1.697   4.373  0.5546 -0.7252  2.0341
   17MOL    O72 3304   6.128   1.648   4.451  0.2052 -0.7647  0.2143
   17MOL    C73 3305   6.062   1.622   4.576 -0.6013  0.5321  0.3120
   17MOL    C74 3306   6.156   1.623   4.699 -0.0512  0.5088  0.2733
   17MOL    C75 3307   6.080   1.588   4.826  0.0157  0.2759 -0.1287
   17MOL    H76 3308   6.027   1.519   4.574 -1.3054  0.7706 -0.0087
   17MOL    H77 3309   5.970   1.682   4.579 -1.1013 -0.1936 -0.2960
   17MOL    H78 3310   6.236   1.551   4.681  0.1704  0.5597  1.0348
   17MOL    H79 3311   6.201   1.723   4.697 -2.7588  1.7575 -0.1759
   17MOL    H80 3312   6.027   1.493   4.826  1.4996 -0.6623 -3.9416
   17MOL    H81 3313   6.012   1.673   4.833 -0.2535 -0.0461  1.3644
   17MOL    O82 3314   6.166   1.597   4.936  0.0574  0.1651  0.0682
   17MOL    C83 3315   6.093   1.616   5.061 -0.1504 -0.3414 -0.0927
   17MOL    C84 3316   6.164   1.559   5.186 -0.3481 -0.3774 -0.1518
   17MOL    C85 3317   6.088   1.601   5.315  0.1547 -0.8889 -0.4801
   17MOL    H86 3318   5.989   1.585   5.051 -0.4053  1.0032 -2.0302
   17MOL    H87 3319   6.083   1.723   5.079 -0.7859 -0.8649  2.8297
   17MOL    H88 3320   6.162   1.450   5.178  1.1119 -0.3114 -1.7919
   17MOL    H89 3321   6.271   1.577   5.196 -0.6687  0.9373  0.8701
   17MOL    H90 3322   5.992   1.550   5.320 -0.0050 -0.3981  2.3032
   17MOL    H91 3323   6.082   1.710   5.319  1.1977 -0.8346 -0.1963
   17MOL    O92 3324   6.167   1.549   5.425  0.0384 -0.4998  0.0120
   17MOL    C93 3325   6.286   1.606   5.464  0.3377 -0.1134 -0.6370
   17MOL    C94 3326   6.318   1.555   5.607  0.1156  0.4707 -0.2753
   17MOL    C95 3327   6.444   1.619   5.662  0.7411 -0.0199  0.7720
   17MOL    H96 3328   6.261   1.712   5.476 -0.5759 -0.2556 -1.2389
   17MOL    H97 3329   6.376   1.594   5.405  0.6854 -3.2730  0.4586
   17MOL    H98 3330   6.229   1.586   5.661 -0.0914 -1.2144  0.3792
   17MOL    H99 3331   6.319   1.447   5.619 -4.4653  0.2951 -0.7456
   17MOL   H100 3332   6.427   1.726   5.673  0.7831  0.0445  0.2366
   17MOL   H101 3333   6.527   1.607   5.592  0.4174  2.0321  0.0248
   17MOL   O102 3334   6.472   1.564   5.793  0.8025 -0.5449  0.5882
   17MOL   C103 3335   6.577   1.636   5.858 -0.5032 -0.0029  0.0845
   17MOL   C104 3336   6.594   1.599   6.002  0.2234  0.3684 -0.3334
   17MOL   C105 3337   6.740   1.560   6.048  0.0708  0.4602 -0.3965
   17MOL   H106 3338   6.565   1.745   5.858 -1.2568 -0.0831 -0.4441
   17MOL   H107 3339   6.675   1.624   5.812  0.2039  2.9883  0.6665
   17MOL   H108 3340   6.550   1.669   6.073 -1.3779  2.1651 -3.0098
   17MOL   H109 3341   6.549   1.501   6.016  1.1700 -0.1371 -0.7937
   17MOL   H110 3342   6.814   1.634   6.017  0.0656  1.3873  1.7255
   17MOL   H111 3343   6.781   1.470   6.004  0.3877  0.0277  0.7725
   17MOL   O112 3344   6.749   1.550   6.188 -0.7118  0.5757  0.2429
   17MOL   C113 3345   6.833   1.445   6.230 -0.7666  0.1965  0.4805
   17MOL   C114 3346   6.866   1.451   6.376 -0.2688 -0.6778 -0.1223
   17MOL   C115 3347   6.954   1.328   6.410 -0.6300  0.2261  0.3463
   17MOL   H116 3348   6.926   1.454   6.174 -0.3032  0.3331  1.2785
   17MOL   H117 3349   6.785   1.351   6.202  1.9934 -1.4610  1.1806
   17MOL   H118 3350   6.925   1.543   6.386  1.0556 -1.6695  1.4800
   17MOL   H119 3351   6.787   1.458   6.452  0.0342  0.8616  0.0730
   17MOL   H120 3352   7.054   1.331   6.367 -1.2197  1.9356 -0.9588
   17MOL   H121 3353   6.906   1.233   6.386  1.1383 -0.5888  0.0182
   17MOL   O122 3354   6.967   1.327   6.552 -0.3318  0.2419  0.8490
   17MOL   C123 3355   7.050   1.217   6.592 -0.7527 -0.2415  0.1496
   17MOL   C124 3356   6.987   1.178   6.724  0.4807 -0.0927 -0.4926
   17MOL   C125 3357   7.087   1.086   6.796 -0.5720 -0.0550  0.1863
   17MOL   H126 3358   7.153   1.249   6.609 -0.4419 -0.4907 -1.2211
   17MOL   H127 3359   7.046   1.136   6.520  0.7806  0.8803 -1.2325
   17MOL   H128 3360   6.962   1.264   6.786 -0.9333 -0.4456 -0.5466
   17MOL   H129 3361   6.889   1.134   6.703 -0.8036  1.4726  1.9592
   17MOL   H130 3362   7.176   1.138   6.830 -0.1816  0.4925 -1.5915
   17MOL   H131 3363   7.125   1.014   6.723  0.1767 -0.1926  0.7020
   17MOL   O132 3364   7.006   1.025   6.887  0.5415 -0.5355  0.1959
   17MOL   C133 3365   7.064   0.906   6.939  0.2140  0.0640 -0.6412
   17MOL   C134 3366   6.951   0.829   7.018  0.1918 -0.1626 -0.7022
   17MOL   C135 3367   6.997   0.696   7.075  0.0170  0.1762 -0.5215
   17MOL   H136 3368   7.137   0.919   7.019  1.2417 -2.1823 -1.1596
   17MOL   H137 3369   7.106   0.851   6.854  1.6839 -0.2542  0.2829
   17MOL   H138 3370   6.916   0.881   7.107 -2.9472 -2.9384 -0.2161
   17MOL   H139 3371   6.862   0.820   6.956 -0.9857 -0.7452  1.0650
   17MOL   H140 3372   7.061   0.644   7.003 -0.6816  0.6927 -1.5262
   17MOL   H141 3373   6.908   0.637   7.096  0.3706 -0.8074 -1.7068
   17MOL   O142 3374   7.080   0.718   7.190  0.5040  0.2963 -0.0205
   17MOL   C143 3375   7.094   0.602   7.265 -0.1486  0.5904 -0.5222
   17MOL   C144 3376   7.159   0.623   7.392 -0.0205  0.3501 -0.2077
   17MOL   C145 3377   7.140   0.519   7.504 -0.4126  0.1024 -0.2783
   17MOL   H146 3378   7.144   0.522   7.210  0.4695 -0.2003  1.1285
   17MOL   H147 3379   6.994   0.561   7.282  0.8817 -1.5428  0.6770
   17MOL   H148 3380   7.267   0.637   7.382  0.3364 -0.0414  2.5228
   17MOL   H149 3381   7.120   0.715   7.435  0.9496  0.4602  0.4801
   17MOL   H150 3382   7.159   0.416   7.475 -0.5812  0.2349 -0.8664
   17MOL   H151 3383   7.037   0.524   7.541  0.1331 -1.1741  1.4848
   17MOL   O152 3384   7.220   0.544   7.615 -0.3862  0.2439 -0.2366
   17MOL   C153 3385   7.184   0.445   7.714  0.4627  0.2210 -0.3385
   17MOL   C154 3386   7.269   0.459   0.055  0.2072  0.1494 -0.2895
   17MOL   C155 3387   7.237   0.348   0.157 -0.0396 -0.3436 -0.3064
   17MOL   H156 3388   7.194   0.341   7.684 -0.2136 -0.1885  0.8350
   17MOL   H157 3389   7.080   0.460   7.741  1.2259  1.4414  2.1284
   17MOL   H158 3390   7.377   0.474   0.048  0.5432 -0.2481  2.9824
   17MOL   H159 3391   7.237   0.552   0.102 -0.6324 -0.7337  0.9072
   17MOL   H160 3392   7.280   0.256   0.118  0.5213 -0.5939  0.8717
   17MOL   H161 3393   7.131   0.326   0.153 -0.0197 -0.3551 -0.7629
   17MOL   O162 3394   7.295   0.380   0.282 -0.4038 -0.2280 -0.0649
   17MOL   C163 3395   7.300   0.270   0.374 -0.1482 -1.0357  0.6153
   17MOL   C164 3396   7.388   0.303   0.491  0.4274 -0.1746 -0.5276
   17MOL   C165 3397   7.530   0.330   0.446  0.6195 -0.3704  0.6921
   17MOL   H166 3398   7.339   0.182   0.324  0.7362 -0.7724  0.8226
   17MOL   H167 3399   7.193   0.268   0.396 -0.3994  1.1803 -0.3160
   17MOL   H168 3400   7.353   0.387   0.551 -1.3421  0.4117 -2.3192
   17MOL   H169 3401   7.396   0.218   0.559 -0.5772  0.0857 -0.0729
   17MOL   H170 3402   7.530   0.383   0.351 -2.7966 -0.4885  0.5625
   17MOL   H171 3403   7.576   0.232   0.437  0.5027 -0.3576 -0.0994
   17MOL   O172 3404   7.607   0.388   0.543  0.1109 -0.0591 -0.0059
   17MOL   C173 3405   7.611   0.533   0.536  0.3318  0.2570  0.3766
   17MOL   C174 3406   7.663   0.606   0.665  0.0259 -0.1080  0.4012
   17MOL   C175 3407   7.633   0.757   0.674 -0.5396 -0.5892 -0.0703
   17MOL   H176 3408   7.509   0.569   0.524  0.1085 -0.3705  0.3772
   17MOL   H177 3409   7.669   0.565   0.449  0.2646  0.4153  0.3911
   17MOL   H178 3410   7.627   0.562   0.757  1.3951  2.5931  2.3102
   17MOL   H179 3411   7.771   0.599   0.677  0.1008  1.6487  0.9987
   17MOL   H180 3412   7.529   0.769   0.705 -0.2101  1.9428  0.2081
   17MOL   H181 3413   7.647   0.812   0.581  1.5110 -0.7661  0.1123
   17MOL   O182 3414   7.710   0.817   0.777 -0.4092  0.3287 -0.5184
   17MOL   C183 3415   7.661   0.946   0.811  0.1469 -0.3014  0.7900
   17MOL   C184 3416   7.718   0.992   0.946  0.6505 -0.1922 -1.0631
   17MOL   C185 3417   0.073   1.032   0.951 -0.4554  0.3633  0.6336
   17MOL   H186 3418   7.552   0.942   0.821  0.1267 -1.9182  0.0205
   17MOL   H187 3419   7.681   1.021   0.735  0.4920 -0.8620  0.3276
   17MOL   H188 3420   7.654   1.077   0.970 -2.8482 -2.7236 -1.0342
   17MOL   H189 3421   7.696   0.909   1.013  2.1763 -1.9366 -2.6954
   17MOL   H190 3422   0.135   0.960   0.898 -1.0904  0.4380 -0.2296
   17MOL   H191 3423   0.103   1.025   1.055  0.6059  0.1489  0.3234
   17MOL   O192 3424   0.099   1.161   0.908 -0.2079  0.0493  0.8951
   17MOL   C193 3425   0.241   1.208   0.921 -0.3465 -0.0708  0.0694
   17MOL   C194 3426   0.237   1.348   0.860  0.1075 -0.4896 -0.1973
   17MOL   C195 3427   0.157   1.453   0.939 -0.0780  0.2027  0.1511
   17MOL   H196 3428   0.309   1.145   0.864 -2.6266 -1.8018 -0.8345
   17MOL   H197 3429   0.281   1.207   1.022  1.7206 -1.1853 -0.7167
   17MOL   H198 3430   0.337   1.387   0.842 -0.2596 -0.3199 -1.9697
   17MOL   H199 3431   0.188   1.331   0.764 -0.6040  1.0270 -0.1295
   17MOL   H200 3432   0.148   1.540   0.874  2.2539 -1.0488 -1.9302
   17MOL   H201 3433   0.218   1.476   1.027 -1.7404  3.4986  0.5167
   17MOL   H202 3434   0.054   1.424   0.958 -0.1552  0.0870 -0.4518
   18MOL     O1 3435   1.841   1.063   5.608 -0.1340  0.3441  0.0420
   18MOL     C2 3436   1.731   1.142   5.657  0.3164  0.7322 -0.8497
   18MOL     C3 3437   1.730   1.156   5.807  0.2019 -0.4954  1.2458
   18MOL     C4 3438   1.623   1.247   5.858  0.3762 -0.1728 -1.2011
   18MOL     H5 3439   1.645   1.111   5.598  1.5447 -0.8839 -1.8261
   18MOL     H6 3440   1.739   1.245   5.622 -0.0960  0.7336 -0.9427
   18MOL     H7 3441   1.706   1.060   5.852 -1.5310 -1.0583 -0.8003
   18MOL     H8 3442   1.824   1.192   5.849 -0.2110  1.2077  0.7393
   18MOL     H9 3443   1.529   1.218   5.811  0.7199  0.4148 -2.2828
   18MOL    H10 3444   1.640   1.352   5.833 -0.4846 -0.2044 -1.9569
   18MOL    H11 3445   1.808   0.980   5.578  0.0141 -1.0183  3.4382
   18MOL    O12 3446   1.624   1.243   6.000  0.7143 -0.5136  0.0399
   18MOL    C13 3447   1.514   1.311   6.067 -0.1572 -0.0461  0.1723
   18MOL    C14 3448   1.385   1.224   6.060  0.1215 -0.7216 -0.2138
   18MOL    C15 3449   1.283   1.293   6.157  0.6904  0.6512 -0.2820
   18MOL    H16 3450   1.496   1.409   6.024  0.6524  0.5362  1.1423
   18MOL    H17 3451   1.545   1.306   6.171 -0.7736 -1.5939  0.3006
   18MOL    H18 3452   1.361   1.221   5.954  0.7055 -1.4338 -0.3283
   18MOL    H19 3453   1.412   1.122   6.089 -0.1978 -0.3201  1.5489
   18MOL    H20 3454   1.337   1.320   6.248  1.2314 -1.5158  0.0570
   18MOL    H21 3455   1.208   1.220   6.187  1.8227  0.9978  3.6642
   18MOL    O22 3456   1.219   1.401   6.091 -0.1615 -0.5752  0.1089
   18MOL    C23 3457   1.142   1.476   6.179 -0.0426  0.2287  0.0388
   18MOL    C24 3458   1.145   1.617   6.110  0.0960  0.0289 -0.3152
   18MOL    C25 3459   1.074   1.723   6.189 -0.4648 -0.0589  0.1578
   18MOL    H26 3460   1.189   1.489   6.277  0.7190 -0.7866 -0.1859
   18MOL    H27 3461   1.043   1.430   6.184  0.0196  0.2116  1.4977
   18MOL    H28 3462   1.248   1.651   6.105  1.4286 -3.7163  0.1995
   18MOL    H29 3463   1.122   1.626   6.003 -2.2745  1.3890  0.2569
   18MOL    H30 3464   1.106   1.721   6.293  1.2132  0.4645 -0.3422
   18MOL    H31 3465   0.965   1.718   6.177 -0.6461  1.8410  0.7927
   18MOL    O32 3466   1.124   1.850   6.138  0.2123 -0.1588 -0.6331
   18MOL    C33 3467   1.029   1.959   6.161 -0.5517 -0.6755  0.5365
   18MOL    C34 3468   1.124   2.083   6.156 -0.8645 -0.6828 -0.6818
   18MOL    C35 3469   1.066   2.217   6.177 -0.4326 -0.5123  0.2526
   18MOL    H36 3470   0.974   1.950   6.254  0.0672  1.5718  1.1563
   18MOL    H37 3471   0.955   1.961   6.081 -0.0958 -0.1793  0.1180
   18MOL    H38 3472   1.190   2.074   6.242  0.0570  0.1911 -1.2933
   18MOL    H39 3473   1.185   2.069   6.067 -0.0871  1.6098 -0.5268
   18MOL    H40 3474   1.143   2.291   6.199 -1.4796  0.3867  0.9522
   18MOL    H41 3475   1.001   2.217   6.265 -1.0949  0.2390 -0.2273
   18MOL    O42 3476   0.993   2.260   6.061 -0.4557 -0.6094  0.0433
   18MOL    C43 3477   0.903   2.371   6.080  0.2759  0.3669 -0.1647
   18MOL    C44 3478   0.835   2.403   5.941 -0.0132  0.1425 -0.0749
   18MOL    C45 3479   0.734   2.288   5.916 -0.0557  0.6867  0.1513
   18MOL    H46 3480   0.964   2.457   6.108 -0.5523  0.4265  1.4965
   18MOL    H47 3481   0.833   2.344   6.159 -0.3432 -1.0544 -1.1857
   18MOL    H48 3482   0.783   2.498   5.945 -1.0715 -0.4264  0.0164
   18MOL    H49 3483   0.909   2.411   5.861  0.4890  2.8510  0.6118
   18MOL    H50 3484   0.674   2.294   6.007 -1.0841  0.2263 -0.4896
   18MOL    H51 3485   0.781   2.189   5.913 -1.0466  0.2561 -2.8969
   18MOL    O52 3486   0.655   2.295   5.798 -0.2874 -0.2722  0.4779
   18MOL    C53 3487   0.531   2.221   5.797  0.4075  0.0793  0.4648
   18MOL    C54 3488   0.407   2.317   5.830  0.0106 -0.2837  0.2631
   18MOL    C55 3489   0.384   2.363   5.978 -0.5789 -0.7237  0.3062
   18MOL    H56 3490   0.531   2.135   5.863 -0.5425 -1.7691 -1.8924
   18MOL    H57 3491   0.528   2.173   5.699 -0.0390 -1.1609  1.0875
   18MOL    H58 3492   0.426   2.396   5.757  0.6045 -2.5434 -2.0677
   18MOL    H59 3493   0.314   2.272   5.795  1.0032 -0.4700 -2.2220
   18MOL    H60 3494   0.322   2.452   5.980  0.5098  0.0891 -0.7359
   18MOL    H61 3495   0.476   2.386   6.032 -0.1703 -2.5198  0.4102
   18MOL    O62 3496   0.337   2.253   6.044 -0.3481 -0.2029  0.2846
   18MOL    C63 3497   0.335   2.271   6.184  0.0038  0.5162 -0.6311
   18MOL    C64 3498   0.290   2.147   6.265 -0.3609 -0.2442 -0.0400
   18MOL    C65 3499   0.381   2.024   6.240 -0.5645  0.1429 -0.1803
   18MOL    H66 3500   0.270   2.352   6.219 -1.4278 -0.2430 -1.4832
   18MOL    H67 3501   0.434   2.296   6.221  0.3008  0.6889 -1.5360
   18MOL    H68 3502   0.297   2.166   6.372  2.5339 -0.4889 -0.1496
   18MOL    H69 3503   0.185   2.121   6.251 -0.7167  0.1779  1.7533
   18MOL    H70 3504   0.478   2.048   6.283 -0.6679  0.6299 -0.2161
   18MOL    H71 3505   0.380   2.021   6.131  1.8873  1.6974 -0.2753
   18MOL    O72 3506   0.336   1.899   6.300  0.7561 -0.3568 -0.3558
   18MOL    C73 3507   0.338   1.893   6.441  0.2195 -0.5274 -0.1171
   18MOL    C74 3508   0.285   1.754   6.485  0.6816  0.2983  0.2203
   18MOL    C75 3509   0.315   1.727   6.630  0.1813  0.1297 -0.7071
   18MOL    H76 3510   0.266   1.960   6.489 -0.3767  0.0902 -1.8229
   18MOL    H77 3511   0.437   1.907   6.483 -0.7704  0.3789  2.0336
   18MOL    H78 3512   0.178   1.756   6.467  0.8809  1.4717 -0.9145
   18MOL    H79 3513   0.327   1.674   6.423 -1.1102  1.7743 -3.0143
   18MOL    H80 3514   0.276   1.801   6.700 -0.6532  0.6289 -1.6899
   18MOL    H81 3515   0.423   1.742   6.625  0.2576 -0.0322  0.4252
   18MOL    O82 3516   0.295   1.586   6.668 -0.1455  0.1166 -0.0512
   18MOL    C83 3517   0.328   1.561   6.806  0.3626  0.0623  0.0333
   18MOL    C84 3518   0.282   1.416   6.845 -0.3738  0.1778  0.0285
   18MOL    C85 3519   0.286   1.390   6.995 -0.6324 -0.3203 -0.4293
   18MOL    H86 3520   0.276   1.636   6.866  0.9306 -0.0963  0.7325
   18MOL    H87 3521   0.435   1.576   6.818  0.1318  2.7217 -0.9490
   18MOL    H88 3522   0.186   1.398   6.797 -0.8353 -0.3381  1.1426
   18MOL    H89 3523   0.352   1.340   6.810  0.8542  0.9319  0.8113
   18MOL    H90 3524   0.245   1.289   7.001  0.2537 -0.8530 -2.8369
   18MOL    H91 3525   0.225   1.453   7.060  0.0647  0.4265 -0.4928
   18MOL    O92 3526   0.418   1.397   7.039  0.2728  0.1813  0.5679
   18MOL    C93 3527   0.460   1.286   7.110  0.1201  0.6258  0.0614
   18MOL    C94 3528   0.616   1.297   7.125  0.9855  0.0027 -0.2090
   18MOL    C95 3529   0.698   1.265   6.996 -0.0565  0.0668 -0.0523
   18MOL    H96 3530   0.435   1.193   7.058  2.4777  1.0888 -2.0678
   18MOL    H97 3531   0.412   1.273   7.206  1.5284 -0.4413  0.6434
   18MOL    H98 3532   0.638   1.397   7.161  1.5640 -0.2834  0.2460
   18MOL    H99 3533   0.654   1.230   7.202  0.3909 -0.5034 -0.3547
   18MOL   H100 3534   0.653   1.329   6.920 -1.8087 -0.1725  0.7527
   18MOL   H101 3535   0.688   1.165   6.953  2.0381  1.1208 -3.2142
   18MOL   O102 3536   0.832   1.310   7.012 -0.2444 -0.0322 -0.0451
   18MOL   C103 3537   0.883   1.338   6.885 -0.4223 -0.5174 -0.2881
   18MOL   C104 3538   1.008   1.422   6.900 -0.1254 -0.2849  0.1045
   18MOL   C105 3539   1.064   1.485   6.773  0.2695 -0.1551 -0.6684
   18MOL   H106 3540   0.818   1.389   6.814 -0.8488 -1.0568 -0.2782
   18MOL   H107 3541   0.899   1.251   6.821 -1.5320  1.6398 -3.6327
   18MOL   H108 3542   1.001   1.500   6.976  0.0222  0.3098 -0.4868
   18MOL   H109 3543   1.087   1.358   6.939  1.5951  1.2999 -0.6804
   18MOL   H110 3544   1.080   1.412   6.694 -1.9212 -1.4940  0.0664
   18MOL   H111 3545   1.158   1.534   6.796  0.6765 -0.8323 -0.8615
   18MOL   O112 3546   0.982   1.594   6.729 -0.9897 -0.4948  0.6843
   18MOL   C113 3547   1.020   1.630   6.593  0.1821  0.1270  0.2841
   18MOL   C114 3548   0.918   1.725   6.518  0.2577 -0.1643 -0.1013
   18MOL   C115 3549   0.946   1.873   6.538 -0.6047  0.5466 -0.1334
   18MOL   H116 3550   1.017   1.539   6.532 -1.5459  0.5837 -0.3711
   18MOL   H117 3551   1.118   1.676   6.597  1.1177 -1.9425  2.2141
   18MOL   H118 3552   0.942   1.699   6.416  0.9309  1.8073 -0.4678
   18MOL   H119 3553   0.815   1.699   6.543  0.6530 -1.1873  0.4530
   18MOL   H120 3554   1.040   1.900   6.490 -1.5670 -1.2927 -3.2053
   18MOL   H121 3555   0.952   1.900   6.644  0.7133  1.9352 -0.5523
   18MOL   O122 3556   0.836   1.949   6.479 -0.3216 -0.8596 -0.0569
   18MOL   C123 3557   0.843   2.096   6.492  0.2235  0.0762  0.6502
   18MOL   C124 3558   0.726   2.163   6.431  0.2890  0.0604 -0.3376
   18MOL   C125 3559   0.720   2.309   6.448 -0.0537  0.1133  0.1654
   18MOL   H126 3560   0.936   2.133   6.447  0.9658 -1.3873  0.9441
   18MOL   H127 3561   0.844   2.119   6.598 -0.4694  0.6226  0.5390
   18MOL   H128 3562   0.729   2.152   6.322 -0.7877  3.2966 -0.7373
   18MOL   H129 3563   0.632   2.116   6.458 -0.5813  1.7131 -0.4609
   18MOL   H130 3564   0.806   2.354   6.398  0.1830 -1.3065 -0.7167
   18MOL   H131 3565   0.757   2.341   6.546 -1.1167 -1.0722  0.9702
   18MOL   O132 3566   0.596   2.368   6.423 -0.0235 -0.0898 -0.3748
   18MOL   C133 3567   0.605   2.508   6.396 -0.5367 -0.8317  0.0102
   18MOL   C134 3568   0.457   2.570   6.407 -0.1777 -0.0046 -0.1707
   18MOL   C135 3569   0.440   2.701   6.336  0.5147  0.0694  0.2936
   18MOL   H136 3570   0.641   2.506   6.293 -1.6832 -0.3231 -0.4099
   18MOL   H137 3571   0.677   2.553   6.464 -3.1891  1.2407  1.5627
   18MOL   H138 3572   0.380   2.504   6.366  1.0201 -1.0283 -0.8225
   18MOL   H139 3573   0.425   2.571   6.511 -0.0790 -0.6164 -0.1324
   18MOL   H140 3574   0.526   2.762   6.364 -0.3106  0.7963  1.3011
   18MOL   H141 3575   0.349   2.754   6.365  0.9310  1.2909 -0.5653
   18MOL   O142 3576   0.427   2.671   6.199 -0.1351 -0.3493 -0.2241
   18MOL   C143 3577   0.418   2.790   6.121 -0.1688 -0.8804  0.5190
   18MOL   C144 3578   0.448   2.764   5.975 -0.6634 -1.1824 -0.0973
   18MOL   C145 3579   0.465   2.886   5.885 -0.1361  0.8308 -0.0264
   18MOL   H146 3580   0.488   2.865   6.159 -2.0475  2.1239 -1.7421
   18MOL   H147 3581   0.322   2.841   6.132 -0.9258 -2.3858  0.9887
   18MOL   H148 3582   0.545   2.715   5.971 -0.0509  0.0216 -0.0636
   18MOL   H149 3583   0.372   2.701   5.930 -2.1584 -0.1669  0.9543
   18MOL   H150 3584   0.517   2.974   5.922 -0.9358  2.0407 -1.7158
   18MOL   H151 3585   0.363   2.916   5.859 -1.2081 -1.3761  1.3943
   18MOL   O152 3586   0.536   2.865   5.766  0.7466 -0.0009  0.1129
   18MOL   C153 3587   0.456   2.794   5.664  0.3199  0.3769  0.2650
   18MOL   C154 3588   0.557   2.737   5.559 -0.0294 -0.0037  0.4377
   18MOL   C155 3589   0.489   2.707   5.426 -0.7283  0.8417 -0.1105
   18MOL   H156 3590   0.383   2.866   5.628  0.7268  0.5306 -0.2488
   18MOL   H157 3591   0.404   2.706   5.703 -0.8846  0.3088 -1.4529
   18MOL   H158 3592   0.632   2.810   5.530 -1.0141  0.6945 -0.3818
   18MOL   H159 3593   0.613   2.647   5.584  0.5707  0.1928 -0.1842
   18MOL   H160 3594   0.570   2.688   5.355  0.1185  1.2461  0.7440
   18MOL   H161 3595   0.422   2.784   5.386  0.6646  0.8657 -2.5249
   18MOL   O162 3596   0.414   2.592   5.443 -0.1506  0.0554 -0.1761
   18MOL   C163 3597   0.370   2.547   5.317 -0.2790 -0.0481  0.1564
   18MOL   C164 3598   0.277   2.431   5.324 -0.0108  0.3525 -0.0861
   18MOL   C165 3599   0.249   2.363   5.191  0.1397 -0.1706 -0.5314
   18MOL   H166 3600   0.455   2.519   5.255  0.5260  0.4865  1.0060
   18MOL   H167 3601   0.340   2.633   5.257  1.0059  0.3512  0.0773
   18MOL   H168 3602   0.311   2.360   5.399 -1.0959 -0.3011 -0.2081
   18MOL   H169 3603   0.179   2.457   5.364  0.0918  1.4059 -0.4884
   18MOL   H170 3604   0.294   2.422   5.111 -2.9054  2.4607 -0.3963
   18MOL   H171 3605   0.143   2.349   5.171 -0.7354 -0.8353  4.0043
   18MOL   O172 3606   0.310   2.238   5.197  0.7362  0.1286  0.2257
   18MOL   C173 3607   0.312   2.170   5.073  0.1181 -0.2795 -0.4847
   18MOL   C174 3608   0.361   2.026   5.086  0.1556  0.5777  0.6278
   18MOL   C175 3609   0.514   2.018   5.134 -0.4362 -0.7711  0.2128
   18MOL   H176 3610   0.375   2.225   5.003  1.6783  0.0651  1.1542
   18MOL   H177 3611   0.210   2.171   5.035 -0.0458 -1.3580 -0.1046
   18MOL   H178 3612   0.294   1.964   5.146 -0.9807  2.0248  0.8846
   18MOL   H179 3613   0.349   1.976   4.990 -1.5840  1.1661  0.5176
   18MOL   H180 3614   0.530   1.917   5.172  0.4572 -0.4108  0.7890
   18MOL   H181 3615   0.519   2.089   5.216 -1.0439 -0.2049 -0.2241
   18MOL   O182 3616   0.598   2.043   5.022 -0.8312 -0.2478  0.3124
   18MOL   C183 3617   0.734   2.030   5.059  0.2568 -0.3076  0.7510
   18MOL   C184 3618   0.811   2.034   4.927  0.6714  0.2039 -0.1878
   18MOL   C185 3619   0.960   2.013   4.950 -0.3026  0.0792 -0.9581
   18MOL   H186 3620   0.750   1.930   5.098 -1.2671 -0.6476  0.5366
   18MOL   H187 3621   0.770   2.099   5.135  1.4446 -1.6217  1.4033
   18MOL   H188 3622   0.770   1.959   4.859  0.5963  0.1049 -0.0344
   18MOL   H189 3623   0.800   2.134   4.885 -0.9861 -0.9502 -2.6298
   18MOL   H190 3624   1.008   2.015   4.852  1.0861 -0.0951 -0.2810
   18MOL   H191 3625   0.979   1.923   5.008 -0.9634  2.4840  3.1414
   18MOL   O192 3626   1.013   2.121   5.024 -0.4648 -0.0445  0.6949
   18MOL   C193 3627   1.157   2.122   5.042  0.2795  0.5941  0.1716
   18MOL   C194 3628   1.211   2.205   5.160  0.4685  0.1474  0.0026
   18MOL   C195 3629   1.358   2.175   5.182  0.2487 -0.5331 -0.5484
   18MOL   H196 3630   1.204   2.154   4.949  0.6910 -2.4583 -0.7119
   18MOL   H197 3631   1.184   2.019   5.065 -0.7758 -0.2703 -2.2679
   18MOL   H198 3632   1.190   2.309   5.133 -2.1684 -0.6927 -1.3588
   18MOL   H199 3633   1.153   2.188   5.251 -0.8437  0.9669 -0.6458
   18MOL   H200 3634   1.392   2.205   5.281  0.6563  0.9326 -1.1172
   18MOL   H201 3635   1.409   2.207   5.091 -0.6937 -0.4664 -1.0551
   18MOL   H202 3636   1.366   2.067   5.196 -1.6045 -0.5620  0.4593
   19MOL     O1 3637   0.480   5.773   3.895  0.6427  0.8030  0.0724
   19MOL     C2 3638   0.461   5.850   4.018  0.4330  0.5484 -0.1740
   19MOL     C3 3639   0.307   5.856   4.064  0.0422 -0.1165  0.2647
   19MOL     C4 3640   0.265   5.935   4.192  0.1717 -0.3763  0.4785
   19MOL     H5 3641   0.502   5.950   4.007 -0.1224  0.9251  1.1542
   19MOL     H6 3642   0.528   5.818   4.098 -0.1580  0.9835  0.5012
   19MOL     H7 3643   0.250   5.915   3.993  0.7775 -0.0743 -0.2956
   19MOL     H8 3644   0.264   5.758   4.079  0.3925 -0.3180 -0.0266
   19MOL     H9 3645   0.297   6.039   4.186 -1.4144  0.1021 -0.0154
   19MOL    H10 3646   0.308   5.894   4.283 -1.1281 -2.3694  0.2285
   19MOL    H11 3647   0.499   5.687   3.929  1.6952  0.2008 -1.9582
   19MOL    O12 3648   0.121   5.923   4.201 -0.3345  0.6852  0.5145
   19MOL    C13 3649   0.059   5.950   4.329 -0.2518  0.6648  0.9172
   19MOL    C14 3650   7.695   5.938   4.323 -1.1160  0.7176 -0.0097
   19MOL    C15 3651   7.636   5.975   4.459  0.1634  0.0118  0.3387
   19MOL    H16 3652   0.096   6.042   4.373  1.0493  0.1409  0.9545
   19MOL    H17 3653   0.102   5.871   4.391  0.1957  0.4895  0.3892
   19MOL    H18 3654   7.649   6.007   4.252 -0.4742  0.7255 -0.4234
   19MOL    H19 3655   7.667   5.836   4.299 -1.1598  0.6654  0.2713
   19MOL    H20 3656   7.537   6.016   4.439 -0.1518 -1.0717 -0.4131
   19MOL    H21 3657   7.689   6.059   4.502  2.3565 -0.3805 -1.5143
   19MOL    O22 3658   7.643   5.856   4.536 -0.1192 -0.5555 -0.3269
   19MOL    C23 3659   7.596   5.870   4.669  0.6230 -0.5157 -0.0818
   19MOL    C24 3660   7.728   5.850   4.742 -0.0945 -0.1545  0.2217
   19MOL    C25 3661   7.723   5.883   4.893 -0.4821  0.5448  0.2008
   19MOL    H26 3662   7.532   5.784   4.689 -0.9056  0.1364 -2.0033
   19MOL    H27 3663   7.539   5.960   4.690  2.0667  0.0290  1.6121
   19MOL    H28 3664   7.771   5.751   4.728  0.3012  0.0161  0.2207
   19MOL    H29 3665   0.007   5.919   4.691 -2.0062  0.4238 -1.5409
   19MOL    H30 3666   7.631   5.837   4.930 -1.7671 -1.4448 -5.0404
   19MOL    H31 3667   7.727   5.990   4.914  0.9246  0.5678 -0.1700
   19MOL    O32 3668   0.052   5.837   4.957  0.2713  0.1838  0.0416
   19MOL    C33 3669   0.050   5.851   5.100  0.8330  0.3934 -0.3558
   19MOL    C34 3670   0.187   5.815   5.151 -0.8059  0.2027 -0.1482
   19MOL    C35 3671   0.187   5.779   5.302 -0.3337 -0.5256 -0.7917
   19MOL    H36 3672   7.759   5.793   5.148 -1.0799  0.3744 -3.4157
   19MOL    H37 3673   0.040   5.957   5.125  1.0231  0.5262 -0.8486
   19MOL    H38 3674   0.225   5.738   5.085  0.0644 -1.8515  2.6629
   19MOL    H39 3675   0.252   5.897   5.119 -0.8327 -0.2468 -1.3589
   19MOL    H40 3676   0.102   5.712   5.317 -2.2447  1.7070 -1.4359
   19MOL    H41 3677   0.165   5.867   5.363 -0.8927 -0.4380 -1.1202
   19MOL    O42 3678   0.307   5.711   5.333 -0.5929  0.2315 -0.0470
   19MOL    C43 3679   0.319   5.695   5.479 -0.3401  0.1820  0.2461
   19MOL    C44 3680   0.434   5.601   5.515  0.1908  0.2000  0.6043
   19MOL    C45 3681   0.412   5.445   5.501 -0.1106 -0.2345 -0.1898
   19MOL    H46 3682   0.227   5.668   5.531 -1.5287 -0.5978 -2.1814
   19MOL    H47 3683   0.352   5.793   5.514 -0.1664  0.8960 -1.8681
   19MOL    H48 3684   0.522   5.626   5.457  0.2138  1.9788  1.3511
   19MOL    H49 3685   0.468   5.616   5.618  1.7564 -1.2964  0.3068
   19MOL    H50 3686   0.366   5.427   5.404  0.6806  0.7280 -0.7487
   19MOL    H51 3687   0.346   5.419   5.584  0.2593 -1.2048 -0.1921
   19MOL    O52 3688   0.533   5.367   5.488 -0.2000  0.2040  0.1114
   19MOL    C53 3689   0.616   5.370   5.602 -0.5849  0.1983  0.1779
   19MOL    C54 3690   0.727   5.266   5.582  0.1289 -0.4545 -0.4483
   19MOL    C55 3691   0.844   5.261   5.682  0.4273 -0.2508  0.3705
   19MOL    H56 3692   0.558   5.339   5.688 -1.3603  0.0360 -0.4014
   19MOL    H57 3693   0.651   5.472   5.620 -1.3791  0.6763 -0.9358
   19MOL    H58 3694   0.697   5.166   5.551 -0.0529 -0.4506 -0.2799
   19MOL    H59 3695   0.771   5.303   5.489 -0.1878 -0.9667 -0.8028
   19MOL    H60 3696   0.815   5.204   5.770  0.1223 -3.2796 -1.6255
   19MOL    H61 3697   0.847   5.364   5.717  2.4443 -1.0046  2.5111
   19MOL    O62 3698   0.964   5.214   5.628 -0.7496  0.0742 -0.2859
   19MOL    C63 3699   0.967   5.071   5.607 -0.2980 -0.3377 -0.3296
   19MOL    C64 3700   1.077   5.036   5.517  0.3149  0.0624 -0.4893
   19MOL    C65 3701   1.074   5.093   5.375 -0.3379 -0.3484 -0.2897
   19MOL    H66 3702   0.874   5.032   5.564 -1.1044  0.6943  0.4571
   19MOL    H67 3703   0.991   5.018   5.699  2.2238  0.1361 -0.6832
   19MOL    H68 3704   1.173   5.066   5.558  0.4411 -1.4576  0.3817
   19MOL    H69 3705   1.074   4.928   5.500 -0.1946 -0.2362  1.3888
   19MOL    H70 3706   1.169   5.086   5.323 -1.2202  0.4187 -2.0741
   19MOL    H71 3707   1.058   5.199   5.394 -0.8977 -0.7876  1.8093
   19MOL    O72 3708   0.953   5.051   5.304  0.2356  0.3035  0.2671
   19MOL    C73 3709   0.966   5.088   5.170 -0.3324 -0.3309  0.1714
   19MOL    C74 3710   0.844   5.023   5.094  0.2037 -0.0003 -0.1785
   19MOL    C75 3711   0.712   5.079   5.140 -0.2363  0.3239  0.1084
   19MOL    H76 3712   1.062   5.070   5.120  0.2825 -0.6248  1.4202
   19MOL    H77 3713   0.962   5.197   5.165 -0.8685 -0.4677 -4.0038
   19MOL    H78 3714   0.848   5.049   4.988 -0.6714  0.5895 -0.0703
   19MOL    H79 3715   0.846   4.915   5.104 -0.1454  0.0818  0.8682
   19MOL    H80 3716   0.678   5.057   5.242 -1.4332  1.0462 -0.1220
   19MOL    H81 3717   0.641   5.033   5.072 -0.2724 -0.3820  0.6185
   19MOL    O82 3718   0.704   5.217   5.114  0.0620  0.1023  0.2664
   19MOL    C83 3719   0.575   5.267   5.157 -0.1295  0.8429  0.7653
   19MOL    C84 3720   0.541   5.404   5.102  0.1315  0.6565 -0.0767
   19MOL    C85 3721   0.508   5.418   4.953 -0.3850 -0.0747  0.7486
   19MOL    H86 3722   0.572   5.270   5.265  0.7682  1.5614  0.7746
   19MOL    H87 3723   0.493   5.205   5.121  2.0795 -2.4996  1.2491
   19MOL    H88 3724   0.462   5.454   5.158 -2.1733 -0.2711 -2.4003
   19MOL    H89 3725   0.637   5.455   5.112  0.7254 -0.3410 -0.6170
   19MOL    H90 3726   0.410   5.384   4.922  0.0901 -1.1122  0.3982
   19MOL    H91 3727   0.563   5.344   4.895 -0.3677 -0.3436  1.1080
   19MOL    O92 3728   0.541   5.548   4.896 -0.1432 -0.7644  0.6051
   19MOL    C93 3729   0.453   5.647   4.953 -0.4248  0.4791  0.2305
   19MOL    C94 3730   0.458   5.790   4.899  0.3236 -1.1964  0.6873
   19MOL    C95 3731   0.596   5.853   4.920  0.2698  0.5057 -0.1140
   19MOL    H96 3732   0.488   5.656   5.056  0.3283  2.4567 -0.1677
   19MOL    H97 3733   0.347   5.623   4.960 -0.3038 -0.0881  0.1583
   19MOL    H98 3734   0.429   5.787   4.794  1.6133  1.6074  0.2280
   19MOL    H99 3735   0.375   5.836   4.953  1.8174 -1.0315  2.9336
   19MOL   H100 3736   0.675   5.787   4.886  0.2315 -0.3122  1.3149
   19MOL   H101 3737   0.614   5.871   5.026 -1.6983 -1.8909  0.6822
   19MOL   O102 3738   0.600   5.977   4.846 -0.0117  0.2504  0.1917
   19MOL   C103 3739   0.732   6.034   4.843  0.3095  0.4684  0.7652
   19MOL   C104 3740   0.736   6.180   4.804  0.3311 -0.1216 -0.1752
   19MOL   C105 3741   0.646   6.267   4.903  0.4166 -0.6287 -0.6261
   19MOL   H106 3742   0.789   5.976   4.771 -1.2426 -1.1921  0.8257
   19MOL   H107 3743   0.779   6.022   4.941 -0.2649  0.3346  1.0295
   19MOL   H108 3744   0.838   6.218   4.807  0.0406  0.7773 -1.3687
   19MOL   H109 3745   0.710   6.187   4.698 -2.2021 -0.6461  0.3749
   19MOL   H110 3746   0.674   6.262   5.008  0.3128  0.0474 -0.5642
   19MOL   H111 3747   0.546   6.229   4.883  0.1646 -0.3175  0.0297
   19MOL   O112 3748   0.641   6.402   4.865  0.0296 -0.4556  0.7202
   19MOL   C113 3749   0.569   6.485   4.952 -0.0162  0.3454  0.6764
   19MOL   C114 3750   0.529   6.615   4.881  0.8560 -0.6819 -0.1453
   19MOL   C115 3751   0.438   6.588   4.762  0.2086  0.4013 -0.4131
   19MOL   H116 3752   0.638   6.508   5.033 -0.7664 -1.9765  2.0437
   19MOL   H117 3753   0.483   6.426   4.985  0.4657 -0.3573  0.6991
   19MOL   H118 3754   0.477   6.671   4.959 -1.3231 -1.1025 -1.2668
   19MOL   H119 3755   0.613   6.681   4.859 -0.9957  2.6279  2.4346
   19MOL   H120 3756   0.345   6.542   4.796 -0.7244  2.5490  0.0696
   19MOL   H121 3757   0.483   6.534   4.678 -0.6066 -1.2428  0.1933
   19MOL   O122 3758   0.409   6.715   4.706  0.0943  0.1797  0.3084
   19MOL   C123 3759   0.322   6.694   4.595  0.3133  0.4822 -0.2517
   19MOL   C124 3760   0.286   6.824   4.527  0.3774  0.0849 -0.3432
   19MOL   C125 3761   0.164   6.805   4.439  0.8117  0.6618 -0.1974
   19MOL   H126 3762   0.227   6.653   4.627  0.6471  0.0886  0.2243
   19MOL   H127 3763   0.352   6.620   4.521 -0.5627 -0.2444  0.1160
   19MOL   H128 3764   0.264   6.899   4.604 -0.7584 -0.5178 -0.0743
   19MOL   H129 3765   0.373   6.860   4.472  1.4242  0.4604  1.5085
   19MOL   H130 3766   0.084   6.776   4.507  0.0360  0.2813 -1.2470
   19MOL   H131 3767   0.181   6.710   4.388 -0.8017 -0.5510  1.4458
   19MOL   O132 3768   0.141   6.905   4.338 -0.7849  0.2900 -0.5947
   19MOL   C133 3769   0.034   6.873   4.250  0.0328  0.0354 -0.2342
   19MOL   C134 3770   0.024   6.986   4.149  0.4044 -0.6537  0.2987
   19MOL   C135 3771   7.709   6.954   4.039  0.1029  0.1133  0.3741
   19MOL   H136 3772   7.731   6.872   4.310 -0.2609  1.5654 -0.6302
   19MOL   H137 3773   0.037   6.771   4.211  1.9820  0.6146 -1.6943
   19MOL   H138 3774   0.005   7.075   4.209  1.1835  0.3553 -0.9240
   19MOL   H139 3775   0.119   6.986   4.096 -0.6646  0.1681 -1.6442
   19MOL   H140 3776   7.619   6.903   4.074 -0.8668  1.4975 -0.0821
   19MOL   H141 3777   7.760   6.882   3.975 -0.8847  0.0730 -0.3923
   19MOL   O142 3778   7.688   7.074   3.964 -0.6688 -0.6499  0.3678
   19MOL   C143 3779   7.660   7.049   3.824  0.0245  0.2607  0.2376
   19MOL   C144 3780   7.630   7.188   3.766  0.6868 -0.6493 -0.8676
   19MOL   C145 3781   7.538   7.272   3.854  0.7732 -0.7714  0.2276
   19MOL   H146 3782   7.565   6.997   3.805 -2.2844  3.9112  1.3253
   19MOL   H147 3783   7.748   6.996   3.787 -0.6570 -0.3189 -0.5687
   19MOL   H148 3784   7.717   7.250   3.744 -0.4725  0.6549 -1.8835
   19MOL   H149 3785   7.573   7.182   3.674 -1.0630  2.0816 -0.0178
   19MOL   H150 3786   7.590   7.320   3.937  2.5909  0.2074 -1.4461
   19MOL   H151 3787   7.447   7.219   3.884 -1.2074  2.6257  0.4106
   19MOL   O152 3788   7.492   7.377   3.776 -0.3262 -0.5730 -0.2310
   19MOL   C153 3789   7.362   7.435   3.798 -0.2483  0.3072  0.3819
   19MOL   C154 3790   7.363   7.520   3.927  0.0220 -0.4559 -0.2498
   19MOL   C155 3791   7.221   7.558   3.974  0.4379 -0.2995 -0.3846
   19MOL   H156 3792   7.287   7.357   3.801  1.2517 -1.2078 -0.1481
   19MOL   H157 3793   7.341   7.503   3.715  2.5551  0.6279 -0.1502
   19MOL   H158 3794   7.406   7.458   4.005  2.8363  1.3173 -0.2968
   19MOL   H159 3795   7.419   7.613   3.933 -0.9203  0.2493 -1.9207
   19MOL   H160 3796   7.162   7.471   4.003 -0.6777  0.5346 -0.1236
   19MOL   H161 3797   7.172   7.604   3.888  1.2691  1.0557 -0.1648
   19MOL   O162 3798   7.224   7.661   4.077  0.3043 -0.3691 -0.5218
   19MOL   C163 3799   7.273   7.622   4.200  0.0883  0.0804 -0.0747
   19MOL   C164 3800   7.305   7.745   4.288 -0.3578  0.2438  0.9678
   19MOL   C165 3801   7.333   7.713   4.437  0.6087 -0.4529  0.9728
   19MOL   H166 3802   7.364   7.564   4.193 -0.5072 -1.0266  1.2456
   19MOL   H167 3803   7.196   7.563   4.249  1.3451 -0.1983  1.6181
   19MOL   H168 3804   7.391   0.006   4.243  0.1777 -0.2742  1.4114
   19MOL   H169 3805   7.218   0.023   4.282 -0.9779 -0.6158  0.4098
   19MOL   H170 3806   7.261   7.643   4.480  0.2028 -1.4060 -1.1918
   19MOL   H171 3807   7.319   0.021   4.487 -1.0474  0.3116 -0.8599
   19MOL   O172 3808   7.464   7.668   4.462 -0.7629 -0.5983  0.8191
   19MOL   C173 3809   7.495   7.621   4.592  0.0558  0.9664  0.0002
   19MOL   C174 3810   7.541   7.746   4.679 -0.4189  0.3836 -0.1144
   19MOL   C175 3811   7.577   7.701   4.823  0.3865 -0.0466 -0.1432
   19MOL   H176 3812   7.574   7.545   4.586  0.8347  1.6826  0.9822
   19MOL   H177 3813   7.419   7.566   4.646  0.2050 -0.2519 -1.0089
   19MOL   H178 3814   7.626   0.008   4.632 -1.3041  0.9709 -1.1033
   19MOL   H179 3815   7.461   0.031   4.687  1.1414  1.9342  1.9002
   19MOL   H180 3816   7.647   7.618   4.812  0.9450  0.0783  2.1778
   19MOL   H181 3817   7.486   7.673   4.876 -1.0717  1.0058 -2.0458
   19MOL   O182 3818   7.640   0.020   4.882 -0.0947  0.2322 -0.4515
   19MOL   C183 3819   7.718   7.775   4.988  0.3937 -0.1135  0.6785
   19MOL   C184 3820   7.784   0.111   5.045 -0.0422  0.4804 -0.1375
   19MOL   C185 3821   0.094   0.089   5.167  0.6686 -0.2463 -0.3189
   19MOL   H186 3822   0.011   7.706   4.963 -1.3413 -2.2751  0.7928
   19MOL   H187 3823   7.672   7.724   5.073 -1.0812 -0.3941 -0.2720
   19MOL   H188 3824   0.059   0.154   4.967 -0.2878 -0.7935 -1.0591
   19MOL   H189 3825   7.706   0.183   5.071  0.2296  0.9103 -0.5021
   19MOL   H190 3826   0.168   0.166   5.191  1.4760 -1.5913  1.6794
   19MOL   H191 3827   0.155   0.001   5.147  1.7954  0.6170 -0.7917
   19MOL   O192 3828   0.031   0.058   5.292 -0.2562 -0.5163  0.1369
   19MOL   C193 3829   7.734   0.145   5.355 -0.2370  0.0517 -0.1655
   19MOL   C194 3830   7.690   0.104   5.502 -0.1903 -0.0821  0.1744
   19MOL   C195 3831   0.020   0.101   5.592 -0.2560  0.3091 -0.0678
   19MOL   H196 3832   7.658   0.170   5.281  0.5441  0.7973 -0.7394
   19MOL   H197 3833   7.787   0.241   5.356 -0.5745  0.2386 -0.1831
   19MOL   H198 3834   7.638   0.191   5.542  0.2743 -0.1473  0.9303
   19MOL   H199 3835   7.625   0.017   5.511  0.0419 -0.3579 -0.7789
   19MOL   H200 3836   7.778   0.113   5.696 -0.8905 -0.5165 -0.1461
   19MOL   H201 3837   0.091   0.183   5.582  0.7081 -0.5499 -0.3591
   19MOL   H202 3838   0.084   0.014   5.579 -2.4658 -1.3998  0.1065
   20MOL     O1 3839   4.344   0.228   3.447 -0.0463  0.3435 -0.0827
   20MOL     C2 3840   4.355   0.139   3.335 -0.1898  0.1751 -0.3191
   20MOL     C3 3841   4.319   0.201   3.192 -0.2080 -0.7495 -0.1726
   20MOL     C4 3842   4.331   0.101   3.081  0.3973  0.1831  0.7364
   20MOL     H5 3843   4.301   0.046   3.352  0.2390 -0.0074  0.0720
   20MOL     H6 3844   4.457   0.102   3.327 -0.0235  0.3743  0.7812
   20MOL     H7 3845   4.214   0.230   3.190 -0.2801 -0.8722  1.4898
   20MOL     H8 3846   4.382   0.286   3.168 -1.2036  0.6861  2.1562
   20MOL     H9 3847   4.269   0.125   2.995 -0.2147 -0.1502  1.0765
   20MOL    H10 3848   4.295   0.004   3.116 -3.0182  0.6168 -1.3532
   20MOL    H11 3849   4.254   0.251   3.465 -0.0745  0.8574 -0.8167
   20MOL    O12 3850   4.466   0.078   3.035 -0.2908 -0.2336  0.8050
   20MOL    C13 3851   4.481   0.073   2.893 -0.2806 -0.5095 -0.5097
   20MOL    C14 3852   4.630   0.081   2.853 -0.0144 -0.0687 -0.4678
   20MOL    C15 3853   4.659   0.059   2.707 -0.4333 -0.3764  0.1375
   20MOL    H16 3854   4.426   0.148   2.835  1.2803  0.3586 -0.8857
   20MOL    H17 3855   4.447   7.764   2.858 -1.5361 -0.0398 -0.6361
   20MOL    H18 3856   4.678   0.167   2.899 -1.3916 -0.0306  0.9417
   20MOL    H19 3857   4.673   7.786   2.909 -0.7470 -1.1486 -1.4826
   20MOL    H20 3858   4.587   0.118   2.650 -0.7103  0.5743  1.4482
   20MOL    H21 3859   4.642   7.741   2.685 -0.8587  0.3392 -3.3709
   20MOL    O22 3860   4.793   0.068   2.687  0.9584  0.0615 -0.2646
   20MOL    C23 3861   4.816   0.102   2.553 -0.2841  0.1169 -0.2845
   20MOL    C24 3862   4.963   0.132   2.538  0.0785 -0.2479 -0.9379
   20MOL    C25 3863   5.020   0.255   2.606 -0.5648  0.2104 -0.4440
   20MOL    H26 3864   4.760   0.188   2.517 -0.3257 -0.2740 -1.1778
   20MOL    H27 3865   4.795   0.017   2.488  1.0145  0.3963 -1.1095
   20MOL    H28 3866   5.023   0.049   2.576  1.6675  0.4065 -2.0173
   20MOL    H29 3867   4.988   0.145   2.433  0.5304 -0.8264 -0.9037
   20MOL    H30 3868   4.985   0.276   2.707 -2.2381 -0.0839 -0.9565
   20MOL    H31 3869   4.982   0.338   2.546 -3.0084 -1.3378 -1.0961
   20MOL    O32 3870   5.161   0.249   2.606  0.1192 -0.3185 -0.1340
   20MOL    C33 3871   5.224   0.356   2.682  0.0255  0.2227  0.4583
   20MOL    C34 3872   5.373   0.348   2.643 -0.1102 -0.0626 -0.5072
   20MOL    C35 3873   5.377   0.403   2.497 -0.0254 -0.4818  0.1977
   20MOL    H36 3874   5.211   0.337   2.789  0.0621  1.6114  0.7181
   20MOL    H37 3875   5.186   0.455   2.655  0.1529 -0.2657 -1.5865
   20MOL    H38 3876   5.441   0.399   2.711 -0.9014  0.4800 -0.1155
   20MOL    H39 3877   5.406   0.244   2.649  0.9914  0.4121  3.4878
   20MOL    H40 3878   5.328   0.501   2.493  1.5275  0.2395 -3.1121
   20MOL    H41 3879   5.313   0.342   2.433 -0.7679 -1.0168  1.4380
   20MOL    O42 3880   5.499   0.422   2.440 -0.3894  0.1461 -0.0434
   20MOL    C43 3881   5.500   0.462   2.303  0.0187 -0.3330 -0.0307
   20MOL    C44 3882   5.644   0.490   2.253  0.1792  0.5187 -0.3710
   20MOL    C45 3883   5.655   0.515   2.102 -0.2696  0.0827 -1.0571
   20MOL    H46 3884   5.444   0.555   2.291 -0.9176 -1.0997 -1.7142
   20MOL    H47 3885   5.443   0.392   2.243 -1.3178 -0.1325  0.9763
   20MOL    H48 3886   5.687   0.571   2.312 -0.5099 -0.7986  2.0041
   20MOL    H49 3887   5.692   0.395   2.279 -1.4195 -0.5369 -1.1924
   20MOL    H50 3888   5.631   0.619   2.079 -1.0363  0.5914  1.8695
   20MOL    H51 3889   5.569   0.462   2.060 -1.9274  1.1764  0.8363
   20MOL    O52 3890   5.789   0.477   2.052 -0.2149 -0.0832  0.8678
   20MOL    C53 3891   5.895   0.540   2.104  0.3152  0.4635 -0.6833
   20MOL    C54 3892   6.017   0.510   2.013 -0.3511 -0.0982  0.8627
   20MOL    C55 3893   6.043   0.589   1.887  0.2400 -0.9116  0.1992
   20MOL    H56 3894   5.922   0.511   2.206  1.3512  0.5429 -0.9247
   20MOL    H57 3895   5.874   0.646   2.115  1.3977  0.5342  0.8352
   20MOL    H58 3896   6.095   0.540   2.084 -0.6093  1.0501  0.6711
   20MOL    H59 3897   6.029   0.404   1.990 -0.3657  0.2248 -0.7062
   20MOL    H60 3898   6.033   0.697   1.900 -3.4300 -1.1403 -0.1265
   20MOL    H61 3899   5.970   0.573   1.807 -0.8538  1.0604  0.7654
   20MOL    O62 3900   6.160   0.540   1.826  0.4194  0.4679 -0.1908
   20MOL    C63 3901   6.214   0.624   1.714 -0.3908 -0.1595  0.1842
   20MOL    C64 3902   6.338   0.558   1.662  0.2270 -0.2868 -0.3175
   20MOL    C65 3903   6.311   0.421   1.597 -0.8044 -0.6521  0.2056
   20MOL    H66 3904   6.251   0.720   1.749 -0.4617  0.2720 -0.8895
   20MOL    H67 3905   6.136   0.653   1.643  0.2195  3.2087  0.8225
   20MOL    H68 3906   6.392   0.608   1.581  1.6883 -1.0161  0.1958
   20MOL    H69 3907   6.412   0.548   1.740 -1.4377  2.2126  1.6745
   20MOL    H70 3908   6.245   0.430   1.511  0.2838 -1.9338 -0.7824
   20MOL    H71 3909   6.255   0.355   1.663 -0.1742 -1.7748 -0.3539
   20MOL    O72 3910   6.442   0.368   1.574  0.0853 -0.0079  0.0737
   20MOL    C73 3911   6.448   0.289   1.451 -0.5911 -0.1097 -1.0102
   20MOL    C74 3912   6.594   0.244   1.408  0.3707 -0.1936  0.5135
   20MOL    C75 3913   6.589   0.164   1.274  0.5125  0.4837  0.8223
   20MOL    H76 3914   6.393   0.347   1.377 -0.5253  1.0520 -0.1635
   20MOL    H77 3915   6.383   0.203   1.464 -0.2810 -0.1468  0.4378
   20MOL    H78 3916   6.660   0.329   1.391  1.2913 -1.0208 -0.0502
   20MOL    H79 3917   6.629   0.179   1.488  1.5227  0.3107  0.4303
   20MOL    H80 3918   6.541   0.226   1.198  1.2141 -0.2437 -0.2389
   20MOL    H81 3919   6.518   0.082   1.284  0.6362  0.1439 -0.8880
   20MOL    O82 3920   6.718   0.121   1.242 -0.3136 -0.1989  0.6804
   20MOL    C83 3921   6.726   0.030   1.134  0.0250  0.4207 -0.2230
   20MOL    C84 3922   6.854   7.745   1.149  0.1528  0.0452 -0.1749
   20MOL    C85 3923   6.876   7.673   1.024 -0.0194 -0.4968 -0.8642
   20MOL    H86 3924   6.702   0.082   1.041 -3.0420  0.0267  0.2788
   20MOL    H87 3925   6.647   7.744   1.147  1.6329 -1.5993 -1.5129
   20MOL    H88 3926   6.933   0.029   1.169  0.0340 -0.3775  1.9367
   20MOL    H89 3927   6.848   7.670   1.227  0.0667 -1.0980 -1.2572
   20MOL    H90 3928   6.869   7.745   0.942 -0.9668  2.0390  1.3534
   20MOL    H91 3929   6.798   7.603   0.997  0.9120 -2.0123  0.2754
   20MOL    O92 3930   7.009   7.618   1.023  0.4141 -0.1533  0.3379
   20MOL    C93 3931   7.034   7.533   0.910  0.1504  0.5366 -0.2816
   20MOL    C94 3932   7.175   7.477   0.915 -0.1386  0.0564 -0.6155
   20MOL    C95 3933   7.281   7.582   0.902 -0.3485 -0.2824 -0.0361
   20MOL    H96 3934   7.017   7.588   0.818 -1.2102 -1.0661 -1.0183
   20MOL    H97 3935   6.965   7.448   0.909  1.3299 -0.4597  0.5688
   20MOL    H98 3936   7.191   7.427   1.011 -1.4864 -0.3226 -0.5761
   20MOL    H99 3937   7.187   7.404   0.835  1.1516  0.6665 -0.9957
   20MOL   H100 3938   7.259   7.675   0.953 -1.2827 -0.0386 -0.8658
   20MOL   H101 3939   7.292   7.589   0.794  0.5896 -0.0432  0.0750
   20MOL   O102 3940   7.397   7.513   0.951  0.0273  0.2841 -0.2481
   20MOL   C103 3941   7.526   7.578   0.949 -1.4663  0.3033  0.7050
   20MOL   C104 3942   7.623   7.458   0.964 -0.5645 -0.9086  0.4799
   20MOL   C105 3943   7.764   7.505   1.003 -0.6110  0.1681 -0.3518
   20MOL   H106 3944   7.537   7.633   1.043  0.4171  0.8237  0.2015
   20MOL   H107 3945   7.540   7.650   0.868 -0.2425 -1.1498 -0.3979
   20MOL   H108 3946   7.592   7.402   1.052  0.1705  0.3890  1.6074
   20MOL   H109 3947   7.625   7.386   0.882 -3.0551 -0.0277 -0.3993
   20MOL   H110 3948   0.004   7.587   0.938  0.2043 -1.2401 -1.8229
   20MOL   H111 3949   0.061   7.440   0.987  0.8922  2.2271 -0.8579
   20MOL   O112 3950   7.755   7.554   1.138 -0.3691 -0.0575  0.2045
   20MOL   C113 3951   0.085   7.627   1.178 -0.4589 -0.1852  0.3994
   20MOL   C114 3952   0.117   7.575   1.312  0.4841  0.6131  0.3086
   20MOL   C115 3953   7.788   7.578   1.413 -0.0010 -0.0318  0.4689
   20MOL   H116 3954   0.065   7.734   1.178  1.0075  0.1066  0.5103
   20MOL   H117 3955   0.166   7.608   1.107 -0.3586 -1.3727  0.8155
   20MOL   H118 3956   0.156   7.474   1.314  1.4765  0.9987  3.2611
   20MOL   H119 3957   0.195   7.636   1.358  0.3776 -1.3294  3.1448
   20MOL   H120 3958   7.720   7.495   1.399  0.3211  0.0416 -1.8301
   20MOL   H121 3959   7.735   7.674   1.408  0.0823 -0.0103 -0.0210
   20MOL   O122 3960   0.051   7.564   1.545 -0.1883 -0.6935  0.2881
   20MOL   C123 3961   7.741   7.556   1.647  0.0580  0.0128  0.1962
   20MOL   C124 3962   0.004   7.606   1.781 -0.3156  0.2376  0.1114
   20MOL   C125 3963   0.051   7.753   1.754  0.4396  0.6810 -0.7986
   20MOL   H126 3964   7.715   7.450   1.647 -2.8297  0.6659 -1.0728
   20MOL   H127 3965   7.650   7.603   1.610 -1.6877 -2.8272  0.7646
   20MOL   H128 3966   7.704   7.611   1.844 -0.9482  2.0195 -0.8759
   20MOL   H129 3967   0.078   7.539   1.826 -0.5567 -0.3444 -0.3442
   20MOL   H130 3968   7.762   0.014   1.695 -1.9897 -2.0647 -0.0211
   20MOL   H131 3969   0.144   7.742   1.698  2.0648  1.1016  1.7475
   20MOL   O132 3970   0.082   0.042   1.867 -0.0945 -0.5435 -0.0892
   20MOL   C133 3971   7.769   0.132   1.905 -0.1208 -0.2884 -0.0606
   20MOL   C134 3972   0.051   0.220   2.008 -0.2964 -0.0384 -0.4413
   20MOL   C135 3973   7.747   0.334   2.060 -0.1840  0.4879  0.2754
   20MOL   H136 3974   7.681   0.084   1.945  1.4429 -1.6035  1.9100
   20MOL   H137 3975   7.742   0.193   1.819  0.8279  2.1715  1.3303
   20MOL   H138 3976   0.080   0.158   2.093  2.0990  1.7099  0.0501
   20MOL   H139 3977   0.143   0.271   1.979  1.4199 -0.4838  3.8872
   20MOL   H140 3978   7.667   0.279   2.110 -0.7300 -0.4289 -1.5366
   20MOL   H141 3979   7.717   0.406   1.984  2.1493  1.3473  0.1539
   20MOL   O142 3980   0.046   0.399   2.152  0.3134  0.4994  0.0999
   20MOL   C143 3981   7.757   0.488   2.233 -0.2894 -0.1422  0.0858
   20MOL   C144 3982   0.065   0.555   2.332  0.2350 -0.2706 -0.4137
   20MOL   C145 3983   0.013   0.673   2.417 -0.1419 -0.4557  0.6520
   20MOL   H146 3984   7.676   0.435   2.283 -0.9178  1.5395  0.9035
   20MOL   H147 3985   7.714   0.548   2.152  2.0934  0.8065 -0.5001
   20MOL   H148 3986   0.104   0.478   2.399 -0.9370  0.7234  1.4434
   20MOL   H149 3987   0.160   0.579   2.284  0.9523 -2.7220 -0.2845
   20MOL   H150 3988   7.751   0.749   2.357  1.8626  1.4292  1.2741
   20MOL   H151 3989   0.094   0.739   2.450  0.9476 -1.0626 -0.7753
   20MOL   O152 3990   7.708   0.647   2.525 -0.4304  0.2930 -0.0597
   20MOL   C153 3991   7.771   0.624   2.655  0.1320  0.0466 -0.2494
   20MOL   C154 3992   7.677   0.597   2.766 -0.0542 -0.2330  0.1181
   20MOL   C155 3993   7.744   0.583   2.903  0.0587 -0.6226  0.9368
   20MOL   H156 3994   0.044   0.712   2.669  0.4495 -0.3243  0.6926
   20MOL   H157 3995   0.059   0.547   2.660  1.3588  1.1315 -1.6905
   20MOL   H158 3996   7.600   0.674   2.761 -0.2600 -0.4833 -0.5912
   20MOL   H159 3997   7.636   0.498   2.749  0.8999 -0.8520  1.3305
   20MOL   H160 3998   0.016   0.672   2.922 -0.3837 -0.0731 -0.2189
   20MOL   H161 3999   0.027   0.501   2.894 -1.3130 -1.5621 -1.6501
   20MOL   O162 4000   7.652   0.568   3.003  0.2235 -0.3034 -0.3473
   20MOL   C163 4001   7.718   0.563   3.137 -0.6332 -0.0805  0.1897
   20MOL   C164 4002   0.003   0.431   3.159  0.0947 -0.2873  0.2659
   20MOL   C165 4003   0.063   0.406   3.303  0.2844  0.4909  0.1548
   20MOL   H166 4004   7.641   0.584   3.211  0.2426  0.9065  0.8250
   20MOL   H167 4005   7.782   0.651   3.148  0.0468 -0.5419  0.0084
   20MOL   H168 4006   7.714   0.361   3.129  1.5291 -2.0574  0.6466
   20MOL   H169 4007   0.083   0.413   3.087 -0.3728 -0.6658 -0.1603
   20MOL   H170 4008   0.084   0.300   3.321  0.6025  0.1046 -2.3015
   20MOL   H171 4009   7.776   0.427   3.379  0.2994  0.4818  0.1722
   20MOL   O172 4010   0.177   0.489   3.317  0.0666  0.3566  0.1648
   20MOL   C173 4011   0.224   0.502   3.452 -0.8916 -0.1324  0.3557
   20MOL   C174 4012   0.367   0.567   3.432 -0.7135  0.2765  0.3486
   20MOL   C175 4013   0.351   0.711   3.380  0.2995 -0.4145 -0.9453
   20MOL   H176 4014   0.234   0.407   3.504 -1.8054 -0.0428  0.6963
   20MOL   H177 4015   0.166   0.571   3.513 -0.7695  1.5477 -1.3874
   20MOL   H178 4016   0.429   0.563   3.522  0.1765  0.2148 -0.2599
   20MOL   H179 4017   0.409   0.501   3.356 -0.3257 -0.8641  1.5247
   20MOL   H180 4018   0.342   0.788   3.457 -5.1274  0.4310 -2.2673
   20MOL   H181 4019   0.259   0.721   3.322 -0.5995  1.4916  0.7406
   20MOL   O182 4020   0.465   0.736   3.298  0.1694 -0.2634  0.4459
   20MOL   C183 4021   0.465   0.863   3.249  0.5141 -0.9045  0.7328
   20MOL   C184 4022   0.394   0.875   3.108  0.1400  0.0578  0.2404
   20MOL   C185 4023   0.402   1.014   3.045 -0.0806 -0.2801  0.3636
   20MOL   H186 4024   0.573   0.874   3.237  0.4455 -1.1145 -0.1704
   20MOL   H187 4025   0.429   0.952   3.300 -1.2683 -0.5360 -1.0735
   20MOL   H188 4026   0.440   0.809   3.034 -2.6768 -1.5192 -0.1786
   20MOL   H189 4027   0.294   0.832   3.116 -0.4196  1.3115  0.1485
   20MOL   H190 4028   0.506   1.043   3.059 -0.1938  0.3941 -0.1772
   20MOL   H191 4029   0.347   1.090   3.102  0.1267  0.3453 -0.2687
   20MOL   O192 4030   0.349   1.029   2.916 -0.7077  0.8527 -0.4269
   20MOL   C193 4031   0.231   0.964   2.894  0.1168 -0.7074 -0.0552
   20MOL   C194 4032   0.156   1.024   2.771 -0.0603  0.3943  0.0043
   20MOL   C195 4033   0.239   1.030   2.635 -0.5883  0.5106  0.6801
   20MOL   H196 4034   0.161   0.956   2.976  0.4309 -2.7371  0.0544
   20MOL   H197 4035   0.266   0.864   2.866  1.1638 -0.0955 -0.9733
   20MOL   H198 4036   0.067   0.963   2.756 -1.3674  2.0263  0.9631
   20MOL   H199 4037   0.121   1.126   2.790  1.1464  1.1916 -1.9555
   20MOL   H200 4038   0.295   1.121   2.611 -1.5754  1.2107  0.9862
   20MOL   H201 4039   0.176   1.006   2.550 -0.7916 -0.4151  1.0936
   20MOL   H202 4040   0.316   0.954   2.646 -2.6160 -1.7565 -0.4821
   21MOL     O1 4041   2.687   6.770   6.541  0.3320 -0.2079  0.1449
   21MOL     C2 4042   2.681   6.847   6.420  0.1513 -0.0047 -0.1314
   21MOL     C3 4043   2.804   6.939   6.390  0.4178  0.2896  0.1691
   21MOL     C4 4044   2.807   7.062   6.489  0.5971 -0.2459  0.7021
   21MOL     H5 4045   2.592   6.906   6.441 -1.7909 -2.4924 -1.0736
   21MOL     H6 4046   2.658   6.787   6.332  2.7567 -0.5571 -0.4919
   21MOL     H7 4047   2.891   6.873   6.381 -0.1607 -0.3790 -0.5557
   21MOL     H8 4048   2.796   6.995   6.297 -1.1388 -0.5008 -0.1784
   21MOL     H9 4049   2.907   7.106   6.490  1.8225 -2.8186 -0.7542
   21MOL    H10 4050   2.795   7.033   6.594 -1.7142 -1.7112  0.0840
   21MOL    H11 4051   2.611   6.714   6.534  0.1593 -0.3445  2.7551
   21MOL    O12 4052   2.706   7.151   6.448 -0.0816  1.0415 -1.0983
   21MOL    C13 4053   2.645   7.232   6.547  0.2660 -0.3366  0.0728
   21MOL    C14 4054   2.530   7.321   6.495  0.4877  0.1652 -0.1007
   21MOL    C15 4055   2.396   7.254   6.447  0.2926 -0.3085 -0.2107
   21MOL    H16 4056   2.710   7.302   6.600 -0.5697  1.3864 -1.1291
   21MOL    H17 4057   2.612   7.164   6.625 -0.9595  0.8869  0.6380
   21MOL    H18 4058   2.507   7.386   6.579 -2.6420 -1.5141  0.3948
   21MOL    H19 4059   2.565   7.397   6.424 -0.1230  0.9855  0.4647
   21MOL    H20 4060   2.369   7.182   6.525  1.4516 -0.2565  0.2448
   21MOL    H21 4061   2.411   7.186   6.364  1.6211  0.1048 -0.3143
   21MOL    O22 4062   2.300   7.341   6.386  0.3086  0.5297  0.8239
   21MOL    C23 4063   2.160   7.311   6.403 -0.4576  0.4244 -1.1455
   21MOL    C24 4064   2.072   7.415   6.333  0.2441 -0.1003  0.3457
   21MOL    C25 4065   2.051   7.412   6.183  0.0578 -0.6705 -0.1439
   21MOL    H26 4066   2.133   7.325   6.507  0.5928 -0.4753 -0.7378
   21MOL    H27 4067   2.109   7.215   6.392 -0.2331  0.0697  0.7514
   21MOL    H28 4068   1.974   7.392   6.375  0.5071  0.0631  1.0562
   21MOL    H29 4069   2.084   7.512   6.380 -2.2427  0.3067  0.2268
   21MOL    H30 4070   2.007   7.318   6.150 -0.6986 -1.0583  1.8436
   21MOL    H31 4071   2.151   7.429   6.144  0.4312 -1.3965  0.4606
   21MOL    O32 4072   1.968   7.514   6.128  0.3207 -0.5842 -0.5283
   21MOL    C33 4073   1.922   7.488   5.997 -0.5907 -0.4394  0.4121
   21MOL    C34 4074   1.860   7.606   5.938 -0.1285  0.0785 -0.4446
   21MOL    C35 4075   1.740   7.667   6.020 -0.6693 -0.6725  0.4710
   21MOL    H36 4076   1.851   7.405   6.002  0.4876 -1.3082  1.4728
   21MOL    H37 4077   2.010   7.458   5.940 -1.3073 -1.0313 -0.3881
   21MOL    H38 4078   1.934   7.683   5.917  1.2260 -0.2231  3.0608
   21MOL    H39 4079   1.811   7.570   5.847 -0.8041 -1.9596  0.6905
   21MOL    H40 4080   1.791   7.727   6.096 -1.6900  0.4667  0.2741
   21MOL    H41 4081   1.680   7.595   6.075 -1.0596 -1.4114 -0.9103
   21MOL    O42 4082   1.648   7.750   5.953 -0.3401  0.1994 -0.2324
   21MOL    C43 4083   1.582   0.064   6.031 -0.4162  0.4058 -0.5401
   21MOL    C44 4084   1.681   0.186   6.069 -0.2352 -0.3194  0.6586
   21MOL    C45 4085   1.602   0.321   6.091 -0.1181 -0.1231 -0.1082
   21MOL    H46 4086   1.530   0.025   6.119 -2.2763  3.0613 -0.4015
   21MOL    H47 4087   1.512   0.096   5.955 -0.6067 -0.3307 -0.6728
   21MOL    H48 4088   1.734   0.158   6.160 -0.4419 -1.8682  0.3219
   21MOL    H49 4089   1.747   0.202   5.984 -1.5160  1.8514  0.0274
   21MOL    H50 4090   1.512   0.321   6.152  1.7324 -0.9315  2.7200
   21MOL    H51 4091   1.564   0.364   5.998  0.3253  0.1763 -0.1527
   21MOL    O52 4092   1.704   0.405   6.143  0.5415 -0.0411 -1.0199
   21MOL    C53 4093   1.707   0.397   6.292  0.5490 -0.5888 -0.2345
   21MOL    C54 4094   1.603   0.482   6.371 -0.7891 -0.3370  0.0820
   21MOL    C55 4095   1.657   0.580   6.475  0.1238 -0.7395 -0.3922
   21MOL    H56 4096   1.807   0.439   6.306  0.8361 -0.9797 -1.0753
   21MOL    H57 4097   1.718   0.291   6.313 -0.3742 -0.6307  0.0361
   21MOL    H58 4098   1.545   0.540   6.300  2.5217 -0.0153 -2.4892
   21MOL    H59 4099   1.531   0.420   6.424 -1.6993  2.3085  2.0501
   21MOL    H60 4100   1.570   0.621   6.526  0.7696 -0.7125  0.7039
   21MOL    H61 4101   1.713   0.665   6.436  0.2430 -0.3496  0.6098
   21MOL    O62 4102   1.740   0.502   6.568 -0.2679  0.3713  0.3846
   21MOL    C63 4103   1.832   0.586   6.647  0.2597  0.1006  0.4289
   21MOL    C64 4104   1.866   0.513   6.778  0.1602 -0.3682 -0.6823
   21MOL    C65 4105   1.948   0.600   6.880 -0.0291 -0.0103 -0.4261
   21MOL    H66 4106   1.781   0.681   6.663  0.7406  0.5087 -0.3692
   21MOL    H67 4107   1.919   0.618   6.589 -0.9401  3.0051  0.1377
   21MOL    H68 4108   1.770   0.478   6.813 -0.2202  0.9047 -0.4136
   21MOL    H69 4109   1.923   0.421   6.764 -0.6889 -1.1495  0.9545
   21MOL    H70 4110   1.885   0.678   6.924 -0.9106 -0.6015 -0.6219
   21MOL    H71 4111   2.038   0.643   6.838  0.7859  1.4442  2.6633
   21MOL    O72 4112   1.994   0.518   6.987 -0.5518 -0.3369  0.6463
   21MOL    C73 4113   2.015   0.590   7.098 -0.0886  0.3568 -0.3830
   21MOL    C74 4114   2.073   0.500   7.207  0.1278  0.0640  0.1505
   21MOL    C75 4115   2.110   0.576   7.333 -1.8718  0.2265 -1.0251
   21MOL    H76 4116   1.919   0.637   7.123 -0.3045 -0.5769  0.5919
   21MOL    H77 4117   2.082   0.674   7.082  0.3136  0.2124  0.5364
   21MOL    H78 4118   2.004   0.417   7.220 -0.3108  0.3271 -0.4623
   21MOL    H79 4119   2.164   0.458   7.164 -0.9195 -0.7274 -1.3293
   21MOL    H80 4120   2.166   0.666   7.311  1.0168 -1.2454  0.1240
   21MOL    H81 4121   2.170   0.513   7.399 -0.3661  1.2706 -1.3868
   21MOL    O82 4122   2.003   0.614   7.413  0.4715 -0.5407  0.0343
   21MOL    C83 4123   2.041   0.668   7.545  0.2764 -0.1655 -0.2678
   21MOL    C84 4124   1.976   0.798   7.542  0.3487 -0.3506 -0.0875
   21MOL    C85 4125   2.030   0.890   7.436  0.4082 -0.0607 -0.1171
   21MOL    H86 4126   2.149   0.674   7.552  0.1888  0.8400  0.2416
   21MOL    H87 4127   1.987   0.606   7.618  1.0847 -1.6464 -0.9078
   21MOL    H88 4128   1.870   0.775   7.532  0.1802  0.3013  0.1686
   21MOL    H89 4129   1.980   0.838   7.643 -0.4412  0.1107 -0.2331
   21MOL    H90 4130   1.995   0.868   7.336 -0.3495  0.0675  0.1159
   21MOL    H91 4131   2.138   0.873   7.438  0.7469  1.7315 -1.2476
   21MOL    O92 4132   1.995   1.033   7.465  0.0742 -0.3724 -0.0265
   21MOL    C93 4133   2.077   1.119   7.383 -0.4002  0.3389 -0.0062
   21MOL    C94 4134   2.045   1.269   7.404  0.0799  0.1308 -0.4235
   21MOL    C95 4135   2.085   1.308   7.548 -0.3852  0.3956 -0.1075
   21MOL    H96 4136   2.049   1.086   7.283 -1.3057  0.7340  0.1108
   21MOL    H97 4137   2.185   1.106   7.385 -0.7398 -2.7260  0.6446
   21MOL    H98 4138   2.105   1.332   7.338 -1.1313 -1.5336 -3.2169
   21MOL    H99 4139   1.944   1.294   7.374 -0.6333 -1.7500  0.3650
   21MOL   H100 4140   2.180   1.262   7.576  0.0432  1.4596  0.2126
   21MOL   H101 4141   2.011   1.262   7.613 -1.4458  1.4141 -0.5783
   21MOL   O102 4142   2.107   1.448   7.560  0.1934 -0.5194 -0.5224
   21MOL   C103 4143   2.129   1.485   7.694 -0.3443  0.3417 -0.2317
   21MOL   C104 4144   2.142   1.642   7.699 -0.4745  0.3306  0.0457
   21MOL   C105 4145   2.206   1.691   0.041  0.3559 -0.0387  0.0704
   21MOL   H106 4146   2.223   1.444   7.729 -1.4772 -0.0418  2.4147
   21MOL   H107 4147   2.043   1.450   7.750 -0.4434 -2.6749 -2.1660
   21MOL   H108 4148   2.220   1.673   7.630 -0.6639  1.9025  0.5121
   21MOL   H109 4149   2.051   1.698   7.680  0.3228  0.8697 -2.3630
   21MOL   H110 4150   2.133   1.673   0.120  1.1730 -0.6068  0.7079
   21MOL   H111 4151   2.219   1.798   0.027  2.5027 -0.6697 -3.4549
   21MOL   O112 4152   2.329   1.615   0.069 -0.5135 -0.8166  0.0373
   21MOL   C113 4153   2.386   1.650   0.195  0.7359  0.0142 -0.6327
   21MOL   C114 4154   2.517   1.576   0.215  1.6615  0.1819  0.0660
   21MOL   C115 4155   2.500   1.423   0.234 -0.5855 -0.5994 -0.0601
   21MOL   H116 4156   2.320   1.634   0.280 -1.6371  1.8205 -2.1106
   21MOL   H117 4157   2.412   1.755   0.194  0.7304  0.0512  1.7224
   21MOL   H118 4158   2.575   1.586   0.123  1.4554 -1.8697 -0.3124
   21MOL   H119 4159   2.575   1.627   0.292  1.0778 -0.4972  0.9659
   21MOL   H120 4160   2.459   1.370   0.148  1.9637 -0.6878 -1.2713
   21MOL   H121 4161   2.431   1.415   0.318 -1.3773  1.4713 -0.4830
   21MOL   O122 4162   2.630   1.371   0.271 -0.2806 -0.4334  0.5070
   21MOL   C123 4163   2.632   1.233   0.288  0.2414  0.2627 -0.7933
   21MOL   C124 4164   2.763   1.205   0.364  0.4594 -0.7486  0.2159
   21MOL   C125 4165   2.803   1.059   0.362 -0.0250 -0.5577 -0.3706
   21MOL   H126 4166   2.646   1.185   0.191  1.5356 -6.3373  2.3858
   21MOL   H127 4167   2.549   1.190   0.344  1.9169 -0.1863  1.4337
   21MOL   H128 4168   2.845   1.262   0.322 -0.5930  0.5387 -0.1045
   21MOL   H129 4169   2.744   1.234   0.467  1.3081  1.4554 -0.2285
   21MOL   H130 4170   2.737   1.006   0.430 -0.9688  0.4631 -0.4733
   21MOL   H131 4171   2.901   1.056   0.410  0.0189  1.2774 -0.2805
   21MOL   O132 4172   2.815   1.011   0.228 -0.0422  0.3803  0.0373
   21MOL   C133 4173   2.869   0.879   0.219 -0.1081  0.0376  0.6945
   21MOL   C134 4174   2.847   0.832   0.074  0.0072 -0.9463 -0.6151
   21MOL   C135 4175   2.911   0.694   0.042  0.6719 -0.1629 -0.0401
   21MOL   H136 4176   2.826   0.817   0.297  1.6759 -0.9837  0.9006
   21MOL   H137 4177   2.976   0.889   0.239 -0.1957 -1.7332  2.1142
   21MOL   H138 4178   2.740   0.819   0.059 -0.2894  0.1500  0.4266
   21MOL   H139 4179   2.890   0.903   0.003 -0.1994 -1.6957 -1.4840
   21MOL   H140 4180   3.010   0.697   0.088  1.2887 -2.2688 -1.1718
   21MOL   H141 4181   2.927   0.692   7.723  0.9606 -0.4582  0.0053
   21MOL   O142 4182   2.842   0.584   0.090 -0.0868  0.0676  0.1184
   21MOL   C143 4183   2.920   0.466   0.080  0.2983 -0.1677 -0.7062
   21MOL   C144 4184   2.855   0.364   0.161 -0.5198  0.1841  0.0302
   21MOL   C145 4185   2.843   0.398   0.312 -0.0648 -0.0746 -0.6350
   21MOL   H146 4186   3.012   0.476   0.138 -0.0742 -0.7452 -0.0187
   21MOL   H147 4187   2.937   0.432   7.766  0.5566 -0.0310 -0.7097
   21MOL   H148 4188   2.762   0.341   0.108  0.4497  1.2631 -2.1835
   21MOL   H149 4189   2.914   0.273   0.147 -1.1158 -0.4254  1.4013
   21MOL   H150 4190   2.794   0.493   0.332 -1.9872 -1.2639  0.5543
   21MOL   H151 4191   2.942   0.409   0.356 -0.6921 -1.3512  1.1649
   21MOL   O152 4192   2.755   0.300   0.365  0.1694  0.1289  0.0604
   21MOL   C153 4193   2.742   0.309   0.508  0.6658  0.0377 -0.5309
   21MOL   C154 4194   2.617   0.232   0.555 -0.0787  0.1066  1.1490
   21MOL   C155 4195   2.632   0.080   0.537  0.2077 -0.0780 -0.3245
   21MOL   H156 4196   2.726   0.412   0.538  0.6371 -0.4748  1.2552
   21MOL   H157 4197   2.835   0.269   0.547 -0.9635 -1.1144  2.3515
   21MOL   H158 4198   2.591   0.250   0.660  0.4981  1.6609  1.0404
   21MOL   H159 4199   2.525   0.267   0.507  1.7977 -1.0794 -3.4860
   21MOL   H160 4200   2.609   0.052   0.434  3.0179  0.2002 -1.0547
   21MOL   H161 4201   2.556   0.046   0.608  1.0728 -2.1247 -0.3298
   21MOL   O162 4202   2.759   0.035   0.584  0.3594  0.2576 -0.0794
   21MOL   C163 4203   2.773   7.689   0.556 -0.0231 -0.3823 -0.3283
   21MOL   C164 4204   2.922   7.655   0.562  0.2374  0.1995  0.8608
   21MOL   C165 4205   2.957   7.512   0.507  0.4860  0.1557  0.3427
   21MOL   H166 4206   2.744   7.670   0.453 -0.0051  0.3388 -0.4694
   21MOL   H167 4207   2.718   7.629   0.629  0.3210  0.6439  0.7932
   21MOL   H168 4208   2.959   7.734   0.497 -1.8970 -1.4128 -2.5205
   21MOL   H169 4209   2.958   7.687   0.659  2.0744  0.7441  0.0172
   21MOL   H170 4210   2.896   7.495   0.418  0.7416 -1.0955  0.4015
   21MOL   H171 4211   2.915   7.434   0.570  1.4553 -0.8484 -0.2416
   21MOL   O172 4212   3.091   7.483   0.480 -0.1005 -0.3489 -0.0153
   21MOL   C173 4213   3.118   7.348   0.444  0.2629 -0.0280 -0.8972
   21MOL   C174 4214   3.268   7.322   0.421  1.1613  0.1706  0.8567
   21MOL   C175 4215   3.303   7.178   0.384 -0.1387  0.0447 -0.4282
   21MOL   H176 4216   3.056   7.320   0.359 -0.4040  1.6696 -1.0097
   21MOL   H177 4217   3.079   7.280   0.519 -0.2287  2.4819  1.2295
   21MOL   H178 4218   3.303   7.388   0.341  1.2400 -0.5796  0.2576
   21MOL   H179 4219   3.338   7.343   0.502  2.4956  2.1936 -0.7469
   21MOL   H180 4220   3.272   7.111   0.465  1.4949  0.4128  0.5049
   21MOL   H181 4221   3.410   7.165   0.374 -0.2456 -1.5403  0.3138
   21MOL   O182 4222   3.241   7.161   0.267  0.1594 -0.5002  0.3408
   21MOL   C183 4223   3.250   7.027   0.217  0.2084 -0.4944 -0.4918
   21MOL   C184 4224   3.290   7.031   0.067 -0.2713  0.2554  0.0370
   21MOL   C185 4225   3.283   6.887   0.012 -0.6091 -0.0209 -0.0526
   21MOL   H186 4226   3.149   6.989   0.229 -0.8638  2.3645 -0.1510
   21MOL   H187 4227   3.328   6.966   0.263 -0.0822 -1.5307 -1.3384
   21MOL   H188 4228   3.216   7.101   0.027  1.1252  1.1068 -1.1138
   21MOL   H189 4229   3.384   7.084   0.051 -0.1227 -0.1685 -0.5000
   21MOL   H190 4230   3.363   6.824   0.051  1.1842  3.1778  1.6511
   21MOL   H191 4231   3.308   6.883   7.694 -0.6455  0.9033 -0.0999
   21MOL   O192 4232   3.162   6.825   0.048 -0.0166 -0.4037 -0.0815
   21MOL   C193 4233   3.159   6.682   0.011  0.0431  0.2047 -0.1733
   21MOL   C194 4234   3.024   6.630   0.050  0.2641 -0.0418 -0.5821
   21MOL   C195 4235   3.002   6.631   0.199 -0.8036  0.6059 -0.1092
   21MOL   H196 4236   3.233   6.624   0.066 -0.3065 -0.2209 -0.1465
   21MOL   H197 4237   3.180   6.658   7.695 -0.0608  1.4625 -0.5000
   21MOL   H198 4238   2.939   6.677   0.001 -0.0254  1.7778  1.5989
   21MOL   H199 4239   3.012   6.527   0.017 -2.1818  0.3772 -1.0872
   21MOL   H200 4240   3.035   6.725   0.242  2.6857 -1.2578  1.4854
   21MOL   H201 4241   3.066   6.552   0.237  1.0413  1.1045 -2.0958
   21MOL   H202 4242   2.895   6.613   0.211 -1.3868  3.6480 -0.2511
   22MOL     O1 4243   0.771   1.041   0.799  0.3180  0.2763 -0.0619
   22MOL     C2 4244   0.728   0.933   0.714  0.1893 -0.0224 -0.3195
   22MOL     C3 4245   0.680   0.999   0.583  0.2310 -0.0242  0.2684
   22MOL     C4 4246   0.676   0.895   0.465 -0.5839 -0.2531 -0.1352
   22MOL     H5 4247   0.648   0.876   0.763  0.6871 -0.9776 -0.6087
   22MOL     H6 4248   0.805   0.856   0.713  0.1046 -0.1853  1.9757
   22MOL     H7 4249   0.582   1.044   0.600  0.3286  0.2380  0.1470
   22MOL     H8 4250   0.747   1.081   0.557  0.0084  0.5678  1.5319
   22MOL     H9 4251   0.627   0.942   0.379  0.8519  2.0304  0.2572
   22MOL    H10 4252   0.606   0.816   0.493 -1.7281  1.1009  0.9101
   22MOL    H11 4253   0.698   1.059   0.856  0.0063 -1.3251  0.0598
   22MOL    O12 4254   0.806   0.853   0.434  0.6363 -0.6235  0.2114
   22MOL    C13 4255   0.811   0.732   0.367  0.5536 -0.5250 -0.5505
   22MOL    C14 4256   0.873   0.624   0.463  0.0572 -0.2312  0.5117
   22MOL    C15 4257   1.007   0.674   0.526 -0.4277  0.7334  0.2622
   22MOL    H16 4258   0.873   0.750   0.279 -0.2915  1.4453 -0.7829
   22MOL    H17 4259   0.717   0.700   0.322 -0.1403 -1.8316  1.7558
   22MOL    H18 4260   0.813   0.596   0.549 -2.4975  0.3137 -1.0428
   22MOL    H19 4261   0.887   0.530   0.410  0.3436  0.6841 -1.0899
   22MOL    H20 4262   0.985   0.718   0.623  2.7513  0.1049  1.3388
   22MOL    H21 4263   1.048   0.764   0.479 -0.0607 -0.2425 -1.3408
   22MOL    O22 4264   1.109   0.572   0.531 -0.4740  0.3010 -0.2354
   22MOL    C23 4265   1.118   0.502   0.658  0.3047 -0.2470  0.3940
   22MOL    C24 4266   1.028   0.374   0.657 -0.3322 -0.1786  0.1796
   22MOL    C25 4267   1.056   0.286   0.538  0.2941  0.2568 -0.2141
   22MOL    H26 4268   1.112   0.558   0.752 -0.3264  0.5243 -0.0978
   22MOL    H27 4269   1.215   0.456   0.645  1.3682  1.7797  0.9155
   22MOL    H28 4270   1.035   0.313   0.747  2.0217  0.4087  0.4314
   22MOL    H29 4271   0.921   0.391   0.669 -0.6596 -1.9826 -0.1061
   22MOL    H30 4272   1.160   0.282   0.505  0.4768  0.9727  0.2595
   22MOL    H31 4273   1.002   0.320   0.450 -0.3102 -1.3532 -0.4768
   22MOL    O32 4274   1.021   0.154   0.576  0.1169 -0.2840 -0.4686
   22MOL    C33 4275   0.986   0.064   0.471 -0.2407 -0.1510  0.0705
   22MOL    C34 4276   0.959   7.710   0.529 -0.0778  0.3263 -0.0941
   22MOL    C35 4277   0.959   7.602   0.409  0.7323  0.0888 -0.3906
   22MOL    H36 4278   1.067   0.052   0.400 -2.3686 -5.0012 -1.7634
   22MOL    H37 4279   0.898   0.097   0.416 -0.8604 -1.0245  0.5230
   22MOL    H38 4280   1.051   7.685   0.582 -0.8758 -0.3030  1.0176
   22MOL    H39 4281   0.874   7.697   0.596  2.9201  0.0471  3.7987
   22MOL    H40 4282   1.061   7.573   0.383  0.3887 -1.4129 -0.1011
   22MOL    H41 4283   0.909   7.649   0.325  0.3657  1.3594  0.5186
   22MOL    O42 4284   0.884   7.485   0.440 -0.7370  0.5127 -0.6564
   22MOL    C43 4285   0.896   7.394   0.332 -0.6548 -1.2501  0.2733
   22MOL    C44 4286   0.778   7.294   0.347  0.1122  0.0173  1.0326
   22MOL    C45 4287   0.804   7.170   0.254 -0.5085  0.3216 -0.5533
   22MOL    H46 4288   0.995   7.350   0.331 -0.7707 -1.5233 -2.5197
   22MOL    H47 4289   0.901   7.443   0.235  2.7189 -1.6053  0.2313
   22MOL    H48 4290   0.772   7.253   0.448 -1.9383  0.4330  1.1086
   22MOL    H49 4291   0.681   7.340   0.330 -0.3605 -1.1301  0.5493
   22MOL    H50 4292   0.898   7.117   0.268  0.1544  1.5774 -0.2448
   22MOL    H51 4293   0.797   7.212   0.154 -0.2969 -2.0906 -1.6264
   22MOL    O52 4294   0.695   7.077   0.286 -0.0158  0.4285 -0.3347
   22MOL    C53 4295   0.729   6.969   0.375  0.2178  0.5416 -0.3057
   22MOL    C54 4296   0.605   6.887   0.413 -0.6051  0.2754 -0.4458
   22MOL    C55 4297   0.479   6.969   0.447 -0.2109  0.8699  0.2876
   22MOL    H56 4298   0.762   7.020   0.465 -1.6170  0.1877  0.5907
   22MOL    H57 4299   0.808   6.910   0.329 -1.8603 -1.5404 -1.2888
   22MOL    H58 4300   0.573   6.817   0.336  0.2431  1.1806 -1.6568
   22MOL    H59 4301   0.639   6.816   0.489  0.1194 -0.4837 -1.4693
   22MOL    H60 4302   0.480   7.037   0.362 -2.1120 -0.5228 -0.8806
   22MOL    H61 4303   0.496   7.035   0.533  1.6357  1.8126 -0.7653
   22MOL    O62 4304   0.360   6.888   0.475 -0.0729  0.5358 -0.3660
   22MOL    C63 4305   0.363   6.834   0.606  0.1446  0.3760  0.1616
   22MOL    C64 4306   0.217   6.782   0.646 -0.6788 -0.0496  0.9301
   22MOL    C65 4307   0.215   6.752   0.801 -0.6481 -0.4885  0.5668
   22MOL    H66 4308   0.389   6.915   0.674 -2.6591  1.9917 -0.6007
   22MOL    H67 4309   0.438   6.755   0.615  0.4587  0.6310 -0.2082
   22MOL    H68 4310   0.138   6.851   0.618 -0.2892 -0.8129 -2.1756
   22MOL    H69 4311   0.195   6.694   0.586 -1.1985  1.9864 -1.9887
   22MOL    H70 4312   0.249   6.834   0.865  2.2497  0.0987 -1.5940
   22MOL    H71 4313   0.291   6.675   0.815  0.5421  0.4713 -0.4660
   22MOL    O72 4314   0.094   6.694   0.836 -0.4888  0.2391 -0.1644
   22MOL    C73 4315   0.089   6.678   0.977 -0.4377 -0.5616 -0.7789
   22MOL    C74 4316   7.758   6.599   1.023 -0.0973 -0.0225  0.4493
   22MOL    C75 4317   7.769   6.564   1.170  0.5863  0.1193 -0.4767
   22MOL    H76 4318   0.088   6.773   1.031 -2.6470 -1.4748  0.8581
   22MOL    H77 4319   0.174   6.619   1.009  1.5876  2.7927  0.2718
   22MOL    H78 4320   7.669   6.660   1.003 -1.1833 -1.8431 -0.4035
   22MOL    H79 4321   7.754   6.505   0.969  3.9285 -0.7852  1.3562
   22MOL    H80 4322   0.019   6.637   1.242  3.3551  0.1038 -1.8596
   22MOL    H81 4323   0.044   6.478   1.187 -0.1168 -1.0561 -3.5568
   22MOL    O82 4324   7.641   6.512   1.209  0.2549 -0.0225 -0.0213
   22MOL    C83 4325   7.541   6.603   1.254  0.2473 -0.5962  0.4194
   22MOL    C84 4326   7.406   6.536   1.254 -0.2241 -0.0409 -0.0876
   22MOL    C85 4327   7.382   6.445   1.375  0.4973 -0.1232  0.4470
   22MOL    H86 4328   7.538   6.690   1.189  1.5853 -0.3371  0.6894
   22MOL    H87 4329   7.560   6.621   1.360 -0.2360  1.5819  0.1494
   22MOL    H88 4330   7.333   6.616   1.245 -1.4733 -1.1644 -0.0946
   22MOL    H89 4331   7.395   6.467   1.171  1.4425 -4.1957  2.9504
   22MOL    H90 4332   7.402   6.492   1.471  0.6132 -0.0338  0.3789
   22MOL    H91 4333   7.445   6.356   1.365  2.2311  0.8938  1.9239
   22MOL    O92 4334   7.258   6.385   1.358 -0.3062 -0.2317 -0.4204
   22MOL    C93 4335   7.194   6.357   1.476 -0.7329  0.8706 -0.1846
   22MOL    C94 4336   7.066   6.290   1.436 -0.1165  0.2279  1.1494
   22MOL    C95 4337   6.967   6.384   1.361  0.7059 -0.5275 -0.1527
   22MOL    H96 4338   7.180   6.444   1.541  0.5291  1.4790 -0.7166
   22MOL    H97 4339   7.265   6.293   1.530 -1.1551  0.5194 -0.0432
   22MOL    H98 4340   7.087   6.217   1.358  0.4270  0.9934  0.5717
   22MOL    H99 4341   7.023   6.241   1.524  3.0470 -0.5624  2.3394
   22MOL   H100 4342   7.015   6.424   1.272 -1.0683  0.8893 -0.5114
   22MOL   H101 4343   6.952   6.466   1.431  0.9531  0.5118 -1.3023
   22MOL   O102 4344   6.844   6.328   1.326 -0.2949 -0.2560 -0.5565
   22MOL   C103 4345   6.761   6.415   1.248 -0.3103  0.9324  0.8240
   22MOL   C104 4346   6.683   6.517   1.337 -0.2860 -0.1789 -0.7666
   22MOL   C105 4347   6.604   6.622   1.262  1.0411  0.3192  0.7820
   22MOL   H106 4348   6.684   6.350   1.206 -0.0968  1.1113  0.1483
   22MOL   H107 4349   6.818   6.462   1.168 -2.1548 -0.6563 -1.4688
   22MOL   H108 4350   6.598   6.473   1.388 -1.5655  2.4605 -0.5670
   22MOL   H109 4351   6.760   6.563   1.399  0.5054  0.6980 -2.3844
   22MOL   H110 4352   6.669   6.672   1.190  0.0849  0.7402  0.2052
   22MOL   H111 4353   6.585   6.704   1.332 -2.2703  1.0516 -0.8923
   22MOL   O112 4354   6.501   6.577   1.183 -0.3924 -0.4133 -0.0150
   22MOL   C113 4355   6.420   6.677   1.122  0.4980  0.3897 -0.0824
   22MOL   C114 4356   6.296   6.612   1.052 -0.3103 -0.0920 -0.5379
   22MOL   C115 4357   6.258   6.678   0.916 -0.0183 -0.4309  0.4642
   22MOL   H116 4358   6.491   6.726   1.056  1.6610 -2.0860 -0.7360
   22MOL   H117 4359   6.382   6.748   1.195  0.7992  2.0303 -1.5054
   22MOL   H118 4360   6.305   6.504   1.045 -0.2312 -0.2781  1.9430
   22MOL   H119 4361   6.213   6.621   1.121 -0.7936 -2.3000 -0.8119
   22MOL   H120 4362   6.218   6.779   0.927 -0.5570 -0.5380 -0.4138
   22MOL   H121 4363   6.175   6.621   0.874  0.0088 -1.9669  2.4104
   22MOL   O122 4364   6.369   6.675   0.827  0.0499  0.5022  0.7795
   22MOL   C123 4365   6.332   6.714   0.697 -0.4729 -0.4936  0.0914
   22MOL   C124 4366   6.450   6.673   0.609 -0.6698  0.0852  0.2080
   22MOL   C125 4367   6.426   6.674   0.462 -0.1875  0.0863 -0.0342
   22MOL   H126 4368   6.332   6.822   0.711  0.2896 -0.5607  0.6556
   22MOL   H127 4369   6.239   6.672   0.659  0.4974 -0.9545 -1.8608
   22MOL   H128 4370   6.531   6.736   0.645 -0.4452  0.7312 -1.3761
   22MOL   H129 4371   6.478   6.569   0.629 -1.5886 -0.5223 -1.4904
   22MOL   H130 4372   6.372   6.763   0.428  3.0922  2.7969  1.4696
   22MOL   H131 4373   6.380   6.585   0.419  0.4936 -0.9443  1.3332
   22MOL   O132 4374   6.551   6.688   0.405  0.0109 -0.3347  0.4142
   22MOL   C133 4375   6.547   6.712   0.271 -0.1470 -0.4832 -0.0082
   22MOL   C134 4376   6.689   6.727   0.223  0.1765  0.6744  0.3749
   22MOL   C135 4377   6.701   6.782   0.078  0.2476  0.0224 -0.0529
   22MOL   H136 4378   6.498   6.807   0.250  1.2999  0.4196  0.6908
   22MOL   H137 4379   6.493   6.631   0.220  1.4545 -0.9416 -1.0173
   22MOL   H138 4380   6.748   6.784   0.295  1.2094 -1.8332  1.5726
   22MOL   H139 4381   6.730   6.626   0.235  0.8048  0.9696  0.7439
   22MOL   H140 4382   6.669   6.886   0.079  0.1643 -0.0047  0.7857
   22MOL   H141 4383   6.634   6.727   0.013 -0.2275 -0.1612  0.5879
   22MOL   O142 4384   6.832   6.762   0.034  0.0147 -0.4771  0.4258
   22MOL   C143 4385   6.869   6.828   7.704  0.3435  0.4771  0.4825
   22MOL   C144 4386   6.948   6.743   7.611 -0.4407 -0.4128 -0.2393
   22MOL   C145 4387   6.985   6.811   7.475  0.1909 -0.5958 -0.0922
   22MOL   H146 4388   6.919   6.923   7.726  0.1631  0.4322  1.0892
   22MOL   H147 4389   6.778   6.843   7.647  0.3435  3.0116  1.0751
   22MOL   H148 4390   7.048   6.724   7.650  0.4777  2.4035 -1.0833
   22MOL   H149 4391   6.892   6.652   7.593  0.8064 -0.8342 -2.2487
   22MOL   H150 4392   6.892   6.851   7.437  0.3907  1.3399  1.3996
   22MOL   H151 4393   7.021   6.742   7.398 -1.1044  0.6977 -1.8816
   22MOL   O152 4394   7.081   6.910   7.494 -0.2543  0.4697 -0.5107
   22MOL   C153 4395   7.115   6.974   7.375  0.0482 -0.0130 -0.6354
   22MOL   C154 4396   7.234   7.060   7.411  0.8844  0.4361 -0.5066
   22MOL   C155 4397   7.298   7.117   7.286 -0.0306 -0.5654  0.4277
   22MOL   H156 4398   7.023   7.024   7.346  1.1402  1.5827 -1.3823
   22MOL   H157 4399   7.141   6.902   7.297  1.6568 -0.1035 -0.0422
   22MOL   H158 4400   7.201   7.146   7.469  0.9556 -0.6184  1.1475
   22MOL   H159 4401   7.310   7.005   7.466 -0.6673 -0.6427  0.6156
   22MOL   H160 4402   7.229   7.187   7.241  0.7958  0.3131  0.5166
   22MOL   H161 4403   7.328   7.039   7.216 -0.4993  0.7632 -1.2720
   22MOL   O162 4404   7.406   7.198   7.343  0.3273  0.0617  0.3598
   22MOL   C163 4405   7.477   7.287   7.263  0.2840 -0.4960 -0.3114
   22MOL   C164 4406   7.557   7.376   7.351  0.5833  0.1161  0.3542
   22MOL   C165 4407   7.683   7.301   7.419 -0.0663  0.1263  0.2808
   22MOL   H166 4408   7.405   7.345   7.206 -1.2077 -0.4500  1.5669
   22MOL   H167 4409   7.545   7.234   7.197  1.7541  1.4844 -0.4357
   22MOL   H168 4410   7.588   7.467   7.299  0.1931  0.3115  0.4678
   22MOL   H169 4411   7.488   7.423   7.420 -2.5496 -1.2285 -1.7737
   22MOL   H170 4412   7.754   7.259   7.348 -1.4415 -1.4531 -0.2190
   22MOL   H171 4413   7.660   7.214   7.481  0.2703  0.0795  0.3349
   22MOL   O172 4414   7.746   7.392   7.504  0.3241  0.1945  0.2962
   22MOL   C173 4415   0.047   7.354   7.605 -0.1894 -0.2730 -0.4738
   22MOL   C174 4416   0.078   7.472   7.695  0.5573 -0.1096 -0.5502
   22MOL   C175 4417   0.129   7.592   7.621 -0.6205 -0.3233 -0.3617
   22MOL   H176 4418   0.135   7.315   7.554 -0.6531 -0.6571 -0.9888
   22MOL   H177 4419   7.788   7.270   7.656 -0.0874  0.9296  1.6201
   22MOL   H178 4420   7.777   7.493   7.755  0.7573 -3.4019  0.9919
   22MOL   H179 4421   0.153   7.441   7.767 -1.6407  0.1574  1.9357
   22MOL   H180 4422   0.049   7.635   7.562 -1.0670 -2.4305 -1.3362
   22MOL   H181 4423   0.202   7.552   7.550  1.4372  1.1842  0.8280
   22MOL   O182 4424   0.168   7.695   7.714 -0.3956 -0.3404 -0.0777
   22MOL   C183 4425   0.210   0.027   7.659  0.0477  0.2122 -0.5146
   22MOL   C184 4426   0.259   0.127   7.767  0.3005  0.0848 -0.3787
   22MOL   C185 4427   0.145   0.149   0.080 -0.3381 -0.1943 -0.0510
   22MOL   H186 4428   0.125   0.064   7.602  1.5226  0.6925 -2.4473
   22MOL   H187 4429   0.284   0.009   7.581  0.0330 -0.8691 -0.2925
   22MOL   H188 4430   0.350   0.083   0.019 -1.0845 -1.5326  1.1079
   22MOL   H189 4431   0.291   0.222   7.725  2.3004  0.0552  0.9869
   22MOL   H190 4432   0.114   0.050   0.115  0.5371  0.0599  1.5349
   22MOL   H191 4433   0.061   0.194   0.029  0.3659  1.1760 -0.0290
   22MOL   O192 4434   0.187   0.222   0.194 -0.7452 -0.1507 -0.2789
   22MOL   C193 4435   0.062   0.252   0.271  0.0747  0.0891  0.2811
   22MOL   C194 4436   0.097   0.349   0.392 -0.4440 -0.3524  0.4127
   22MOL   C195 4437   0.227   0.325   0.465 -0.0164 -0.2857  0.4814
   22MOL   H196 4438   0.011   0.161   0.304  0.2036 -1.2304 -2.9641
   22MOL   H197 4439   7.784   0.305   0.203 -0.3526 -0.4463  0.2774
   22MOL   H198 4440   0.100   0.456   0.373  0.9459 -0.2042  1.3993
   22MOL   H199 4441   0.022   0.342   0.471 -0.9978 -0.7298 -0.1459
   22MOL   H200 4442   0.240   0.226   0.508  2.8901 -0.7044 -1.2423
   22MOL   H201 4443   0.237   0.395   0.548 -0.7127  0.4796 -0.0767
   22MOL   H202 4444   0.314   0.333   0.399 -0.3051 -0.0234  0.1322
   23MOL     O1 4445   6.589   4.062   5.020 -0.1142 -0.5664  0.2180
   23MOL     C2 4446   6.491   4.006   5.104  0.2712  0.2370  0.1939
   23MOL     C3 4447   6.547   3.964   5.244  1.3956 -0.6646  0.2358
   23MOL     C4 4448   6.523   4.070   5.356  0.0482  0.4305  0.5670
   23MOL     H5 4449   6.437   3.926   5.053  0.5641 -0.9082  1.6328
   23MOL     H6 4450   6.427   4.091   5.127  0.2835 -0.3619  2.5348
   23MOL     H7 4451   6.504   3.871   5.279  1.3356 -0.8048 -0.2038
   23MOL     H8 4452   6.655   3.956   5.230  1.3031  0.8846 -1.5763
   23MOL     H9 4453   6.417   4.067   5.381 -0.6265 -0.2794 -2.1480
   23MOL    H10 4454   6.542   4.165   5.306 -2.6630  0.0921 -1.2658
   23MOL    H11 4455   6.607   4.153   5.042  1.2214 -0.9245  0.6744
   23MOL    O12 4456   6.608   4.053   5.466 -0.0631 -0.1734  0.2352
   23MOL    C13 4457   6.651   4.169   5.536  0.6553 -0.6689  0.4917
   23MOL    C14 4458   6.722   4.112   5.659  0.3140 -1.2237 -0.5358
   23MOL    C15 4459   6.755   4.216   5.759  0.2380 -0.1991 -0.2920
   23MOL    H16 4460   6.561   4.223   5.562  1.7130  1.0253  0.6978
   23MOL    H17 4461   6.719   4.236   5.484  1.5037  0.2959  2.7722
   23MOL    H18 4462   6.650   4.037   5.692 -3.7909  1.2652 -3.3125
   23MOL    H19 4463   6.818   4.067   5.633  2.0257  0.7444  2.1170
   23MOL    H20 4464   6.668   4.275   5.787  0.0306 -1.2427  1.3324
   23MOL    H21 4465   6.811   4.297   5.713 -2.9733  1.3389 -1.7105
   23MOL    O22 4466   6.819   4.161   5.877  0.5055 -0.1932 -0.2776
   23MOL    C23 4467   6.847   4.265   5.978  0.3493 -0.2175  0.8674
   23MOL    C24 4468   6.975   4.245   6.051  0.3451 -0.6596 -0.2560
   23MOL    C25 4469   7.010   4.371   6.139 -0.0924 -0.0318  0.0325
   23MOL    H26 4470   6.765   4.289   6.045 -1.6038 -0.6383 -1.3001
   23MOL    H27 4471   6.857   4.359   5.925  0.5708 -0.3163  0.7305
   23MOL    H28 4472   6.993   4.155   6.109  3.8548 -0.1486 -0.4445
   23MOL    H29 4473   7.045   4.222   5.971  0.1281 -1.1180 -0.3142
   23MOL    H30 4474   6.938   4.380   6.219  1.6640  0.8208  1.5554
   23MOL    H31 4475   6.985   4.460   6.080 -1.5001 -0.2980  0.2290
   23MOL    O32 4476   7.137   4.370   6.198  0.1756  0.3622 -0.7437
   23MOL    C33 4477   7.139   4.467   6.304 -0.8378  0.3679 -0.0171
   23MOL    C34 4478   7.296   4.477   6.343  0.1890  0.0182 -0.1248
   23MOL    C35 4479   7.325   4.587   6.448 -0.2640 -0.7987 -0.1691
   23MOL    H36 4480   7.079   4.431   6.388  0.8223 -1.2995  0.5059
   23MOL    H37 4481   7.104   4.563   6.267  0.7699  0.7873 -0.5139
   23MOL    H38 4482   7.344   4.386   6.378  1.6973  0.3343 -1.3085
   23MOL    H39 4483   7.340   4.504   6.247 -2.3381  0.2002 -1.2616
   23MOL    H40 4484   7.277   4.552   6.539  1.6496 -0.9234  0.8148
   23MOL    H41 4485   7.274   4.678   6.415  0.9134  0.1925  0.6902
   23MOL    O42 4486   7.461   4.604   6.481  0.2802  0.1743  0.1663
   23MOL    C43 4487   7.479   4.691   6.592 -0.2045  0.5079 -0.9785
   23MOL    C44 4488   7.628   4.729   6.607  0.1825  0.4592 -0.0789
   23MOL    C45 4489   7.665   4.808   6.737 -0.7502 -0.1028  0.7197
   23MOL    H46 4490   7.443   4.658   6.690  1.3175 -2.7006 -1.4054
   23MOL    H47 4491   7.423   4.781   6.568 -0.3319  0.2634 -1.6198
   23MOL    H48 4492   7.687   4.637   6.612 -0.9927 -0.2399  1.2523
   23MOL    H49 4493   7.659   4.788   6.521 -0.6760 -0.5323 -1.0880
   23MOL    H50 4494   7.774   4.809   6.745 -0.8193 -1.9274  2.2996
   23MOL    H51 4495   7.635   4.755   6.827  2.4187 -0.0551  1.8789
   23MOL    O52 4496   7.611   4.945   6.722  0.5563 -0.3651 -0.0026
   23MOL    C53 4497   7.638   5.037   6.829 -0.9146 -0.4103  0.5391
   23MOL    C54 4498   7.532   5.149   6.838  0.3203  0.4580 -0.7596
   23MOL    C55 4499   7.580   5.272   6.915 -0.4663 -0.4515  0.0311
   23MOL    H56 4500   7.734   5.085   6.844 -0.4757 -1.3673  0.8130
   23MOL    H57 4501   7.647   4.969   6.914  2.1563  0.0413  0.6133
   23MOL    H58 4502   7.489   5.190   6.747  1.3245  0.7587 -1.1011
   23MOL    H59 4503   7.441   5.101   6.875  0.8427  0.1156  0.0936
   23MOL    H60 4504   7.617   5.243   7.013 -1.8892  1.1374  1.0547
   23MOL    H61 4505   7.496   5.336   6.940  1.3248  1.5709  0.9413
   23MOL    O62 4506   7.660   5.358   6.836  0.2000  1.2402  0.8861
   23MOL    C63 4507   7.745   5.432   6.924 -0.1932 -0.2224 -0.7333
   23MOL    C64 4508   0.047   5.525   6.841  0.3905  0.2128  0.1944
   23MOL    C65 4509   0.166   5.579   6.933 -0.9307 -0.7794 -0.4349
   23MOL    H66 4510   0.023   5.364   6.978  2.3297  1.8648 -1.1274
   23MOL    H67 4511   7.680   5.489   6.990 -1.2599 -0.1310 -1.8422
   23MOL    H68 4512   0.103   5.477   6.760  3.0527  2.0848  0.8855
   23MOL    H69 4513   7.773   5.610   6.811 -1.3373 -0.2491  2.3516
   23MOL    H70 4514   0.219   5.497   6.982 -1.6427 -0.2567  1.2228
   23MOL    H71 4515   0.132   5.642   7.015 -0.4190 -1.6643  0.4753
   23MOL    O72 4516   0.246   5.659   6.842  0.1015 -0.3776 -0.2237
   23MOL    C73 4517   0.367   5.712   6.907  0.5756 -0.1327  0.8135
   23MOL    C74 4518   0.469   5.750   6.796 -0.2935 -0.4462  0.2542
   23MOL    C75 4519   0.599   5.797   6.865  0.0307 -0.2603 -1.0522
   23MOL    H76 4520   0.415   5.641   6.975 -2.1959 -3.2108 -0.2810
   23MOL    H77 4521   0.357   5.800   6.969 -0.7415 -1.0481  1.9292
   23MOL    H78 4522   0.501   5.667   6.732 -1.3248 -0.4781 -0.2296
   23MOL    H79 4523   0.420   5.826   6.735  0.3056  2.1936  2.9589
   23MOL    H80 4524   0.635   5.736   6.948  1.6740  2.7608  0.5775
   23MOL    H81 4525   0.579   5.896   6.908  3.0680 -0.3387  0.7060
   23MOL    O82 4526   0.710   5.780   6.774  0.3566  0.0191 -0.8400
   23MOL    C83 4527   0.717   5.883   6.681  0.2947 -0.3561 -0.1316
   23MOL    C84 4528   0.861   5.889   6.625 -0.0273  0.2401 -0.3810
   23MOL    C85 4529   0.880   6.006   6.527 -0.4762 -0.3646  0.8420
   23MOL    H86 4530   0.685   5.972   6.735  2.3099  1.0743 -1.1884
   23MOL    H87 4531   0.640   5.859   6.608 -1.8398 -0.8018  2.2059
   23MOL    H88 4532   0.925   5.898   6.713 -1.2057 -2.7451  0.8346
   23MOL    H89 4533   0.891   5.795   6.579 -3.9863 -0.0602 -2.5392
   23MOL    H90 4534   0.829   6.099   6.552  2.1323  1.6142 -0.8600
   23MOL    H91 4535   0.842   5.977   6.429  0.8487 -1.0688  0.5237
   23MOL    O92 4536   1.018   6.028   6.522  0.2629 -0.3012  0.4720
   23MOL    C93 4537   1.047   6.135   6.429  1.1177  0.4688 -0.3555
   23MOL    C94 4538   1.188   6.126   6.375 -0.3042 -0.5934 -0.5232
   23MOL    C95 4539   1.220   6.222   6.262 -0.4893  0.2672  0.4162
   23MOL    H96 4540   1.031   6.236   6.468 -0.6425  0.6981 -1.6132
   23MOL    H97 4541   0.981   6.126   6.342 -1.7112  0.0831  1.7438
   23MOL    H98 4542   1.255   6.147   6.458  0.8203 -4.3101 -0.4058
   23MOL    H99 4543   1.213   6.023   6.350  3.2583  0.2501 -0.8176
   23MOL   H100 4544   1.187   6.321   6.293  0.0511 -0.0625  2.0831
   23MOL   H101 4545   1.169   6.192   6.170  0.4515 -2.5657  0.7793
   23MOL   O102 4546   1.351   6.226   6.244  0.4135  0.4333  0.1867
   23MOL   C103 4547   1.392   6.289   6.129  0.2444 -0.4676  0.0913
   23MOL   C104 4548   1.541   6.256   6.111  0.8501 -0.2581  0.6724
   23MOL   C105 4549   1.595   6.293   5.976  0.6052  0.5190 -0.4907
   23MOL   H106 4550   1.380   6.397   6.139  0.7779 -0.2652 -1.3978
   23MOL   H107 4551   1.339   6.259   6.038 -0.1324 -0.6482  0.3694
   23MOL   H108 4552   1.601   6.304   6.188  1.7332 -0.3390  0.0350
   23MOL   H109 4553   1.565   6.149   6.110  1.8659 -0.0318 -0.1896
   23MOL   H110 4554   1.566   6.398   5.968  0.6449  0.4410 -1.7919
   23MOL   H111 4555   1.542   6.239   5.897  0.2194  0.5493 -0.2558
   23MOL   O112 4556   1.732   6.290   5.968  0.4155  0.3385 -0.5702
   23MOL   C113 4557   1.783   6.343   5.852 -0.8660  0.1022  0.1533
   23MOL   C114 4558   1.923   6.291   5.826  0.0603 -0.0856  0.2235
   23MOL   C115 4559   2.023   6.374   5.909 -0.6370 -0.1615 -0.0074
   23MOL   H116 4560   1.778   6.451   5.866 -0.3721  0.3143 -1.2366
   23MOL   H117 4561   1.715   6.320   5.769 -0.9180 -0.5444  0.3713
   23MOL   H118 4562   1.930   6.186   5.856 -3.4261 -0.4379  0.0962
   23MOL   H119 4563   1.936   6.296   5.718 -0.1253 -0.5455  0.1776
   23MOL   H120 4564   1.994   6.384   6.014  1.2146  3.0479  0.2908
   23MOL   H121 4565   2.024   6.477   5.874 -1.0161 -0.8495 -2.1262
   23MOL   O122 4566   2.151   6.323   5.897 -0.4634  0.6586  0.1067
   23MOL   C123 4567   2.242   6.383   5.992  0.2751 -0.4392 -0.1931
   23MOL   C124 4568   2.382   6.329   5.971 -0.4554  0.1038  0.8542
   23MOL   C125 4569   2.439   6.361   5.841  0.7940  0.1487  0.1891
   23MOL   H126 4570   2.208   6.356   6.092  2.2638  1.5237  1.0615
   23MOL   H127 4571   2.234   6.492   5.987 -1.7177 -0.6124 -1.4291
   23MOL   H128 4572   2.445   6.372   6.049 -3.4340  0.9704  2.8777
   23MOL   H129 4573   2.393   6.222   5.990  1.2454  0.1573  0.2402
   23MOL   H130 4574   2.435   6.470   5.837 -0.4222  0.1261  0.7085
   23MOL   H131 4575   2.369   6.333   5.762 -1.9964  0.2589  2.5619
   23MOL   O132 4576   2.573   6.315   5.826  0.7491 -0.0119 -0.3507
   23MOL   C133 4577   2.643   6.391   5.726  0.2043  0.0106  0.7509
   23MOL   C134 4578   2.782   6.346   5.744 -1.2599  0.1255 -0.2623
   23MOL   C135 4579   2.881   6.410   5.642 -0.4050  0.3502 -0.9721
   23MOL   H136 4580   2.641   6.498   5.750 -0.3656 -0.1495  1.4334
   23MOL   H137 4581   2.602   6.380   5.626 -0.8659 -1.1930  1.3059
   23MOL   H138 4582   2.819   6.358   5.846  1.0858  1.5254 -1.2440
   23MOL   H139 4583   2.780   6.240   5.719 -0.1466 -0.0529  0.3867
   23MOL   H140 4584   2.840   6.403   5.541  1.7143 -2.1885 -1.6897
   23MOL   H141 4585   2.969   6.347   5.652 -1.8489 -1.7755 -1.1358
   23MOL   O142 4586   2.907   6.543   5.675 -0.2780  0.2040  0.1102
   23MOL   C143 4587   2.996   6.604   5.591 -0.3482 -0.1407  0.1225
   23MOL   C144 4588   3.051   6.712   5.685  0.1169 -0.2730  0.0941
   23MOL   C145 4589   3.183   6.773   5.642 -0.0389 -0.0335  0.0408
   23MOL   H146 4590   2.953   6.639   5.498  1.7809  1.2664 -0.3742
   23MOL   H147 4591   3.081   6.538   5.570  2.2273  2.0417  3.1594
   23MOL   H148 4592   2.976   6.791   5.689 -0.5017 -0.9038  1.0531
   23MOL   H149 4593   3.053   6.675   5.787  1.5851  0.1389  0.2298
   23MOL   H150 4594   3.197   6.853   5.715  0.1486  1.2372 -1.3648
   23MOL   H151 4595   3.179   6.805   5.538 -2.1924  0.5610  0.2760
   23MOL   O152 4596   3.282   6.674   5.645  0.1813  0.0424 -0.1222
   23MOL   C153 4597   3.407   6.728   5.619 -0.2267 -0.2512 -0.2498
   23MOL   C154 4598   3.501   6.613   5.603 -0.5848  0.2768  0.1899
   23MOL   C155 4599   3.456   6.522   5.489 -0.4149  0.4436  0.2552
   23MOL   H156 4600   3.450   6.796   5.692  1.2691 -0.8551 -0.5396
   23MOL   H157 4601   3.404   6.776   5.521  0.9310 -1.5419 -0.9422
   23MOL   H158 4602   3.602   6.641   5.573 -0.0991 -1.8937 -0.2901
   23MOL   H159 4603   3.495   6.571   5.704 -0.1347  1.0620  0.5498
   23MOL   H160 4604   3.477   6.568   5.393 -1.1757  0.1273 -0.0684
   23MOL   H161 4605   3.348   6.502   5.493 -0.5032  1.2440  2.2722
   23MOL   O162 4606   3.536   6.406   5.505  0.3034  0.2345  0.0054
   23MOL   C163 4607   3.473   6.294   5.443 -0.9092 -0.1113  0.7598
   23MOL   C164 4608   3.568   6.181   5.428  0.1524 -0.0633  0.1601
   23MOL   C165 4609   3.512   6.067   5.347  0.1155  0.4266 -0.0866
   23MOL   H166 4610   3.438   6.325   5.345  1.4508 -0.0510 -0.0831
   23MOL   H167 4611   3.387   6.279   5.509 -0.9335 -0.1898  0.7097
   23MOL   H168 4612   3.659   6.216   5.379 -1.9793  2.0861 -2.4364
   23MOL   H169 4613   3.595   6.136   5.524  1.9252  0.6890  0.0321
   23MOL   H170 4614   3.430   6.022   5.402  0.5650 -1.8488 -1.2084
   23MOL   H171 4615   3.594   5.995   5.339  0.6890  1.1454 -0.6676
   23MOL   O172 4616   3.471   6.120   5.219 -0.5240 -0.3558  0.0728
   23MOL   C173 4617   3.411   6.020   5.132  0.1824  0.2109 -0.2677
   23MOL   C174 4618   3.357   6.080   5.002  0.2672 -0.0949 -0.0101
   23MOL   C175 4619   3.268   5.985   4.932  0.2702  0.3832 -0.0916
   23MOL   H176 4620   3.328   5.967   5.179 -1.1936 -0.0530 -2.9096
   23MOL   H177 4621   3.481   5.941   5.107  1.2979  1.2806 -0.5601
   23MOL   H178 4622   3.290   6.163   5.026  1.9933  0.8348  1.7074
   23MOL   H179 4623   3.434   6.122   4.938  1.3125 -1.7542  0.1459
   23MOL   H180 4624   3.191   5.951   5.002 -0.3569  1.2214 -0.3645
   23MOL   H181 4625   3.325   5.894   4.912 -1.2405 -0.0994 -2.4179
   23MOL   O182 4626   3.205   6.045   4.821 -0.7512  0.2182 -0.2398
   23MOL   C183 4627   3.173   5.962   4.711 -0.3264 -0.2217 -0.0525
   23MOL   C184 4628   3.144   6.029   4.573 -0.1019  0.2245 -0.3441
   23MOL   C185 4629   3.064   5.931   4.488  0.1413 -0.2844 -0.7869
   23MOL   H186 4630   3.094   5.904   4.759 -1.0189  0.4467 -0.3838
   23MOL   H187 4631   3.260   5.898   4.695  2.2603  3.4326 -1.4262
   23MOL   H188 4632   3.081   6.116   4.592  1.7006  1.0184  2.3808
   23MOL   H189 4633   3.239   6.045   4.523  0.3657  2.2933  1.1629
   23MOL   H190 4634   3.106   5.830   4.489 -1.2860 -0.8948 -1.3152
   23MOL   H191 4635   3.073   5.962   4.384  1.3171  1.4228 -0.1971
   23MOL   O192 4636   2.924   5.928   4.540  0.0145  0.1661 -0.0405
   23MOL   C193 4637   2.830   5.875   4.442 -0.4444 -0.4086  0.4679
   23MOL   C194 4638   2.687   5.902   4.495  0.4970 -0.6922  0.7294
   23MOL   C195 4639   2.647   6.047   4.501  0.2373 -0.1994 -0.7337
   23MOL   H196 4640   2.846   5.768   4.434  1.2409 -0.2054  0.8296
   23MOL   H197 4641   2.840   5.902   4.337  4.3528 -1.8828  0.3893
   23MOL   H198 4642   2.605   5.853   4.443 -0.3739  1.3661  0.1105
   23MOL   H199 4643   2.679   5.866   4.598  0.0713 -0.4523  0.7806
   23MOL   H200 4644   2.716   6.097   4.570 -0.2347  0.2308 -0.5620
   23MOL   H201 4645   2.552   6.057   4.554  1.2238  2.2005  0.6665
   23MOL   H202 4646   2.634   6.095   4.404 -0.7980  1.3051  0.1287
   24MOL     O1 4647   7.416   4.735   0.130  0.2916 -0.3827  0.6764
   24MOL     C2 4648   7.275   4.751   0.154 -0.3281 -0.3596 -0.3819
   24MOL     C3 4649   7.213   4.613   0.120  0.2181  0.2467  0.2223
   24MOL     C4 4650   7.062   4.619   0.090  0.3216  0.1038  0.3340
   24MOL     H5 4651   7.230   4.829   0.093 -3.4241  0.6801  3.0631
   24MOL     H6 4652   7.265   4.790   0.255 -1.8721  0.1393 -0.7134
   24MOL     H7 4653   7.274   4.561   0.045 -0.0876  0.5628 -0.2465
   24MOL     H8 4654   7.214   4.557   0.214  2.9472 -0.7293 -0.3111
   24MOL     H9 4655   7.037   4.692   0.013  0.6749  1.5310  1.5579
   24MOL    H10 4656   7.018   4.661   0.180 -1.8171  0.8251 -1.0194
   24MOL    H11 4657   7.452   4.811   0.173  0.4565 -0.7879  1.2600
   24MOL    O12 4658   7.006   4.490   0.060  0.3547  0.5004 -0.7079
   24MOL    C13 4659   6.956   4.408   0.167 -0.1097  0.0343 -0.3676
   24MOL    C14 4660   6.864   4.291   0.111 -0.5894 -0.4218 -0.2271
   24MOL    C15 4661   6.829   4.197   0.222 -0.2029  0.1109 -0.7337
   24MOL    H16 4662   6.903   4.476   0.233 -2.2283 -0.3824 -1.5661
   24MOL    H17 4663   7.043   4.371   0.220 -1.7592 -1.7538  1.1493
   24MOL    H18 4664   6.776   4.326   0.057  1.6886  2.3088 -2.3389
   24MOL    H19 4665   6.913   4.231   0.034  0.2386  0.2480 -0.2340
   24MOL    H20 4666   6.920   4.154   0.264 -0.2529  1.9154  1.2865
   24MOL    H21 4667   6.770   4.117   0.176 -1.4921  1.2153 -1.0037
   24MOL    O22 4668   6.748   4.248   0.318 -0.3489 -0.5065  0.0098
   24MOL    C23 4669   6.743   4.173   0.437  0.3624 -0.0576 -0.2794
   24MOL    C24 4670   6.833   4.227   0.544 -0.1340  0.3594 -0.5174
   24MOL    C25 4671   6.832   4.153   0.677 -0.1355 -0.3648 -0.6615
   24MOL    H26 4672   6.757   4.067   0.416 -1.8517 -0.5391  0.4345
   24MOL    H27 4673   6.643   4.168   0.480  0.5808 -2.6419 -0.0149
   24MOL    H28 4674   6.936   4.239   0.510  0.2519  1.3879  0.9763
   24MOL    H29 4675   6.799   4.326   0.575  0.0523 -0.3884  2.2041
   24MOL    H30 4676   6.828   4.044   0.679  3.1816 -0.5737 -2.0875
   24MOL    H31 4677   6.742   4.185   0.729  0.4754  1.7456 -0.8748
   24MOL    O32 4678   6.949   4.186   0.755 -0.1976  0.1944 -0.1512
   24MOL    C33 4679   6.959   4.143   0.887 -0.2582  0.2212 -0.2695
   24MOL    C34 4680   7.099   4.156   0.942  0.0424 -0.9236  0.0206
   24MOL    C35 4681   7.111   4.114   1.089 -0.0918  0.7830  0.7588
   24MOL    H36 4682   6.937   4.036   0.886 -0.0367  0.1270  1.6151
   24MOL    H37 4683   6.885   4.197   0.948  1.6223  1.0372  1.3371
   24MOL    H38 4684   7.156   4.088   0.880 -0.3770 -0.8221 -0.4855
   24MOL    H39 4685   7.125   4.262   0.937 -1.8581 -0.4455 -0.2662
   24MOL    H40 4686   7.044   4.031   1.109  0.6616  0.4567  1.9442
   24MOL    H41 4687   7.078   4.190   1.159 -0.3084  1.9918 -0.6214
   24MOL    O42 4688   7.244   4.075   1.105  0.0757 -0.0231 -0.0211
   24MOL    C43 4689   7.275   4.005   1.229  0.4752 -0.7700  0.1378
   24MOL    C44 4690   7.231   3.861   1.244 -0.1368 -0.4414  0.4263
   24MOL    C45 4691   7.315   3.764   1.168  0.6609  0.8562  0.3340
   24MOL    H46 4692   7.239   4.074   1.306  0.5492 -1.1034  0.4698
   24MOL    H47 4693   7.383   4.002   1.235  0.4642  0.3930  1.0029
   24MOL    H48 4694   7.246   3.842   1.350 -0.5462 -0.3822  0.4951
   24MOL    H49 4695   7.125   3.847   1.223  0.4008  0.3773 -3.2197
   24MOL    H50 4696   7.418   3.775   1.202  0.8163  3.6277 -0.9103
   24MOL    H51 4697   7.323   3.781   1.060 -0.3443 -0.2359  0.0761
   24MOL    O52 4698   7.260   3.633   1.198 -0.5597  0.0093 -0.2937
   24MOL    C53 4699   7.223   3.552   1.086 -0.1691 -0.1533 -0.7045
   24MOL    C54 4700   7.175   3.422   1.141  0.1023 -0.2766 -1.1604
   24MOL    C55 4701   7.145   3.334   1.026  0.2322  0.5780  0.2843
   24MOL    H56 4702   7.314   3.543   1.027 -0.1410  1.1830 -0.8892
   24MOL    H57 4703   7.153   3.590   1.011  0.8622  1.0256 -1.0856
   24MOL    H58 4704   7.251   3.385   1.210 -0.9028 -0.4697 -0.1314
   24MOL    H59 4705   7.089   3.433   1.208 -0.2736  0.8409 -1.8185
   24MOL    H60 4706   7.141   3.229   1.056  1.2060  1.1466  2.5285
   24MOL    H61 4707   7.229   3.342   0.957  0.4299 -1.3873  0.2759
   24MOL    O62 4708   7.015   3.375   0.981 -0.5389 -0.0436  0.1765
   24MOL    C63 4709   6.972   3.290   0.879  0.0487  0.3296 -0.1479
   24MOL    C64 4710   6.868   3.189   0.937 -0.8044 -0.7487  0.6494
   24MOL    C65 4711   6.737   3.260   0.978 -0.2365  0.3671  0.8925
   24MOL    H66 4712   7.055   3.236   0.833  1.0650  0.1393  1.8572
   24MOL    H67 4713   6.919   3.348   0.803 -0.0805  0.3598 -0.0336
   24MOL    H68 4714   6.848   3.105   0.871 -0.2813 -0.5896  0.2906
   24MOL    H69 4715   6.898   3.143   1.031 -2.3503  1.4194  2.2589
   24MOL    H70 4716   6.742   3.352   1.036  2.0131  1.2197 -0.5827
   24MOL    H71 4717   6.686   3.187   1.042  1.2802 -0.1783  1.5262
   24MOL    O72 4718   6.661   3.284   0.865  0.2957 -0.2872  0.0121
   24MOL    C73 4719   6.568   3.181   0.832 -0.1019  0.1980 -0.2006
   24MOL    C74 4720   6.487   3.205   0.707 -0.0018 -0.1626 -1.0568
   24MOL    C75 4721   6.422   3.068   0.669  0.2500  0.1850 -0.0600
   24MOL    H76 4722   6.494   3.157   0.908 -1.9478 -0.6757 -2.1994
   24MOL    H77 4723   6.624   3.088   0.821  1.4893  1.1316 -0.0980
   24MOL    H78 4724   6.412   3.282   0.725  0.3737  0.0322 -0.3371
   24MOL    H79 4725   6.563   3.231   0.633  1.2309  0.6439  0.4575
   24MOL    H80 4726   6.338   3.044   0.735  1.1964  1.8175  1.8037
   24MOL    H81 4727   6.502   2.995   0.682  1.1574  1.4177  1.5163
   24MOL    O82 4728   6.375   3.070   0.536 -0.1868  0.1781  0.3318
   24MOL    C83 4729   6.344   2.944   0.487  0.0199 -0.3803 -0.0592
   24MOL    C84 4730   6.286   2.946   0.341  0.7510  0.3107 -0.1474
   24MOL    C85 4731   6.252   2.807   0.288 -0.0812 -0.1526  0.0326
   24MOL    H86 4732   6.276   2.884   0.548 -1.1750 -1.5733 -2.4916
   24MOL    H87 4733   6.442   2.896   0.478 -1.1105 -2.9570  0.6463
   24MOL    H88 4734   6.191   3.000   0.342  0.1610 -0.7002  0.9473
   24MOL    H89 4735   6.346   2.995   0.265 -0.1918  1.2489 -0.3104
   24MOL    H90 4736   6.164   2.768   0.340  0.9347 -1.0217  1.1279
   24MOL    H91 4737   6.333   2.736   0.304  1.2493  0.1349 -4.6424
   24MOL    O92 4738   6.231   2.817   0.147 -0.1246  0.0308  0.3657
   24MOL    C93 4739   6.097   2.841   0.112  0.5640  0.2785  0.0272
   24MOL    C94 4740   6.100   2.834   7.742  0.4917 -0.3888 -0.3278
   24MOL    C95 4741   5.955   2.844   7.689 -0.6648 -0.3765  0.1529
   24MOL    H96 4742   6.050   2.935   0.142 -1.7188 -0.0796 -2.2683
   24MOL    H97 4743   6.042   2.755   0.150 -3.0195  2.7044  0.5880
   24MOL    H98 4744   6.150   2.923   7.705  1.2431 -0.1940  1.1026
   24MOL    H99 4745   6.156   2.745   7.714  1.3390  0.0791 -0.1083
   24MOL   H100 4746   5.923   2.948   7.696  3.0190  0.9416 -1.6234
   24MOL   H101 4747   5.897   2.774   7.750  3.9983 -2.4872  2.4253
   24MOL   O102 4748   5.954   2.809   7.553 -0.4150  0.2156  0.0843
   24MOL   C103 4749   5.830   2.770   7.504 -0.0859 -0.0751  0.3605
   24MOL   C104 4750   5.862   2.721   7.372  0.6845  0.5520  0.3030
   24MOL   C105 4751   5.730   2.698   7.300  1.0233  0.2734  1.0550
   24MOL   H106 4752   5.761   2.854   7.506 -1.1039 -0.9232  1.5421
   24MOL   H107 4753   5.784   2.691   7.564  0.6175  0.1976  1.2718
   24MOL   H108 4754   5.917   2.801   7.323  0.6940  0.3035 -0.1000
   24MOL   H109 4755   5.921   2.631   7.387 -0.7599 -0.4504  0.1141
   24MOL   H110 4756   5.651   2.760   7.343 -0.2569 -0.9439  0.4790
   24MOL   H111 4757   5.710   2.592   7.316  1.3108  0.1996  0.9235
   24MOL   O112 4758   5.753   2.724   7.163  0.0749 -0.4361  0.1800
   24MOL   C113 4759   5.633   2.725   7.082  0.1606 -0.4328 -0.4660
   24MOL   C114 4760   5.651   2.830   6.970  0.6125  0.0432  0.5912
   24MOL   C115 4761   5.518   2.855   6.903  0.8619 -0.4217  0.3017
   24MOL   H116 4762   5.553   2.763   7.145 -0.4724 -2.4251 -0.0457
   24MOL   H117 4763   5.613   2.629   7.036 -1.1688  0.5619 -2.0068
   24MOL   H118 4764   5.695   2.918   7.017  2.1859 -0.1437 -0.4646
   24MOL   H119 4765   5.729   2.792   6.903  0.2556  0.1393  0.1152
   24MOL   H120 4766   5.445   2.857   6.984 -1.4732 -1.0735 -1.7328
   24MOL   H121 4767   5.495   2.764   6.848  1.9402 -0.3447 -0.2886
   24MOL   O122 4768   5.510   2.968   6.825 -0.5239  0.3582  0.1577
   24MOL   C123 4769   5.583   2.956   6.705  0.0038 -1.1073 -0.5230
   24MOL   C124 4770   5.573   3.092   6.639  0.0317  0.1074  0.1909
   24MOL   C125 4771   5.656   3.112   6.513  0.3253  0.4944  0.5937
   24MOL   H126 4772   5.551   2.878   6.637  0.8146 -0.0144 -2.1798
   24MOL   H127 4773   5.686   2.926   6.726 -0.1046 -1.8780 -1.1172
   24MOL   H128 4774   5.467   3.100   6.617  0.1435 -2.6373 -1.4925
   24MOL   H129 4775   5.611   3.169   6.707  0.2949  0.6873 -0.6046
   24MOL   H130 4776   5.648   3.021   6.453  0.0326  2.3181 -2.1605
   24MOL   H131 4777   5.759   3.118   6.547  1.2698 -0.8521 -1.9376
   24MOL   O132 4778   5.618   3.231   6.446 -0.0715 -0.7098  0.4530
   24MOL   C133 4779   5.716   3.285   6.351  0.1764  0.2799 -0.2795
   24MOL   C134 4780   5.662   3.421   6.295  0.8166 -0.6346 -0.0430
   24MOL   C135 4781   5.534   3.417   6.216 -0.3725 -0.2570 -0.3123
   24MOL   H136 4782   5.728   3.224   6.261  1.3543 -0.5129  0.3994
   24MOL   H137 4783   5.812   3.297   6.400  0.2109  3.8561 -1.1287
   24MOL   H138 4784   5.656   3.489   6.381  2.2408  1.8624 -1.8493
   24MOL   H139 4785   5.737   3.462   6.227 -1.2774  0.9583 -1.4668
   24MOL   H140 4786   5.456   3.380   6.284  0.8360  1.1264  1.8686
   24MOL   H141 4787   5.557   3.348   6.135 -1.0672  0.6066 -1.2606
   24MOL   O142 4788   5.510   3.544   6.163  0.1838 -0.0109  0.6962
   24MOL   C143 4789   5.392   3.549   6.082 -0.5691  0.4634 -0.6480
   24MOL   C144 4790   5.357   3.688   6.015 -0.0151  0.0377 -0.5035
   24MOL   C145 4791   5.454   3.733   5.905 -0.0874  0.3196  0.3187
   24MOL   H146 4792   5.310   3.533   6.152 -0.7739 -3.3889 -1.6391
   24MOL   H147 4793   5.382   3.470   6.007  2.0497  0.4358 -1.0231
   24MOL   H148 4794   5.259   3.686   5.966  0.3126  1.2470 -1.2345
   24MOL   H149 4795   5.357   3.755   6.100 -0.3542  0.0647 -0.5236
   24MOL   H150 4796   5.465   3.640   5.849  0.1875  0.3696  0.2919
   24MOL   H151 4797   5.549   3.757   5.953  0.0156 -0.0165  0.2827
   24MOL   O152 4798   5.409   3.831   5.817  0.5556 -0.1578 -0.4527
   24MOL   C153 4799   5.503   3.849   5.719 -0.1682 -0.6289 -0.4510
   24MOL   C154 4800   5.479   3.990   5.671  0.3699 -0.9058  0.3456
   24MOL   C155 4801   5.487   4.107   5.772 -0.4527  0.4673 -0.0282
   24MOL   H156 4802   5.481   3.791   5.629 -0.8751  1.4730 -1.6628
   24MOL   H157 4803   5.605   3.830   5.752  0.5017 -0.0217 -2.0892
   24MOL   H158 4804   5.560   4.013   5.602 -0.1369  0.1728  0.1161
   24MOL   H159 4805   5.381   3.996   5.625  0.1832 -0.6668  0.7655
   24MOL   H160 4806   5.569   4.084   5.839  0.9262 -0.6340 -2.0290
   24MOL   H161 4807   5.397   4.110   5.834 -0.8059 -0.9902 -0.4451
   24MOL   O162 4808   5.521   4.230   5.702 -0.4008  0.1822 -0.4057
   24MOL   C163 4809   5.432   4.291   5.613 -0.4475 -0.8007  0.1870
   24MOL   C164 4810   5.509   4.391   5.526  0.3019 -0.4094  0.5916
   24MOL   C165 4811   5.620   4.326   5.447  0.7299 -0.0704 -0.2541
   24MOL   H166 4812   5.345   4.342   5.654 -1.1860 -0.9914 -1.0913
   24MOL   H167 4813   5.399   4.211   5.545 -0.4097 -0.0686 -0.7015
   24MOL   H168 4814   5.426   4.434   5.469  0.9488  1.7941  1.2635
   24MOL   H169 4815   5.542   4.470   5.594  1.2944 -0.5331  0.2544
   24MOL   H170 4816   5.594   4.239   5.387  2.9132  0.2142 -1.6756
   24MOL   H171 4817   5.701   4.290   5.511 -0.2145  0.3936  1.2229
   24MOL   O172 4818   5.674   4.427   5.358  0.0403  0.4622 -0.3541
   24MOL   C173 4819   5.713   4.364   5.236  0.4796 -0.0455 -0.2422
   24MOL   C174 4820   5.786   4.448   5.143 -0.0344  0.1601 -0.0895
   24MOL   C175 4821   5.770   4.407   4.992 -0.1279 -0.5934 -0.5943
   24MOL   H176 4822   5.623   4.321   5.192  0.3301 -0.7764  0.7492
   24MOL   H177 4823   5.781   4.282   5.258  1.7699  1.2107  0.5150
   24MOL   H178 4824   5.740   4.547   5.144 -0.3255  0.0275 -0.3029
   24MOL   H179 4825   5.892   4.466   5.160  0.0264  0.2191 -0.5299
   24MOL   H180 4826   5.796   4.302   4.983  0.2029 -0.8989  3.2932
   24MOL   H181 4827   5.843   4.456   4.927  0.1437 -1.9594 -1.3363
   24MOL   O182 4828   5.640   4.431   4.946 -0.4024 -0.1488 -0.4257
   24MOL   C183 4829   5.619   4.367   4.823 -0.1632 -0.6638 -0.3157
   24MOL   C184 4830   5.490   4.406   4.754 -1.7965 -0.3776  0.5697
   24MOL   C185 4831   5.368   4.352   4.828  0.6275 -0.2784 -0.3291
   24MOL   H186 4832   5.619   4.259   4.842 -0.1969 -0.6783 -0.4004
   24MOL   H187 4833   5.703   4.402   4.765 -0.2695  1.2802  0.6797
   24MOL   H188 4834   5.491   4.515   4.746 -0.6939 -0.1653  3.0715
   24MOL   H189 4835   5.492   4.367   4.653 -0.3969 -1.7306  1.1000
   24MOL   H190 4836   5.282   4.392   4.774  0.0688  0.8867  1.3859
   24MOL   H191 4837   5.368   4.390   4.929  1.5579 -1.0807 -0.0236
   24MOL   O192 4838   5.348   4.210   4.843 -0.3096  0.1096  0.0867
   24MOL   C193 4839   5.321   4.144   4.720 -0.4877  0.0346  0.3606
   24MOL   C194 4840   5.273   3.998   4.749 -0.2883  0.1832 -0.1320
   24MOL   C195 4841   5.224   3.923   4.621  0.3213 -0.0233  0.2635
   24MOL   H196 4842   5.414   4.140   4.663 -1.0155 -0.3401 -0.4823
   24MOL   H197 4843   5.246   4.199   4.664  1.6482  1.0136 -1.6040
   24MOL   H198 4844   5.350   3.935   4.791  1.1562  0.4410 -2.3313
   24MOL   H199 4845   5.185   4.001   4.813  0.6306  0.8213  1.1134
   24MOL   H200 4846   5.128   3.966   4.592  1.0303  0.5755 -1.2415
   24MOL   H201 4847   5.208   3.817   4.639  2.0286  0.0945  2.8723
   24MOL   H202 4848   5.298   3.926   4.541  0.2197 -0.0654  0.1673
   25MOL     O1 4849   1.910   5.128   2.444  0.2075 -0.1633  0.2150
   25MOL     C2 4850   1.799   5.076   2.516 -0.2731 -0.3894 -0.1369
   25MOL     C3 4851   1.768   4.931   2.469  0.0285  0.6624 -0.3810
   25MOL     C4 4852   1.635   4.869   2.526 -0.5767 -0.6590 -0.0269
   25MOL     H5 4853   1.717   5.147   2.502 -0.2836 -0.5834 -1.0908
   25MOL     H6 4854   1.819   5.075   2.623 -0.3991  0.1166 -0.1057
   25MOL     H7 4855   1.763   4.923   2.360 -0.2338 -2.0061 -0.2158
   25MOL     H8 4856   1.847   4.865   2.505  0.3301  0.9499 -0.5141
   25MOL     H9 4857   1.549   4.932   2.504 -1.4034 -1.5575  0.5777
   25MOL    H10 4858   1.646   4.857   2.633  2.6038  1.6568 -0.0285
   25MOL    H11 4859   1.891   5.220   2.432  1.9391 -0.0230 -1.5746
   25MOL    O12 4860   1.611   4.742   2.464 -0.5737  0.6031  0.7988
   25MOL    C13 4861   1.674   4.635   2.529  0.0526 -0.6582  0.0386
   25MOL    C14 4862   1.667   4.516   2.428 -0.8159  0.5123 -0.2448
   25MOL    C15 4863   1.746   4.558   2.303  0.2292  0.7087 -0.5146
   25MOL    H16 4864   1.608   4.614   2.612 -0.0944  1.2242  0.4189
   25MOL    H17 4865   1.775   4.652   2.568 -0.4911  0.6822  0.8848
   25MOL    H18 4866   1.717   4.424   2.460 -0.9022  0.6058  0.1616
   25MOL    H19 4867   1.565   4.501   2.394 -0.0028 -1.2581 -2.0327
   25MOL    H20 4868   1.851   4.569   2.329  0.2899 -3.1016  1.2469
   25MOL    H21 4869   1.701   4.650   2.265 -1.9854  0.5353  1.5230
   25MOL    O22 4870   1.727   4.462   2.199  0.5762 -0.7446  0.3290
   25MOL    C23 4871   1.780   4.500   2.070  0.1750 -0.0159  0.3464
   25MOL    C24 4872   1.785   4.389   1.965 -0.0512  0.4050 -0.0954
   25MOL    C25 4873   1.884   4.406   1.854  0.7812 -0.4896  0.0576
   25MOL    H26 4874   1.878   4.539   2.096  0.9338  0.5739 -3.1807
   25MOL    H27 4875   1.732   4.586   2.026  0.1804  0.6910  1.6910
   25MOL    H28 4876   1.810   4.298   2.019  1.0080 -0.3024 -1.7177
   25MOL    H29 4877   1.686   4.374   1.922  0.3435  0.6082 -1.0958
   25MOL    H30 4878   1.901   4.511   1.831  0.3654 -0.5542 -0.5582
   25MOL    H31 4879   1.857   4.353   1.762  0.4266 -0.4499  0.1349
   25MOL    O32 4880   2.004   4.357   1.898 -0.3514  0.0750  0.0428
   25MOL    C33 4881   2.103   4.303   1.814  0.0940  0.1002  0.1923
   25MOL    C34 4882   2.208   4.413   1.787  0.2992  0.1198 -1.1393
   25MOL    C35 4883   2.184   4.513   1.673 -0.6121  0.9352 -0.3982
   25MOL    H36 4884   2.060   4.269   1.720 -1.3466  2.2111  0.0644
   25MOL    H37 4885   2.138   4.216   1.870  1.2577  0.7989  0.5535
   25MOL    H38 4886   2.217   4.465   1.883 -0.6717 -0.8135 -0.5434
   25MOL    H39 4887   2.312   4.381   1.777  0.7034  1.5890 -1.9140
   25MOL    H40 4888   2.084   4.557   1.675  0.2984  3.0510  0.5858
   25MOL    H41 4889   2.205   4.449   1.587  0.5447  1.2696 -0.3737
   25MOL    O42 4890   2.274   4.620   1.685  0.1926 -0.0459 -0.2896
   25MOL    C43 4891   2.256   4.715   1.579 -0.5660 -0.1466 -0.3237
   25MOL    C44 4892   2.319   4.846   1.634 -0.0607 -0.0438  0.3663
   25MOL    C45 4893   2.335   4.969   1.538 -0.4158  0.1498  0.3883
   25MOL    H46 4894   2.150   4.734   1.563 -0.2192  2.0941 -0.0781
   25MOL    H47 4895   2.307   4.665   1.496  1.3085 -0.8438  1.2139
   25MOL    H48 4896   2.264   4.879   1.722  2.2874  2.0321  1.1217
   25MOL    H49 4897   2.423   4.833   1.666 -1.0163 -2.2426  2.7136
   25MOL    H50 4898   2.238   4.980   1.490 -0.3180 -0.6224 -0.0006
   25MOL    H51 4899   2.403   4.935   1.460  0.9615  2.2503  0.6419
   25MOL    O52 4900   2.393   5.082   1.595  0.1331 -0.2452  0.5891
   25MOL    C53 4901   2.406   5.193   1.511 -0.2520 -0.2677  0.0772
   25MOL    C54 4902   2.459   5.309   1.591  0.0538 -0.4426 -0.1740
   25MOL    C55 4903   2.360   5.360   1.694  0.6462  0.4730 -0.5035
   25MOL    H56 4904   2.309   5.221   1.469 -0.5666  1.2632  1.7598
   25MOL    H57 4905   2.482   5.179   1.434 -0.4551  1.6556 -0.5099
   25MOL    H58 4906   2.555   5.283   1.635  0.8913  0.9438 -1.1557
   25MOL    H59 4907   2.460   5.388   1.517  2.1437 -0.1022  0.2005
   25MOL    H60 4908   2.361   5.283   1.772 -0.1159  1.0355  0.0702
   25MOL    H61 4909   2.259   5.363   1.654  0.9669 -1.0257 -1.4812
   25MOL    O62 4910   2.409   5.483   1.756 -0.2795  0.1727  0.1979
   25MOL    C63 4911   2.374   5.499   1.898 -0.0119 -0.0096  0.9858
   25MOL    C64 4912   2.393   5.641   1.944  0.1685  0.5893  0.0167
   25MOL    C65 4913   2.360   5.674   2.086  0.2763  0.1955  0.7430
   25MOL    H66 4914   2.442   5.440   1.959 -1.4170 -0.6393  1.9871
   25MOL    H67 4915   2.268   5.476   1.912  0.3873 -2.3545  0.4733
   25MOL    H68 4916   2.495   5.669   1.920  0.4435 -0.0887  0.4044
   25MOL    H69 4917   2.326   5.705   1.885  1.0421  3.3316  1.9089
   25MOL    H70 4918   2.260   5.649   2.121  0.3070 -1.2871 -0.1767
   25MOL    H71 4919   2.381   5.781   2.088  0.0119  0.2244  1.9735
   25MOL    O72 4920   2.456   5.603   2.165 -0.3005 -0.2073 -0.1690
   25MOL    C73 4921   2.461   5.658   2.292 -0.5607  0.3887  0.0001
   25MOL    C74 4922   2.563   5.588   2.379 -0.2363 -0.1901 -0.1729
   25MOL    C75 4923   2.706   5.634   2.360 -0.3034 -0.0985  0.3164
   25MOL    H76 4924   2.363   5.652   2.339 -1.6917 -0.8266 -2.4094
   25MOL    H77 4925   2.491   5.763   2.292 -0.7507  0.4717  2.2962
   25MOL    H78 4926   2.532   5.620   2.478  0.8269  0.5450 -0.0617
   25MOL    H79 4927   2.545   5.481   2.368 -1.2719  0.0332 -0.6903
   25MOL    H80 4928   2.720   5.735   2.399  0.3518 -0.0074 -0.1531
   25MOL    H81 4929   2.728   5.638   2.254  0.0567 -0.8976  0.3571
   25MOL    O82 4930   2.794   5.546   2.429 -0.0872  0.6566 -0.3249
   25MOL    C83 4931   2.932   5.551   2.392 -0.4039  0.3522 -0.4918
   25MOL    C84 4932   3.010   5.457   2.486 -0.3168 -0.5829 -0.4390
   25MOL    C85 4933   2.976   5.310   2.475  0.2739 -0.8247  0.3899
   25MOL    H86 4934   2.975   5.651   2.386 -1.5142  0.8140 -0.8425
   25MOL    H87 4935   2.936   5.523   2.287  1.8406 -2.6941  0.3264
   25MOL    H88 4936   3.117   5.473   2.471 -0.4116  2.1771  1.5432
   25MOL    H89 4937   2.991   5.492   2.587 -0.7819  0.4919 -0.8875
   25MOL    H90 4938   2.869   5.300   2.457  0.2236  0.2587  0.0177
   25MOL    H91 4939   2.999   5.258   2.568 -1.2012 -1.3667  0.4539
   25MOL    O92 4940   3.065   5.257   2.377 -0.1820 -0.5121 -0.2793
   25MOL    C93 4941   3.028   5.128   2.331 -0.1295 -0.5093 -0.1678
   25MOL    C94 4942   3.102   5.087   2.201 -0.3384 -0.0626 -0.2197
   25MOL    C95 4943   3.095   5.185   2.088  0.5130  0.3766 -0.2137
   25MOL    H96 4944   2.922   5.109   2.315  0.3548 -0.3747 -3.9754
   25MOL    H97 4945   3.054   5.066   2.417 -1.4754 -0.8208  0.0216
   25MOL    H98 4946   3.204   5.066   2.232 -0.0806 -2.5012 -2.5479
   25MOL    H99 4947   3.066   4.987   2.180  1.8786 -0.9145 -0.0559
   25MOL   H100 4948   3.128   5.286   2.111  1.6569  0.3071 -1.4699
   25MOL   H101 4949   2.995   5.196   2.048 -1.1117 -2.8417  2.7162
   25MOL   O102 4950   3.180   5.122   1.988 -0.0312 -0.0388 -0.1642
   25MOL   C103 4951   3.197   5.207   1.870 -0.3006  0.3596 -0.5842
   25MOL   C104 4952   3.212   5.120   1.747 -0.0359  0.2926  0.6401
   25MOL   C105 4953   3.247   5.196   1.623 -0.9888  0.0505 -0.1092
   25MOL   H106 4954   3.292   5.260   1.882 -0.7224  0.7468  1.1715
   25MOL   H107 4955   3.112   5.275   1.869 -0.9904 -0.4467  0.9739
   25MOL   H108 4956   3.291   5.050   1.773  1.7764  1.5401 -1.3659
   25MOL   H109 4957   3.115   5.072   1.732 -0.5822  1.1746  1.3102
   25MOL   H110 4958   3.350   5.232   1.617 -0.5841 -1.3114 -1.4129
   25MOL   H111 4959   3.176   5.276   1.603 -1.0289  0.2009  0.6219
   25MOL   O112 4960   3.252   5.112   1.505  0.2055  0.3566  0.0887
   25MOL   C113 4961   3.308   5.173   1.387  0.2755  0.3297  0.3900
   25MOL   C114 4962   3.281   5.082   1.266  0.3498 -0.0590 -0.1359
   25MOL   C115 4963   3.340   5.155   1.145  0.5031  0.2775  0.1324
   25MOL   H116 4964   3.416   5.180   1.394  0.3763  0.6887 -1.4175
   25MOL   H117 4965   3.264   5.272   1.375  0.9968  0.7596  1.2328
   25MOL   H118 4966   3.337   4.989   1.267  0.4332 -0.0112 -0.3855
   25MOL   H119 4967   3.175   5.071   1.244  0.0645 -0.2875  1.2942
   25MOL   H120 4968   3.303   5.258   1.145  3.2394  1.2827 -0.3651
   25MOL   H121 4969   3.309   5.103   1.054  0.7903 -0.2325  0.3219
   25MOL   O122 4970   3.481   5.164   1.158  0.5595  0.2845 -0.0437
   25MOL   C123 4971   3.538   5.215   1.040 -0.2373  0.6799  0.0016
   25MOL   C124 4972   3.692   5.206   1.047  0.4435  0.7212 -0.1027
   25MOL   C125 4973   3.744   5.064   1.063 -0.6844 -0.2535 -0.5801
   25MOL   H126 4974   3.511   5.319   1.022 -1.5602  0.3744  0.2150
   25MOL   H127 4975   3.516   5.153   0.953  0.6178 -2.1102  1.6973
   25MOL   H128 4976   3.737   5.254   0.961  1.4785 -0.5124 -0.2541
   25MOL   H129 4977   3.716   5.261   1.138 -0.6272 -1.4658  1.5551
   25MOL   H130 4978   3.688   5.003   1.134  2.9447 -1.4134  1.4031
   25MOL   H131 4979   3.841   5.071   1.111  0.1346 -0.8486 -2.1010
   25MOL   O132 4980   3.754   4.991   0.946 -0.0382 -0.3483 -0.3810
   25MOL   C133 4981   3.804   4.859   0.960 -0.6882 -0.6668  0.3674
   25MOL   C134 4982   3.829   4.793   0.823  0.0469  0.0869 -0.3432
   25MOL   C135 4983   3.958   4.701   0.838 -0.1219 -0.3351 -0.0378
   25MOL   H136 4984   3.745   4.795   1.026 -2.7986 -1.6189 -2.3554
   25MOL   H137 4985   3.900   4.865   1.012 -1.5791 -2.3918  2.3151
   25MOL   H138 4986   3.743   4.735   0.789 -0.4093  0.6180 -0.0930
   25MOL   H139 4987   3.836   4.874   0.750  1.9275  2.0321  1.9330
   25MOL   H140 4988   3.946   4.623   0.914  0.4629 -1.2263 -0.8588
   25MOL   H141 4989   4.051   4.754   0.856  0.5652 -1.4985 -0.1031
   25MOL   O142 4990   3.972   4.630   0.714 -0.2343  0.1119  0.1500
   25MOL   C143 4991   4.098   4.573   0.693 -0.0362 -0.6426  0.3512
   25MOL   C144 4992   4.084   4.494   0.556  0.0771 -0.5209 -0.0318
   25MOL   C145 4993   4.213   4.422   0.519 -1.0419  0.8772  0.3991
   25MOL   H146 4994   4.135   4.496   0.761  0.8997 -0.2746  0.2714
   25MOL   H147 4995   4.177   4.648   0.691 -1.0397  0.4479  1.1719
   25MOL   H148 4996   4.000   4.427   0.578  0.2434 -0.3561  1.1346
   25MOL   H149 4997   4.040   4.562   0.483 -1.4499  1.2779  2.4852
   25MOL   H150 4998   4.260   4.376   0.606 -0.8642 -1.2680 -0.7907
   25MOL   H151 4999   4.286   4.495   0.483 -1.4137  1.2123  0.3190
   25MOL   O152 5000   4.181   4.318   0.423  0.0365  0.4274  0.9563
   25MOL   C153 5001   4.279   4.220   0.410 -0.3992 -0.1145 -0.6714
   25MOL   C154 5002   4.196   4.096   0.364 -0.2000  0.2089  0.1066
   25MOL   C155 5003   4.282   3.968   0.355  0.6085  1.1293 -0.3398
   25MOL   H156 5004   4.328   4.200   0.505 -2.5859 -1.4222  0.2372
   25MOL   H157 5005   4.363   4.247   0.348 -0.1047  1.9578  0.5899
   25MOL   H158 5006   4.113   4.087   0.433  1.2028  3.3566  2.3551
   25MOL   H159 5007   4.151   4.115   0.267 -0.7235 -1.7098 -0.0386
   25MOL   H160 5008   4.233   3.882   0.309  0.2569  2.0332 -1.6874
   25MOL   H161 5009   4.318   3.955   0.457  3.7274 -0.7482 -1.6198
   25MOL   O162 5010   4.398   4.014   0.285  0.3775 -0.7186  0.2233
   25MOL   C163 5011   4.494   3.906   0.266  0.4883 -0.2832  1.0969
   25MOL   C164 5012   4.598   3.959   0.161 -0.1408  0.1541 -0.4381
   25MOL   C165 5013   4.706   3.857   0.127  0.1092  0.3206 -0.0995
   25MOL   H166 5014   4.438   3.822   0.225  0.8828 -0.3488  0.6865
   25MOL   H167 5015   4.534   3.882   0.364 -2.5792  0.7595  2.6604
   25MOL   H168 5016   4.540   3.987   0.073  0.1384  1.1745 -0.3102
   25MOL   H169 5017   4.639   4.051   0.204 -2.1575  0.5131  0.7698
   25MOL   H170 5018   4.758   3.830   0.220 -0.0720 -0.4747 -0.2274
   25MOL   H171 5019   4.783   3.903   0.066  1.1459 -2.9792 -1.3995
   25MOL   O172 5020   4.663   3.737   0.064  0.2584 -0.5500  0.1628
   25MOL   C173 5021   4.637   3.754   7.716  0.2055 -0.6786  0.0247
   25MOL   C174 5022   4.629   3.619   7.647  0.1658 -0.3365 -0.2773
   25MOL   C175 5023   4.586   3.625   7.501 -0.2609  0.1351  0.3559
   25MOL   H176 5024   4.705   3.828   7.673  1.6186 -2.7128 -1.3330
   25MOL   H177 5025   4.534   3.789   7.716  0.2273 -0.4816  2.8693
   25MOL   H178 5026   4.721   3.562   7.663  0.7412  0.9978  1.2808
   25MOL   H179 5027   4.557   3.558   7.701 -1.3022 -0.3755 -2.2000
   25MOL   H180 5028   4.662   3.666   7.435  0.7385 -2.0965  0.0545
   25MOL   H181 5029   4.488   3.672   7.495  1.0125  3.0117  1.2585
   25MOL   O182 5030   4.570   3.488   7.466 -0.2495 -0.7182  0.5309
   25MOL   C183 5031   4.514   3.466   7.336 -0.1967  0.1725 -0.0996
   25MOL   C184 5032   4.429   3.333   7.343 -0.4734 -0.3613 -0.0196
   25MOL   C185 5033   4.372   3.264   7.214  0.3366 -0.0989  0.3886
   25MOL   H186 5034   4.593   3.463   7.261 -0.0019  1.3135  0.0525
   25MOL   H187 5035   4.441   3.545   7.315 -0.8022  0.5655  3.2733
   25MOL   H188 5036   4.492   3.260   7.394 -0.5839 -1.0771 -0.8985
   25MOL   H189 5037   4.346   3.348   7.411 -1.2376  0.3683 -1.1001
   25MOL   H190 5038   4.444   3.221   7.144  0.1144  1.5135 -0.8799
   25MOL   H191 5039   4.325   3.336   7.147  0.5777  0.5338  0.8951
   25MOL   O192 5040   4.281   3.164   7.239  0.7654  0.1428 -0.2925
   25MOL   C193 5041   4.231   3.101   7.122 -0.2623  0.0211  0.3376
   25MOL   C194 5042   4.113   3.009   7.154 -0.5626 -0.1859  0.4431
   25MOL   C195 5043   4.157   2.891   7.241 -0.4376  0.1428  0.4601
   25MOL   H196 5044   4.307   3.053   7.060 -1.2243  0.3028 -1.0786
   25MOL   H197 5045   4.182   3.171   7.055 -3.5137 -1.6210  0.8802
   25MOL   H198 5046   4.034   3.061   7.209  1.5248  1.1611  2.2465
   25MOL   H199 5047   4.072   2.969   7.061 -0.9163 -0.8431  0.8751
   25MOL   H200 5048   4.074   2.827   7.270 -0.0671 -0.6485 -0.2228
   25MOL   H201 5049   4.213   2.926   7.328 -1.6281  0.7038  1.0029
   25MOL   H202 5050   4.208   2.825   7.170 -2.4481 -0.3949 -0.5087
   26MOL     O1 5051   4.323   2.414   3.696  0.4809  0.3179 -0.5187
   26MOL     C2 5052   4.336   2.559   3.682  0.1023  0.0552 -0.5266
   26MOL     C3 5053   4.466   2.587   3.611 -0.3968  0.1713  0.1177
   26MOL     C4 5054   4.501   2.741   3.612 -0.4353 -0.0316  0.7406
   26MOL     H5 5055   4.345   2.614   3.776 -1.0520  1.0913 -1.0108
   26MOL     H6 5056   4.248   2.605   3.638 -1.0388 -1.1182  0.4597
   26MOL     H7 5057   4.539   2.525   3.662 -0.5065  0.9113  1.1857
   26MOL     H8 5058   4.459   2.541   3.512 -2.2546  0.6854 -0.0107
   26MOL     H9 5059   4.509   2.795   3.706  0.4599 -1.1724  1.3353
   26MOL    H10 5060   4.425   2.791   3.553 -0.7239  0.2851  1.3794
   26MOL    H11 5061   4.326   2.391   3.788 -0.2059 -0.4950 -0.6913
   26MOL    O12 5062   4.622   2.751   3.534  0.4467  0.1421  0.0128
   26MOL    C13 5063   4.648   2.885   3.521 -0.4518 -0.0431 -0.2782
   26MOL    C14 5064   4.759   2.906   3.422 -0.1714  0.6624  0.1530
   26MOL    C15 5065   4.829   3.038   3.431 -0.0145  0.6612 -1.1227
   26MOL    H16 5066   4.676   2.922   3.620 -0.2984  0.7211 -0.5997
   26MOL    H17 5067   4.561   2.937   3.481 -2.2054 -0.7244  2.5221
   26MOL    H18 5068   4.835   2.831   3.445  0.6282  1.8362  1.4727
   26MOL    H19 5069   4.733   2.876   3.321  0.0598 -1.5052  0.7189
   26MOL    H20 5070   4.862   3.063   3.531 -0.6207  1.1747 -1.0468
   26MOL    H21 5071   4.747   3.105   3.405  0.4435  1.3813 -0.7128
   26MOL    O22 5072   4.944   3.047   3.352  0.2174 -0.4403  0.7075
   26MOL    C23 5073   4.975   3.182   3.332  0.4564  0.3943  0.1354
   26MOL    C24 5074   5.125   3.192   3.311  0.2103  0.0780  0.1581
   26MOL    C25 5075   5.170   3.337   3.260  0.5971 -0.9849 -0.1316
   26MOL    H26 5076   4.948   3.233   3.424  0.8336 -0.3850  0.6767
   26MOL    H27 5077   4.915   3.219   3.248  2.1327 -1.0678 -1.7677
   26MOL    H28 5078   5.182   3.156   3.396  0.7083  0.2771 -0.0958
   26MOL    H29 5079   5.161   3.124   3.234 -0.7875  1.0378 -1.1919
   26MOL    H30 5080   5.116   3.348   3.166 -1.3795 -0.6427  1.0274
   26MOL    H31 5081   5.276   3.336   3.233  0.4732 -0.5219 -0.6490
   26MOL    O32 5082   5.124   3.436   3.355  0.1073  0.5600 -0.3375
   26MOL    C33 5083   5.166   3.565   3.319 -0.9706  0.0409 -0.1099
   26MOL    C34 5084   5.090   3.673   3.395 -0.2925  0.1759  0.1432
   26MOL    C35 5085   4.937   3.669   3.373 -0.6673  1.0415 -0.0698
   26MOL    H36 5086   5.161   3.583   3.212  0.8804 -1.4674 -0.4861
   26MOL    H37 5087   5.273   3.572   3.339 -1.3247 -2.5518  3.1418
   26MOL    H38 5088   5.112   3.652   3.500  0.0439 -0.2718 -0.0151
   26MOL    H39 5089   5.133   3.769   3.367  0.4597  0.0037  0.6840
   26MOL    H40 5090   4.906   3.573   3.416  0.0904  1.1152  0.6562
   26MOL    H41 5091   4.901   3.695   3.273 -1.7070 -0.7133 -0.1848
   26MOL    O42 5092   4.891   3.791   3.450 -0.4389  0.0837  0.3862
   26MOL    C43 5093   4.752   3.782   3.482 -0.2927 -0.2599  0.8363
   26MOL    C44 5094   4.693   3.907   3.545 -0.4123 -0.1015  0.2288
   26MOL    C45 5095   4.542   3.892   3.567  0.3542 -0.1172 -0.6195
   26MOL    H46 5096   4.739   3.706   3.559 -0.0321 -1.5152 -0.3273
   26MOL    H47 5097   4.692   3.749   3.397 -0.9933  0.5999  0.9966
   26MOL    H48 5098   4.749   3.928   3.635  0.0459  1.7603 -0.4715
   26MOL    H49 5099   4.706   3.990   3.476 -4.0076 -0.2165 -0.7114
   26MOL    H50 5100   4.511   3.801   3.619  0.1649  1.1979  1.6165
   26MOL    H51 5101   4.492   3.883   3.471 -0.6631  0.3951 -0.1482
   26MOL    O52 5102   4.482   4.005   3.627  0.0026 -0.1703 -0.5284
   26MOL    C53 5103   4.483   4.006   3.770  0.0541 -0.4788  0.2964
   26MOL    C54 5104   4.381   4.113   3.815 -0.3362 -0.1390  0.2508
   26MOL    C55 5105   4.348   4.119   3.969 -0.2786 -0.4931 -0.0759
   26MOL    H56 5106   4.585   4.021   3.807 -0.3609  0.0132  1.2536
   26MOL    H57 5107   4.446   3.912   3.811 -3.1076 -0.6822 -2.7723
   26MOL    H58 5108   4.400   4.211   3.770 -2.6815 -0.4491 -1.4735
   26MOL    H59 5109   4.287   4.096   3.764 -0.0903 -0.9091  0.0470
   26MOL    H60 5110   4.318   4.019   4.000 -4.8520  0.0709 -2.2314
   26MOL    H61 5111   4.270   4.193   3.987  0.3645  0.5330 -1.4008
   26MOL    O62 5112   4.461   4.171   4.027  0.4218 -0.2665  0.0984
   26MOL    C63 5113   4.445   4.193   4.167  0.8889  0.2298  0.3158
   26MOL    C64 5114   4.529   4.315   4.218 -0.1176  0.3740  0.1397
   26MOL    C65 5115   4.507   4.429   4.117  0.7994 -0.0164 -0.0841
   26MOL    H66 5116   4.486   4.111   4.226  0.6243  1.4701  2.2629
   26MOL    H67 5117   4.341   4.203   4.196  1.2216  0.4612  1.4343
   26MOL    H68 5118   4.494   4.340   4.318 -1.2429 -0.5383 -0.0074
   26MOL    H69 5119   4.636   4.295   4.218 -0.1984 -0.1472 -1.7945
   26MOL    H70 5120   4.411   4.422   4.066  0.0663 -1.0120  1.4203
   26MOL    H71 5121   4.574   4.433   4.031  0.0896 -2.0175 -0.7695
   26MOL    O72 5122   4.513   4.549   4.195  0.1619  0.1021  0.4236
   26MOL    C73 5123   4.449   4.659   4.136  0.1862  0.3261  0.6276
   26MOL    C74 5124   4.482   4.768   4.238 -0.0873  0.3615  0.4704
   26MOL    C75 5125   4.418   4.897   4.210  0.2697  0.3088  0.3140
   26MOL    H76 5126   4.342   4.646   4.120  0.3800  1.1223 -1.4204
   26MOL    H77 5127   4.492   4.672   4.037 -0.1921 -1.5249  0.2104
   26MOL    H78 5128   4.440   4.736   4.333 -2.4581  0.2811 -0.5713
   26MOL    H79 5129   4.588   4.792   4.238  0.0824 -0.3617 -0.0091
   26MOL    H80 5130   4.444   4.923   4.107  1.1500  4.2207  1.4237
   26MOL    H81 5131   4.469   4.971   4.273 -2.8931  3.3071 -0.5082
   26MOL    O82 5132   4.278   4.891   4.223  0.0086 -0.2901 -0.0244
   26MOL    C83 5133   4.209   4.985   4.140  0.7895 -0.0193 -0.0513
   26MOL    C84 5134   4.259   5.136   4.136  0.0525  0.4856 -0.3669
   26MOL    C85 5135   4.164   5.234   4.070 -0.4871  0.0329  0.7945
   26MOL    H86 5136   4.104   4.970   4.163  1.1913 -0.0925  1.7950
   26MOL    H87 5137   4.216   4.937   4.042 -3.6713 -0.4860 -0.2530
   26MOL    H88 5138   4.270   5.170   4.239  2.4717  0.2775 -0.5272
   26MOL    H89 5139   4.361   5.144   4.099 -0.2871  2.3333 -0.9707
   26MOL    H90 5140   4.067   5.235   4.119 -0.7112 -1.2948  0.4007
   26MOL    H91 5141   4.153   5.207   3.965 -0.0992  1.5665  0.3410
   26MOL    O92 5142   4.202   5.372   4.059  0.1505 -0.0557  0.1729
   26MOL    C93 5143   4.158   5.450   3.948  0.1181  0.2155  0.1437
   26MOL    C94 5144   4.218   5.589   3.970  0.0156 -0.4407 -0.1448
   26MOL    C95 5145   4.176   5.669   4.090 -0.0110  0.6470 -0.2296
   26MOL    H96 5146   4.050   5.447   3.938  0.2524 -1.2917 -1.0695
   26MOL    H97 5147   4.212   5.407   3.863  0.8692  0.1587  0.6452
   26MOL    H98 5148   4.327   5.580   3.976 -0.1552 -1.3381  2.1606
   26MOL    H99 5149   4.199   5.637   3.874 -0.7136 -1.5584 -0.5656
   26MOL   H100 5150   4.150   5.601   4.171 -1.5853 -1.0706 -2.1218
   26MOL   H101 5151   4.080   5.713   4.063 -0.2952 -0.4989 -1.1213
   26MOL   O102 5152   4.275   5.769   4.115 -0.2961  0.0916  0.0320
   26MOL   C103 5153   4.356   5.741   4.227  0.6179 -0.3839 -0.6345
   26MOL   C104 5154   4.441   5.611   4.222  0.6019 -0.6912  0.2899
   26MOL   C105 5155   4.535   5.614   4.346 -0.7865  0.0947  0.1739
   26MOL   H106 5156   4.304   5.726   4.322  2.8243 -0.9882  0.5275
   26MOL   H107 5157   4.435   5.816   4.232 -0.2798  0.4857  1.1106
   26MOL   H108 5158   4.370   5.529   4.230 -0.2909  0.1573  1.1394
   26MOL   H109 5159   4.497   5.600   4.129 -2.4522 -0.5847 -1.6465
   26MOL   H110 5160   4.467   5.607   4.431 -2.2976  0.8621 -0.9502
   26MOL   H111 5161   4.590   5.708   4.355  1.0107 -0.5460 -3.2149
   26MOL   O112 5162   4.619   5.500   4.341 -0.8468  0.6454 -0.4912
   26MOL   C113 5163   4.735   5.508   4.426 -0.6610 -0.0821  0.1793
   26MOL   C114 5164   4.781   5.373   4.476 -0.4196  0.5615 -0.4568
   26MOL   C115 5165   4.890   5.378   4.580  0.1746  0.0795  0.1073
   26MOL   H116 5166   4.701   5.568   4.510  0.1787  0.8960 -0.1640
   26MOL   H117 5167   4.817   5.559   4.375 -2.0200  0.4630 -1.4845
   26MOL   H118 5168   4.698   5.317   4.518  1.9535 -1.5741  1.5478
   26MOL   H119 5169   4.811   5.321   4.385 -2.4423 -0.0028 -0.8285
   26MOL   H120 5170   4.860   5.433   4.669  0.0390 -0.7399  0.5611
   26MOL   H121 5171   4.978   5.431   4.542  1.8230 -1.3797  1.8048
   26MOL   O122 5172   4.927   5.245   4.623 -0.1194 -0.4205  0.0282
   26MOL   C123 5173   5.058   5.239   4.676  0.2414  0.3424 -0.4630
   26MOL   C124 5174   5.098   5.098   4.719  0.0358  0.5246 -0.4176
   26MOL   C125 5175   5.240   5.083   4.776  0.1300 -0.2566 -0.1975
   26MOL   H126 5176   5.084   5.315   4.750  2.7572 -1.3123  0.3923
   26MOL   H127 5177   5.124   5.263   4.592  0.2745 -1.8131 -1.0734
   26MOL   H128 5178   5.028   5.061   4.794 -0.2689  0.2555 -0.8361
   26MOL   H129 5179   5.084   5.023   4.641  1.5210 -1.4911  1.1725
   26MOL   H130 5180   5.267   5.148   4.859  2.7120  0.0919 -1.2724
   26MOL   H131 5181   5.306   5.112   4.695 -2.1990  2.7031 -1.1036
   26MOL   O132 5182   5.251   4.944   4.812 -0.3525 -0.0091  0.1466
   26MOL   C133 5183   5.356   4.917   4.912  0.0594  0.1670 -0.0797
   26MOL   C134 5184   5.345   4.767   4.967 -0.0483 -0.0480  1.0759
   26MOL   C135 5185   5.451   4.738   5.070 -0.6168 -0.6828 -0.0219
   26MOL   H136 5186   5.338   4.977   5.001  0.0263  0.6055 -0.3800
   26MOL   H137 5187   5.456   4.943   4.875  0.2540 -0.3335  0.0849
   26MOL   H138 5188   5.244   4.760   5.008 -0.8564  1.0082 -0.6772
   26MOL   H139 5189   5.356   4.686   4.895  1.0695 -0.2300  1.4425
   26MOL   H140 5190   5.546   4.777   5.032 -1.2462  1.2125  0.2767
   26MOL   H141 5191   5.460   4.630   5.078 -2.2073 -0.7204  1.5703
   26MOL   O142 5192   5.427   4.806   5.195  0.3686 -0.5625  0.1398
   26MOL   C143 5193   5.520   4.759   5.295 -0.0586  0.3359  0.2943
   26MOL   C144 5194   5.466   4.830   5.423 -0.3765  0.3184  0.0712
   26MOL   C145 5195   5.543   4.791   5.550 -0.1226 -0.4169 -0.5006
   26MOL   H146 5196   5.612   4.805   5.261  0.4759  1.0942  2.6627
   26MOL   H147 5197   5.533   4.651   5.307 -1.7767  0.0244 -0.4858
   26MOL   H148 5198   5.469   4.939   5.413 -1.0007  0.4012  0.7766
   26MOL   H149 5199   5.361   4.808   5.437 -0.3297 -1.6847 -2.3740
   26MOL   H150 5200   5.646   4.825   5.545 -0.9750  2.1004 -2.0147
   26MOL   H151 5201   5.534   4.685   5.573 -0.8920  0.0297  1.4494
   26MOL   O152 5202   5.486   4.865   5.657 -0.0039  0.2372 -0.3734
   26MOL   C153 5203   5.540   4.834   5.787  0.3228 -0.2016  0.0955
   26MOL   C154 5204   5.475   4.935   5.882  0.5535  0.6746 -0.0970
   26MOL   C155 5205   5.542   4.932   6.021  0.4205  0.2188  0.3474
   26MOL   H156 5206   5.642   4.871   5.770  0.0930  0.1614 -0.5303
   26MOL   H157 5207   5.540   4.733   5.828  0.5685 -1.2976 -2.4829
   26MOL   H158 5208   5.474   5.037   5.843 -0.7378  0.8723  0.4171
   26MOL   H159 5209   5.373   4.898   5.872  1.7685 -2.9048  0.2093
   26MOL   H160 5210   5.643   4.967   6.001  1.1157 -1.1158  1.4184
   26MOL   H161 5211   5.545   4.830   6.060  1.8955 -0.0842 -0.5580
   26MOL   O162 5212   5.461   5.020   6.104  0.2221  0.3746 -0.4961
   26MOL   C163 5213   5.522   5.057   6.232  0.2898 -0.2182  0.0042
   26MOL   C164 5214   5.603   5.194   6.212  0.3135  0.2488  0.2124
   26MOL   C165 5215   5.514   5.317   6.173 -0.1497  0.4333  0.5498
   26MOL   H166 5216   5.591   4.977   6.258 -0.1904 -0.8667 -0.7075
   26MOL   H167 5217   5.440   5.049   6.304  0.0842  0.3170 -0.1644
   26MOL   H168 5218   5.650   5.209   6.309 -0.6621 -0.3614  0.7871
   26MOL   H169 5219   5.682   5.191   6.137 -1.3008 -0.6071 -1.5030
   26MOL   H170 5220   5.440   5.333   6.251  0.2855 -0.3606  1.1345
   26MOL   H171 5221   5.452   5.286   6.089  0.2341  0.9898  0.0633
   26MOL   O172 5222   5.594   5.426   6.160  0.2114  0.8237  0.1891
   26MOL   C173 5223   5.522   5.538   6.103 -0.3397  0.6536 -0.0631
   26MOL   C174 5224   5.624   5.646   6.074  0.1188 -0.2960 -0.0876
   26MOL   C175 5225   5.731   5.603   5.970 -0.6409 -0.2941  0.7256
   26MOL   H176 5226   5.435   5.575   6.158 -0.3869 -0.0852  0.3583
   26MOL   H177 5227   5.478   5.501   6.010  0.2890 -0.4499  0.0777
   26MOL   H178 5228   5.564   5.731   6.041  1.8275 -0.7169 -4.5060
   26MOL   H179 5229   5.682   5.691   6.155  2.9228 -1.8861 -1.1374
   26MOL   H180 5230   5.690   5.540   5.891 -0.7530  0.8753 -0.1771
   26MOL   H181 5231   5.797   5.536   6.024  2.4089  1.9543 -0.0325
   26MOL   O182 5232   5.789   5.710   5.902  0.4387 -0.5795 -0.4053
   26MOL   C183 5233   5.852   5.813   5.983 -0.5164  0.2916  0.4604
   26MOL   C184 5234   5.958   5.881   5.886  0.1250 -0.4056  0.6189
   26MOL   C185 5235   6.029   6.003   5.952  0.0410 -0.3130  0.0671
   26MOL   H186 5236   5.916   5.768   6.059 -1.3976 -4.4051 -1.3749
   26MOL   H187 5237   5.771   5.870   6.027 -1.3221 -1.7096  1.6499
   26MOL   H188 5238   6.018   5.806   5.835 -1.2555 -2.2142  1.6308
   26MOL   H189 5239   5.897   5.918   5.803  2.8665 -3.1856 -2.7857
   26MOL   H190 5240   5.950   6.059   6.003 -0.1075 -0.8961  0.4855
   26MOL   H191 5241   6.076   6.060   5.872 -0.9356  0.0102 -0.2945
   26MOL   O192 5242   6.121   5.968   6.047  0.1515  0.1777 -0.2711
   26MOL   C193 5243   6.244   5.917   6.007  0.0018 -0.0959  0.1725
   26MOL   C194 5244   6.358   5.935   6.102  0.3321 -0.3537 -0.5979
   26MOL   C195 5245   6.344   5.858   6.233 -0.2423  0.2950 -0.0738
   26MOL   H196 5246   6.264   5.942   5.903 -1.0717  0.1342  0.0111
   26MOL   H197 5247   6.234   5.811   5.984  0.2771 -0.0458 -0.1787
   26MOL   H198 5248   6.457   5.925   6.060  0.3081  0.1348 -0.7714
   26MOL   H199 5249   6.346   6.043   6.111  0.2079 -0.5822  2.5463
   26MOL   H200 5250   6.351   5.750   6.221 -0.4409  0.6036 -3.6371
   26MOL   H201 5251   6.249   5.877   6.284  0.3194  0.0508  1.0855
   26MOL   H202 5252   6.415   5.901   6.304 -2.0603 -1.5050  2.9429
   27MOL     O1 5253   4.828   1.423   3.324 -0.6686 -0.2393  0.5427
   27MOL     C2 5254   4.737   1.512   3.273  0.6694 -0.5137 -0.1859
   27MOL     C3 5255   4.756   1.648   3.352 -0.0695 -0.1902 -0.3341
   27MOL     C4 5256   4.667   1.756   3.290 -0.1446  0.3700  0.4639
   27MOL     H5 5257   4.636   1.480   3.296  0.1517  1.0078 -0.3319
   27MOL     H6 5258   4.742   1.519   3.164 -0.2082  1.1589 -0.1322
   27MOL     H7 5259   4.727   1.640   3.456  2.1903  2.4853  0.5717
   27MOL     H8 5260   4.862   1.674   3.356  0.1481 -1.4363  2.6068
   27MOL     H9 5261   4.661   1.837   3.363 -2.0103  0.3106  0.3993
   27MOL    H10 5262   4.566   1.724   3.264  0.1735  0.2235 -0.6032
   27MOL    H11 5263   4.795   1.407   3.410  0.2747 -2.4096  0.5386
   27MOL    O12 5264   4.713   1.806   3.166 -0.6984  0.0282  0.7727
   27MOL    C13 5265   4.645   1.925   3.129  0.8442  0.3227  0.2582
   27MOL    C14 5266   4.756   2.019   3.109 -0.3683 -0.3664  0.0238
   27MOL    C15 5267   4.710   2.144   3.030  0.1792 -0.0394  0.0205
   27MOL    H16 5268   4.569   1.955   3.202 -1.1765 -1.5649 -0.9828
   27MOL    H17 5269   4.598   1.909   3.032 -1.7752  0.7112  1.4106
   27MOL    H18 5270   4.799   2.048   3.205 -2.5439  2.8737  0.1014
   27MOL    H19 5271   4.837   1.970   3.057  0.5596 -0.1439  1.2277
   27MOL    H20 5272   4.679   2.111   2.930  1.3660  1.2620 -0.7896
   27MOL    H21 5273   4.790   2.215   3.011  2.5189 -2.2900  1.0573
   27MOL    O22 5274   4.596   2.195   3.098  0.1706  0.2810 -0.6338
   27MOL    C23 5275   4.546   2.310   3.037  1.0384 -0.1062  0.5312
   27MOL    C24 5276   4.422   2.349   3.123  0.9565  0.9003  0.4609
   27MOL    C25 5277   4.363   2.479   3.057 -0.6579 -0.1470  0.7071
   27MOL    H26 5278   4.513   2.291   2.935  0.0160  2.2484  0.3940
   27MOL    H27 5279   4.619   2.390   3.036  1.1768 -0.2083 -1.7960
   27MOL    H28 5280   4.345   2.272   3.125 -0.3399  2.0315 -3.2818
   27MOL    H29 5281   4.440   2.374   3.228 -0.0626  0.8064  0.6613
   27MOL    H30 5282   4.338   2.460   2.952 -0.4553  1.9526  0.2556
   27MOL    H31 5283   4.439   2.557   3.050 -1.1461  0.1878 -1.1099
   27MOL    O32 5284   4.254   2.524   3.136  0.7256  0.3167  0.0691
   27MOL    C33 5285   4.287   2.597   3.255  0.2615  0.6575  0.2606
   27MOL    C34 5286   4.151   2.630   3.330  0.5795 -0.6471  0.0301
   27MOL    C35 5287   4.075   2.512   3.381 -0.5375  0.3643 -0.3119
   27MOL    H36 5288   4.334   2.690   3.225  0.2388  0.6677  0.2576
   27MOL    H37 5289   4.353   2.547   3.326 -0.3639  0.1733  0.5066
   27MOL    H38 5290   4.166   2.702   3.411  0.3718  0.0487 -0.5420
   27MOL    H39 5291   4.084   2.680   3.260  1.9509 -0.1105 -0.9224
   27MOL    H40 5292   4.136   2.469   3.460 -0.7699  1.6538  0.5728
   27MOL    H41 5293   4.072   2.427   3.313 -2.6921  0.1425  0.0137
   27MOL    O42 5294   3.937   2.527   3.428 -0.7634  0.0414 -0.0246
   27MOL    C43 5295   3.881   2.392   3.453  0.4091  0.1959  0.3687
   27MOL    C44 5296   3.806   2.380   3.587 -0.2418  0.3318 -0.2712
   27MOL    C45 5297   3.725   2.251   3.601  0.0207 -0.6083  0.4054
   27MOL    H46 5298   3.953   2.310   3.442 -0.0648 -0.0562 -1.0357
   27MOL    H47 5299   3.802   2.382   3.379  0.9596 -0.8527 -0.0809
   27MOL    H48 5300   3.874   2.386   3.672 -1.2901  0.4914  0.5489
   27MOL    H49 5301   3.737   2.462   3.606 -1.7148 -0.7250 -1.0140
   27MOL    H50 5302   3.671   2.241   3.695 -1.2183 -1.3675 -0.3722
   27MOL    H51 5303   3.776   2.157   3.579  2.0195 -0.3123  3.5269
   27MOL    O52 5304   3.622   2.264   3.500 -0.1673 -0.1075  0.4950
   27MOL    C53 5305   3.514   2.174   3.516 -0.4667  0.4875  0.3194
   27MOL    C54 5306   3.393   2.202   3.420 -0.5910  0.3244 -0.0043
   27MOL    C55 5307   3.293   2.092   3.427  0.1823  0.9529 -0.3605
   27MOL    H56 5308   3.484   2.180   3.621  1.7943  0.6535  0.9816
   27MOL    H57 5309   3.551   2.073   3.500  0.0004  0.7824 -0.4952
   27MOL    H58 5310   3.352   2.298   3.448 -2.2760 -0.4989  0.3877
   27MOL    H59 5311   3.430   2.211   3.317  0.7391  0.0320  0.4321
   27MOL    H60 5312   3.272   2.069   3.532  1.9977 -0.8850 -0.3634
   27MOL    H61 5313   3.332   2.000   3.383  1.1352  1.2416 -0.1260
   27MOL    O62 5314   3.173   2.133   3.362  1.0521 -0.3387  0.2262
   27MOL    C63 5315   3.076   2.035   3.367  0.3035  0.0859  0.3410
   27MOL    C64 5316   2.958   2.086   3.289  0.2125 -0.3408 -0.2453
   27MOL    C65 5317   2.842   1.984   3.281 -0.3699 -0.2118 -0.2364
   27MOL    H66 5318   3.048   2.003   3.467 -0.0369 -2.8325 -0.6369
   27MOL    H67 5319   3.124   1.946   3.326  2.5233  1.4349 -0.1015
   27MOL    H68 5320   2.921   2.173   3.344 -1.2273 -1.7148  0.9773
   27MOL    H69 5321   2.983   2.107   3.184  1.6620  3.9268  0.8312
   27MOL    H70 5322   2.811   1.959   3.383 -1.7024  0.5058 -0.4604
   27MOL    H71 5323   2.872   1.888   3.238 -1.6750 -0.6072 -0.2642
   27MOL    O72 5324   2.729   2.033   3.204 -0.4870 -0.4350 -0.2046
   27MOL    C73 5325   2.676   2.155   3.241 -0.2252  0.3738  0.2129
   27MOL    C74 5326   2.561   2.186   3.153  0.4302  0.0754  0.3359
   27MOL    C75 5327   2.608   2.200   3.003  0.2461  0.2541 -0.0775
   27MOL    H76 5328   2.746   2.238   3.237 -0.4347  0.5506  0.2265
   27MOL    H77 5329   2.645   2.150   3.346 -0.9911  1.2440  0.0347
   27MOL    H78 5330   2.477   2.118   3.169 -0.8242  1.5973  0.3202
   27MOL    H79 5331   2.519   2.277   3.197  2.7479  2.2283 -1.7651
   27MOL    H80 5332   2.675   2.118   2.977 -1.5008 -0.7745 -1.5233
   27MOL    H81 5333   2.668   2.290   2.994 -0.2820  0.5006 -1.2417
   27MOL    O82 5334   2.498   2.191   2.910 -0.0328 -0.1258  0.5734
   27MOL    C83 5335   2.513   2.243   2.784  0.0149 -0.1310 -0.1952
   27MOL    C84 5336   2.491   2.393   2.773  0.6084  0.4156  0.0516
   27MOL    C85 5337   2.493   2.441   2.627 -0.2114  0.3409  0.0809
   27MOL    H86 5338   2.444   2.184   2.723  0.9345  0.1481 -1.5302
   27MOL    H87 5339   2.612   2.220   2.746 -0.3227  0.1389 -1.2521
   27MOL    H88 5340   2.391   2.419   2.809 -0.0536 -0.9608 -0.7668
   27MOL    H89 5341   2.566   2.454   2.823 -0.3636 -0.3121  2.4724
   27MOL    H90 5342   2.403   2.413   2.571 -0.5249  0.8797  0.3167
   27MOL    H91 5343   2.576   2.387   2.581  1.0514  0.5663  2.0160
   27MOL    O92 5344   2.526   2.578   2.628 -0.3226  0.6855  0.1060
   27MOL    C93 5345   2.566   2.633   2.503 -0.4269 -0.2649 -0.2216
   27MOL    C94 5346   2.459   2.638   2.393 -0.9408  0.3870  0.1413
   27MOL    C95 5347   2.519   2.694   2.264  0.1482 -0.2334  0.7847
   27MOL    H96 5348   2.648   2.575   2.461 -1.8806 -0.2357 -3.2622
   27MOL    H97 5349   2.605   2.734   2.518  1.2259 -0.8463 -0.4234
   27MOL    H98 5350   2.422   2.537   2.371 -0.7021  0.6224 -1.4122
   27MOL    H99 5351   2.383   2.696   2.445 -2.7985  0.0251 -2.0933
   27MOL   H100 5352   2.608   2.635   2.242 -0.7027 -0.3697 -2.4932
   27MOL   H101 5353   2.549   2.799   2.264 -0.0655 -0.1692  0.2043
   27MOL   O102 5354   2.426   2.670   2.158  0.1087  0.2708 -0.0290
   27MOL   C103 5355   2.327   2.770   2.147  0.6349  0.2624  0.3904
   27MOL   C104 5356   2.227   2.733   2.041 -0.0623  0.3471  0.1707
   27MOL   C105 5357   2.105   2.824   2.041  0.0592  0.3773  0.2651
   27MOL   H106 5358   2.369   2.868   2.125  0.4421  0.0129 -1.1435
   27MOL   H107 5359   2.271   2.769   2.241 -0.5507  1.5951 -0.2831
   27MOL   H108 5360   2.269   2.727   1.940 -1.9572 -3.2145 -0.4844
   27MOL   H109 5361   2.191   2.634   2.068 -0.8400  1.2670  2.6588
   27MOL   H110 5362   2.064   2.845   2.140  1.0170  0.3817  0.6684
   27MOL   H111 5363   2.022   2.772   1.994 -0.2404 -0.7038  1.9300
   27MOL   O112 5364   2.136   2.941   1.978  0.4206  0.3685 -0.5291
   27MOL   C113 5365   2.027   3.026   1.970 -0.7233 -0.2202  1.0839
   27MOL   C114 5366   2.074   3.158   1.917  0.6336 -0.3077 -0.6494
   27MOL   C115 5367   2.157   3.230   2.021 -0.5653  0.2682  0.4441
   27MOL   H116 5368   1.975   3.040   2.064 -1.1236  0.4797  0.7671
   27MOL   H117 5369   1.949   2.986   1.904  0.6437 -1.0121 -0.0831
   27MOL   H118 5370   2.136   3.140   1.829  0.3353 -0.2057 -0.8820
   27MOL   H119 5371   1.991   3.221   1.886  2.2915  0.8877 -2.7607
   27MOL   H120 5372   2.255   3.183   2.022 -1.6232 -2.0728 -1.2977
   27MOL   H121 5373   2.102   3.212   2.113 -1.0759  0.9195  0.2718
   27MOL   O122 5374   2.170   3.366   1.982 -0.3268  0.1816  0.4176
   27MOL   C123 5375   2.279   3.427   2.043  0.2706  0.1168 -0.1168
   27MOL   C124 5376   2.403   3.416   1.956 -0.2792  0.2052 -0.0094
   27MOL   C125 5377   2.504   3.513   2.010 -0.0901 -0.6572 -0.4661
   27MOL   H126 5378   2.296   3.387   2.143  2.1056 -1.0456 -0.8829
   27MOL   H127 5379   2.255   3.533   2.051 -0.9509 -0.1707  0.2465
   27MOL   H128 5380   2.445   3.316   1.953 -2.9426 -0.9708  0.2381
   27MOL   H129 5381   2.377   3.457   1.858  1.2153 -1.2328 -1.0313
   27MOL   H130 5382   2.509   3.513   2.119 -2.1082 -1.5728 -0.3432
   27MOL   H131 5383   2.474   3.616   1.993 -1.4291 -1.1706 -1.3031
   27MOL   O132 5384   2.625   3.506   1.944  0.8776  0.5686 -0.5254
   27MOL   C133 5385   2.727   3.438   2.023 -0.0565  0.1878 -0.1729
   27MOL   C134 5386   2.843   3.390   1.943 -0.3276  0.5228  0.2368
   27MOL   C135 5387   2.816   3.283   1.843  0.1054  0.2347 -0.5098
   27MOL   H136 5388   2.679   3.355   2.076 -0.0861  1.6719  2.2009
   27MOL   H137 5389   2.775   3.512   2.087  2.8423 -0.3845 -1.6182
   27MOL   H138 5390   2.892   3.468   1.885  0.1286 -0.7775 -1.1697
   27MOL   H139 5391   2.925   3.370   2.012  1.0835 -1.8021 -2.0026
   27MOL   H140 5392   2.742   3.308   1.766  1.1879  0.8740 -1.3534
   27MOL   H141 5393   2.785   3.199   1.905  0.4559  0.6598  0.2516
   27MOL   O142 5394   2.934   3.232   1.781 -0.2572 -0.5337  0.3161
   27MOL   C143 5395   2.916   3.105   1.711  0.1713 -0.0096  0.2842
   27MOL   C144 5396   3.038   3.073   1.617 -0.1633 -0.1424 -0.0833
   27MOL   C145 5397   3.078   2.924   1.611  0.1664 -0.1938  0.1057
   27MOL   H146 5398   2.820   3.096   1.660 -0.2045  1.2181  0.7713
   27MOL   H147 5399   2.913   3.032   1.793 -0.6111 -0.1380  0.1497
   27MOL   H148 5400   3.001   3.105   1.519  0.5467 -1.4032 -0.7675
   27MOL   H149 5401   3.117   3.143   1.644 -2.1310  2.0962  0.0955
   27MOL   H150 5402   3.148   2.913   1.528  2.3529  2.9206  1.4595
   27MOL   H151 5403   2.994   2.863   1.577  0.3094 -0.2069 -0.2268
   27MOL   O152 5404   3.130   2.865   1.725 -0.3489  0.1365 -0.7704
   27MOL   C153 5405   3.188   2.737   1.700  0.1064 -0.0146  0.2325
   27MOL   C154 5406   3.258   2.701   1.839 -0.7734  0.2930 -0.0705
   27MOL   C155 5407   3.274   2.548   1.862 -0.3887 -0.3959 -0.3266
   27MOL   H156 5408   3.264   2.754   1.623 -0.1793  2.0639  0.3820
   27MOL   H157 5409   3.116   2.663   1.666 -0.4832  0.2151  0.9802
   27MOL   H158 5410   3.355   2.749   1.852 -0.7701  0.5116 -0.8979
   27MOL   H159 5411   3.195   2.728   1.924 -0.2823 -2.0018  1.0507
   27MOL   H160 5412   3.342   2.498   1.793  0.5116  0.4854 -0.0865
   27MOL   H161 5413   3.181   2.497   1.838  0.4190 -1.5044 -1.1374
   27MOL   O162 5414   3.313   2.517   1.994  0.3817  0.2686  0.1149
   27MOL   C163 5415   3.312   2.376   2.013 -0.4025 -0.1467 -0.2300
   27MOL   C164 5416   3.348   2.338   2.156  0.0561  0.1670 -0.7973
   27MOL   C165 5417   3.333   2.196   2.195 -0.2389  0.0239 -0.0759
   27MOL   H166 5418   3.373   2.334   1.933  0.1410 -0.3623  0.2958
   27MOL   H167 5419   3.210   2.343   1.992 -0.0964 -0.1649 -1.7592
   27MOL   H168 5420   3.444   2.378   2.187 -1.3950  1.5936  2.0824
   27MOL   H169 5421   3.278   2.395   2.217 -0.2260  1.3163 -2.1801
   27MOL   H170 5422   3.386   2.139   2.119 -0.2304 -1.8998  1.3239
   27MOL   H171 5423   3.227   2.170   2.189 -0.6513  2.1122 -3.1987
   27MOL   O172 5424   3.390   2.187   2.324 -0.3915 -0.2345  0.9464
   27MOL   C173 5425   3.394   2.065   2.393  0.1625 -0.1158 -0.5220
   27MOL   C174 5426   3.262   2.020   2.459 -0.3745  0.5843 -0.3409
   27MOL   C175 5427   3.286   1.897   2.543 -0.4418  0.1105 -0.0352
   27MOL   H176 5428   3.468   2.079   2.473 -0.6323  1.5166 -0.0524
   27MOL   H177 5429   3.429   1.981   2.332 -2.6118 -1.7555  0.0450
   27MOL   H178 5430   3.231   2.087   2.538  0.9639 -0.9419  1.5232
   27MOL   H179 5431   3.185   2.015   2.381  2.0401 -1.8463 -2.6898
   27MOL   H180 5432   3.192   1.877   2.596 -0.7466 -1.2684 -1.0658
   27MOL   H181 5433   3.351   1.933   2.623  0.2716 -1.0672 -0.0733
   27MOL   O182 5434   3.338   1.796   2.465 -0.2831  0.0786  0.2981
   27MOL   C183 5435   3.368   1.677   2.539  0.4897  0.1802  0.5746
   27MOL   C184 5436   3.425   1.581   2.437  0.3142 -0.7850 -0.0703
   27MOL   C185 5437   3.565   1.624   2.390 -0.1381  0.6863 -0.0226
   27MOL   H186 5438   3.277   1.643   2.589  0.2632  1.8064  1.2999
   27MOL   H187 5439   3.444   1.701   2.613  2.1964  2.0362 -1.7039
   27MOL   H188 5440   3.431   1.481   2.478 -0.1925 -0.6525  0.3268
   27MOL   H189 5441   3.360   1.579   2.349 -0.7853 -3.1196  0.7539
   27MOL   H190 5442   3.640   1.558   2.433 -0.2043  0.3393 -0.4309
   27MOL   H191 5443   3.590   1.723   2.428  1.6021  0.1425  0.2643
   27MOL   O192 5444   3.578   1.616   2.251 -0.2300  0.1787  0.7687
   27MOL   C193 5445   3.513   1.723   2.181  0.3280 -0.1029  0.8627
   27MOL   C194 5446   3.563   1.711   2.030 -1.0871  0.1326  0.7706
   27MOL   C195 5447   3.527   1.830   1.947 -0.5030 -0.0880 -0.0141
   27MOL   H196 5448   3.531   1.825   2.217  0.6219  0.9755 -2.2020
   27MOL   H197 5449   3.405   1.728   2.188  0.3442  4.2923 -0.6911
   27MOL   H198 5450   3.672   1.704   2.030 -1.2325 -3.0317  0.9361
   27MOL   H199 5451   3.531   1.612   1.998 -0.9356  0.1509  0.5583
   27MOL   H200 5452   3.568   1.921   1.991 -0.5617  0.5617 -1.2972
   27MOL   H201 5453   3.418   1.834   1.943 -0.5388 -0.5049  0.4729
   27MOL   H202 5454   3.573   1.826   1.849  1.9325 -1.5936  1.1206
   28MOL     O1 5455   6.452   0.429   0.628  0.3232 -0.0784 -0.0341
   28MOL     C2 5456   6.382   0.470   0.516 -0.6486  0.0942 -0.2768
   28MOL     C3 5457   6.380   0.627   0.507  0.6918  0.7862 -0.2497
   28MOL     C4 5458   6.255   0.670   0.435 -0.6470 -0.0073 -0.2553
   28MOL     H5 5459   6.279   0.436   0.525 -0.9817  0.8882 -0.9996
   28MOL     H6 5460   6.424   0.423   0.427 -0.6792 -2.7508  1.1395
   28MOL     H7 5461   6.382   0.668   0.608  0.6991  0.7656 -0.2416
   28MOL     H8 5462   6.464   0.664   0.449 -0.2069 -1.5583 -3.2082
   28MOL     H9 5463   6.169   0.622   0.482  0.1036  0.7692  1.9702
   28MOL    H10 5464   6.273   0.638   0.332  0.5646 -1.5257  0.4138
   28MOL    H11 5465   6.435   0.337   0.633 -2.7353  0.4033 -0.2501
   28MOL    O12 5466   6.249   0.810   0.455  0.0007 -0.1289  0.4788
   28MOL    C13 5467   6.166   0.883   0.367  0.1188  0.6451 -0.1787
   28MOL    C14 5468   6.014   0.853   0.402 -0.0449 -0.3657  0.4294
   28MOL    C15 5469   5.926   0.935   0.307  0.2895 -0.2926  1.0216
   28MOL    H16 5470   6.201   0.868   0.265  0.3830 -0.6670  0.0931
   28MOL    H17 5471   6.186   0.989   0.386 -2.5242  1.4166 -1.4676
   28MOL    H18 5472   5.984   0.751   0.376  1.4730  0.2716 -4.3073
   28MOL    H19 5473   6.003   0.890   0.504 -2.0162 -0.9079  0.4387
   28MOL    H20 5474   5.946   0.908   0.203 -1.4140 -0.1715  0.6528
   28MOL    H21 5475   5.953   1.040   0.314  2.5020 -0.6818 -0.9011
   28MOL    O22 5476   5.790   0.919   0.342  0.3012  0.3704 -0.1350
   28MOL    C23 5477   5.724   1.029   0.404 -0.5587  0.2446 -0.0215
   28MOL    C24 5478   5.573   1.011   0.424 -0.2272  0.1912 -0.3566
   28MOL    C25 5479   5.509   1.124   0.501  0.5509  0.8864  0.5716
   28MOL    H26 5480   5.732   1.110   0.332  0.1214 -0.2144 -0.4612
   28MOL    H27 5481   5.777   1.059   0.494  1.2368 -0.6337 -0.7655
   28MOL    H28 5482   5.524   1.019   0.326 -1.0749  1.6901  0.1817
   28MOL    H29 5483   5.528   0.915   0.452 -2.7743  1.4632  0.0471
   28MOL    H30 5484   5.541   1.221   0.464 -0.8446  0.6281 -1.4583
   28MOL    H31 5485   5.535   1.115   0.606  0.2047  0.9588  0.6651
   28MOL    O32 5486   5.370   1.125   0.485  0.4031  0.2569  0.3872
   28MOL    C33 5487   5.314   1.205   0.587 -0.0015  0.6037 -0.0677
   28MOL    C34 5488   5.170   1.247   0.557  0.3369 -0.2029 -0.2788
   28MOL    C35 5489   5.091   1.271   0.686  0.3217  1.2442 -0.5817
   28MOL    H36 5490   5.377   1.291   0.610  1.8770  0.1259 -3.1742
   28MOL    H37 5491   5.318   1.140   0.674 -0.8271 -0.9617 -1.1876
   28MOL    H38 5492   5.171   1.345   0.511 -1.4511  0.6120  1.3468
   28MOL    H39 5493   5.116   1.167   0.506 -2.3468  0.8268  0.8695
   28MOL    H40 5494   5.153   1.317   0.762 -0.6160  0.5112  0.6575
   28MOL    H41 5495   5.042   1.181   0.725  1.9465  1.2228  1.5351
   28MOL    O42 5496   4.994   1.376   0.677  0.3649  1.0306 -0.2711
   28MOL    C43 5497   4.927   1.401   0.800 -0.0325 -0.6802  0.1310
   28MOL    C44 5498   4.819   1.511   0.785  0.4938 -0.2254 -0.1922
   28MOL    C45 5499   4.877   1.648   0.815 -0.3173 -0.1766  0.2582
   28MOL    H46 5500   5.004   1.432   0.870  0.9044 -1.0590 -0.7133
   28MOL    H47 5501   4.881   1.309   0.835 -3.5716  0.0553 -2.2989
   28MOL    H48 5502   4.770   1.494   0.689 -0.9972 -0.2499  0.5607
   28MOL    H49 5503   4.741   1.498   0.860 -0.0120  2.8070 -0.1643
   28MOL    H50 5504   4.940   1.686   0.734 -2.0868  2.1409 -0.0770
   28MOL    H51 5505   4.943   1.645   0.901 -1.0155  2.7312  0.9371
   28MOL    O52 5506   4.775   1.734   0.849 -0.6956 -0.0842 -0.1799
   28MOL    C53 5507   4.825   1.864   0.888  1.0115 -0.0244  0.2133
   28MOL    C54 5508   4.726   1.968   0.940 -0.3582  0.0145 -0.6615
   28MOL    C55 5509   4.781   2.112   0.946  0.5003 -0.1901 -0.2768
   28MOL    H56 5510   4.877   1.906   0.801 -2.9642 -0.7769 -2.6875
   28MOL    H57 5511   4.908   1.850   0.957  0.9800 -0.3302  0.1926
   28MOL    H58 5512   4.638   1.961   0.876 -0.2078 -1.6051 -0.7104
   28MOL    H59 5513   4.692   1.928   1.036 -0.4738 -2.7476 -1.7981
   28MOL    H60 5514   4.820   2.137   0.847  1.2821  2.1669  0.5929
   28MOL    H61 5515   4.862   2.127   1.018 -1.0169 -0.5978  1.5457
   28MOL    O62 5516   4.673   2.207   0.977  0.0524 -0.1223 -0.7788
   28MOL    C63 5517   4.719   2.351   0.989 -0.5406  0.0422 -1.1157
   28MOL    C64 5518   4.661   2.433   0.874  0.5595 -1.0143  0.1767
   28MOL    C65 5519   4.705   2.588   0.855  0.1886 -0.4712  0.3646
   28MOL    H66 5520   4.826   2.363   0.974 -0.3900  0.8569  0.5228
   28MOL    H67 5521   4.693   2.390   1.087  3.8357 -0.9757  0.5877
   28MOL    H68 5522   4.681   2.392   0.775 -1.6506  0.7520 -1.0466
   28MOL    H69 5523   4.554   2.427   0.892  0.4668  1.7646  0.8241
   28MOL    H70 5524   4.811   2.576   0.835  0.1486  0.7804 -0.6442
   28MOL    H71 5525   4.693   2.637   0.951  2.3377  0.9666 -0.0749
   28MOL    O72 5526   4.641   2.646   0.736  0.3233 -0.1269 -0.6228
   28MOL    C73 5527   4.511   2.691   0.767 -0.2955  0.5682  0.3174
   28MOL    C74 5528   4.463   2.776   0.648  0.1060  0.4643 -0.5344
   28MOL    C75 5529   4.541   2.913   0.652  0.2334 -0.1598 -0.0212
   28MOL    H76 5530   4.522   2.750   0.858 -0.5034  1.8690 -0.4848
   28MOL    H77 5531   4.439   2.610   0.779  0.0187  0.4343  1.3348
   28MOL    H78 5532   4.489   2.723   0.556 -1.1594  1.6020 -1.5744
   28MOL    H79 5533   4.356   2.793   0.642  0.4747  2.6347 -1.6007
   28MOL    H80 5534   4.648   2.895   0.661  0.2282 -0.1225  0.1222
   28MOL    H81 5535   4.510   2.974   0.737  0.0925  0.9242 -0.8437
   28MOL    O82 5536   4.535   2.989   0.530  0.0526 -0.2043  0.0481
   28MOL    C83 5537   4.619   3.103   0.527  0.2586 -0.3550 -0.1178
   28MOL    C84 5538   4.566   3.181   0.404 -0.3158 -0.2679 -0.2908
   28MOL    C85 5539   4.654   3.303   0.365 -0.7545  0.4255  0.6536
   28MOL    H86 5540   4.725   3.085   0.508  0.9096  1.6770  1.4305
   28MOL    H87 5541   4.616   3.168   0.614 -0.0982  1.0919 -1.2080
   28MOL    H88 5542   4.573   3.107   0.324  0.2360  0.9351 -1.3641
   28MOL    H89 5543   4.462   3.202   0.431  0.1904 -1.3365  2.6129
   28MOL    H90 5544   4.627   3.359   0.276  1.0472  1.1006  0.5153
   28MOL    H91 5545   4.759   3.274   0.370  0.3454  3.8847 -1.2045
   28MOL    O92 5546   4.623   3.394   0.470 -0.3550 -0.3854  0.3722
   28MOL    C93 5547   4.720   3.504   0.484  0.5702 -0.2207 -0.3282
   28MOL    C94 5548   4.683   3.572   0.619  0.1570  0.1893 -0.1197
   28MOL    C95 5549   4.710   3.725   0.610 -0.3511  0.2460  0.2889
   28MOL    H96 5550   4.719   3.581   0.407 -0.6994  2.9004  2.6529
   28MOL    H97 5551   4.823   3.468   0.487  1.5371  2.5243  1.3344
   28MOL    H98 5552   4.576   3.557   0.629  0.2252  0.6617  1.4214
   28MOL    H99 5553   4.749   3.547   0.702  0.2707 -0.3982 -0.3848
   28MOL   H100 5554   4.667   3.769   0.520 -3.0320 -2.3776  0.1907
   28MOL   H101 5555   4.816   3.746   0.599 -0.7604  2.9567  1.2394
   28MOL   O102 5556   4.665   3.800   0.729  0.2536 -0.6054 -0.4903
   28MOL   C103 5557   4.553   3.890   0.706 -0.5984  0.2385 -0.4019
   28MOL   C104 5558   4.514   3.936   0.853 -0.5685 -0.1313  0.6625
   28MOL   C105 5559   4.402   4.035   0.875 -0.2011 -0.1367  0.3100
   28MOL   H106 5560   4.468   3.842   0.657 -2.1682  1.2979  1.2106
   28MOL   H107 5561   4.589   3.974   0.646 -1.7651  0.0397 -1.4221
   28MOL   H108 5562   4.494   3.843   0.906 -1.9741 -0.1163  0.1945
   28MOL   H109 5563   4.602   3.973   0.905  0.4808  0.2162 -1.3272
   28MOL   H110 5564   4.431   4.129   0.828 -0.5125  0.4235  1.2380
   28MOL   H111 5565   4.393   4.052   0.982 -0.6728 -0.9504  0.4028
   28MOL   O112 5566   4.281   4.006   0.810  0.2905 -0.4767  0.9315
   28MOL   C113 5567   4.182   4.110   0.835 -0.2780  0.0240 -0.2152
   28MOL   C114 5568   4.047   4.077   0.771  0.1538  0.0859 -0.2546
   28MOL   C115 5569   3.955   4.196   0.782  0.3247  0.0119  0.1010
   28MOL   H116 5570   4.230   4.203   0.803 -0.1572 -0.2246 -0.7691
   28MOL   H117 5571   4.166   4.117   0.942  2.2509  1.3129  0.1315
   28MOL   H118 5572   4.074   4.062   0.667 -0.1449 -1.2856 -0.1468
   28MOL   H119 5573   3.998   3.987   0.810  2.6787 -1.5965 -0.8120
   28MOL   H120 5574   3.873   4.167   0.716 -0.7742  0.1888  1.3687
   28MOL   H121 5575   4.001   4.285   0.739  0.2059  0.1047  0.1625
   28MOL   O122 5576   3.903   4.208   0.909  0.1199  0.2408 -0.1621
   28MOL   C123 5577   3.815   4.315   0.918  0.1491  0.4751  0.0040
   28MOL   C124 5578   3.745   4.315   1.058 -0.3127 -0.0508  0.3771
   28MOL   C125 5579   3.658   4.439   1.073  0.5007 -0.0981 -0.6592
   28MOL   H126 5580   3.741   4.313   0.838 -1.5245 -0.1998  1.5332
   28MOL   H127 5581   3.869   4.406   0.889 -0.2336 -0.0656 -2.5309
   28MOL   H128 5582   3.685   4.225   1.074  0.7103 -0.6850  0.7714
   28MOL   H129 5583   3.819   4.320   1.138  0.6125 -0.5268 -0.4232
   28MOL   H130 5584   3.716   4.526   1.101 -0.3580  0.5952 -1.0296
   28MOL   H131 5585   3.585   4.419   1.152  0.9922 -0.3961 -0.2794
   28MOL   O132 5586   3.572   4.443   0.960  0.0449  0.3603  0.1565
   28MOL   C133 5587   3.507   4.568   0.948  0.5404 -0.0092 -0.0184
   28MOL   C134 5588   3.453   4.565   0.806 -0.4426 -0.5669  0.0766
   28MOL   C135 5589   3.419   4.704   0.757  0.2629  0.2863  0.5905
   28MOL   H136 5590   3.575   4.652   0.958  1.3019 -0.3738 -1.9633
   28MOL   H137 5591   3.423   4.574   1.017  1.7602 -2.7290  1.7761
   28MOL   H138 5592   3.535   4.527   0.745 -0.8700  0.0776 -0.9069
   28MOL   H139 5593   3.366   4.500   0.794 -1.6029  1.2658 -1.6269
   28MOL   H140 5594   3.377   4.692   0.657 -0.8437  1.4171  0.9110
   28MOL   H141 5595   3.511   4.762   0.751  0.7319 -0.4777  0.3626
   28MOL   O142 5596   3.322   4.765   0.840 -0.1959 -0.4618  0.1243
   28MOL   C143 5597   3.301   4.897   0.802 -0.1473 -0.5816  0.2960
   28MOL   C144 5598   3.157   4.936   0.851  0.4532 -0.3497 -0.2955
   28MOL   C145 5599   3.117   5.074   0.811 -0.2901  0.1081  0.0856
   28MOL   H146 5600   3.315   4.916   0.695 -0.8848  1.8891  0.5888
   28MOL   H147 5601   3.377   4.953   0.856 -1.0854 -0.6558  1.7107
   28MOL   H148 5602   3.087   4.867   0.804 -0.9837 -0.2279  1.6116
   28MOL   H149 5603   3.161   4.922   0.959 -1.1123  2.8663  0.2156
   28MOL   H150 5604   3.109   5.101   0.706 -0.6108 -0.9532 -0.1645
   28MOL   H151 5605   3.194   5.140   0.852  1.2663 -1.9453  0.5506
   28MOL   O152 5606   2.988   5.097   0.864 -0.2072 -0.1277 -0.3679
   28MOL   C153 5607   2.970   5.163   0.987 -0.1838  0.5495 -0.7632
   28MOL   C154 5608   2.975   5.312   0.971 -0.3526 -0.0654  0.7290
   28MOL   C155 5609   2.960   5.388   1.103  0.4608  0.1385  0.8553
   28MOL   H156 5610   3.042   5.125   1.060 -0.4275  1.6390  0.0604
   28MOL   H157 5611   2.866   5.153   1.018  0.1285  1.0596  0.4724
   28MOL   H158 5612   3.069   5.347   0.928 -2.0157  2.8466 -0.6770
   28MOL   H159 5613   2.914   5.357   0.893 -0.1168 -0.1138  0.5169
   28MOL   H160 5614   3.006   5.342   1.190 -0.3790 -1.7302  0.3193
   28MOL   H161 5615   2.853   5.400   1.123  0.0917  0.3932 -1.1355
   28MOL   O162 5616   2.999   5.527   1.087  0.1168 -0.1242 -0.5712
   28MOL   C163 5617   3.031   5.586   1.216  0.1167 -0.2469  0.4763
   28MOL   C164 5618   3.183   5.581   1.240 -0.2716 -0.4791 -0.1473
   28MOL   C165 5619   3.229   5.660   1.359 -0.1671 -0.1305 -0.4012
   28MOL   H166 5620   2.968   5.538   1.291  1.4468  0.7576  2.2842
   28MOL   H167 5621   3.005   5.691   1.208  0.9501 -0.0971 -0.5105
   28MOL   H168 5622   3.220   5.478   1.237  1.7663  0.2395 -0.5768
   28MOL   H169 5623   3.224   5.635   1.154 -0.7806  1.4221  0.7763
   28MOL   H170 5624   3.185   5.759   1.371  2.0930  0.7617  0.8848
   28MOL   H171 5625   3.335   5.684   1.368 -0.0993 -0.8132  0.7260
   28MOL   O172 5626   3.187   5.586   1.472 -0.3981  0.2218 -0.1424
   28MOL   C173 5627   3.190   5.670   1.591  0.0144 -0.0228  0.0882
   28MOL   C174 5628   3.193   5.579   1.712  0.2630  0.0848  0.0179
   28MOL   C175 5629   3.184   5.660   1.841 -0.2340  0.9992 -0.3597
   28MOL   H176 5630   3.105   5.739   1.589  0.1422  0.2551  3.0916
   28MOL   H177 5631   3.277   5.734   1.602  0.4514 -1.0224  2.6328
   28MOL   H178 5632   3.106   5.513   1.709  0.1724  0.2240 -0.3594
   28MOL   H179 5633   3.286   5.522   1.705 -1.2267 -2.1898 -1.7540
   28MOL   H180 5634   3.078   5.686   1.839 -0.6206 -0.5087 -0.7389
   28MOL   H181 5635   3.240   5.752   1.827  1.8648 -0.6331 -3.2342
   28MOL   O182 5636   3.210   5.577   1.954 -0.1786  0.2972 -0.5849
   28MOL   C183 5637   3.188   5.622   2.089  0.0753  0.3255 -0.9350
   28MOL   C184 5638   3.285   5.738   2.109  0.2580  0.0948 -0.2607
   28MOL   C185 5639   3.249   5.832   2.223  0.1760  0.5925  0.3749
   28MOL   H186 5640   3.187   5.559   2.178 -1.7950  2.4103  0.6053
   28MOL   H187 5641   3.085   5.656   2.093  0.3872  0.9947  2.9971
   28MOL   H188 5642   3.379   5.691   2.136 -0.3963 -0.4049  1.2220
   28MOL   H189 5643   3.295   5.802   2.022  1.1745  1.6323  0.9430
   28MOL   H190 5644   3.270   5.791   2.322 -0.3289 -0.9310 -0.1246
   28MOL   H191 5645   3.141   5.841   2.208 -0.2225 -3.5877  0.0577
   28MOL   O192 5646   3.317   5.950   2.202  0.2164 -0.0705 -0.0241
   28MOL   C193 5647   3.268   6.056   2.289 -0.4977 -0.1160 -0.0851
   28MOL   C194 5648   3.359   6.170   2.257 -0.8186  0.0216  0.1655
   28MOL   C195 5649   3.363   6.214   2.112  0.5378 -0.3189 -0.0810
   28MOL   H196 5650   3.272   6.021   2.392  3.3511 -3.3860 -1.1959
   28MOL   H197 5651   3.162   6.079   2.280 -0.2682  0.9700 -0.1232
   28MOL   H198 5652   3.330   6.259   2.313 -1.8522 -0.4577  0.4049
   28MOL   H199 5653   3.453   6.141   2.302 -0.3593  0.8418 -0.2628
   28MOL   H200 5654   3.411   6.310   2.094  0.6748 -0.7454 -2.1634
   28MOL   H201 5655   3.266   6.221   2.062  0.7687  1.3580 -0.3201
   28MOL   H202 5656   3.404   6.140   2.043 -0.2902 -0.4986 -0.3913
   29MOL     O1 5657   5.486   0.119   6.207 -0.4159  0.1674  0.1128
   29MOL     C2 5658   5.581   0.210   6.258  0.1355  0.0356  0.1595
   29MOL     C3 5659   5.599   0.315   6.147  0.1570 -0.2349 -0.5200
   29MOL     C4 5660   5.729   0.402   6.177  0.3025 -0.4241  0.0557
   29MOL     H5 5661   5.672   0.155   6.281  0.2548  0.3810  0.5321
   29MOL     H6 5662   5.536   0.263   6.343 -0.3132  0.6355 -0.4460
   29MOL     H7 5663   5.597   0.273   6.047 -1.0236  0.5250 -0.8290
   29MOL     H8 5664   5.516   0.384   6.161 -0.0715 -0.8563  1.2773
   29MOL     H9 5665   5.739   0.436   6.281  1.6750 -0.7110  0.0345
   29MOL    H10 5666   5.723   0.499   6.129  1.5168  0.6752  2.0091
   29MOL    H11 5667   5.418   0.118   6.274  0.8890  0.8808  1.4608
   29MOL    O12 5668   5.841   0.321   6.132 -0.4590 -0.0027  0.6110
   29MOL    C13 5669   5.963   0.384   6.160  0.0389 -1.0021  0.2416
   29MOL    C14 5670   6.066   0.287   6.096 -0.0292 -0.9196 -0.2354
   29MOL    C15 5671   6.206   0.312   6.137  0.0912 -0.0015  0.1338
   29MOL    H16 5672   5.966   0.388   6.269  0.5383  0.9758  0.1726
   29MOL    H17 5673   5.980   0.482   6.117  1.2100 -0.3038  2.2335
   29MOL    H18 5674   6.038   0.186   6.127 -1.3398 -1.1086 -1.9686
   29MOL    H19 5675   6.064   0.301   5.988  0.3689 -2.4221 -0.4557
   29MOL    H20 5676   6.217   0.420   6.144 -0.9045  0.1169 -0.0927
   29MOL    H21 5677   6.265   0.278   6.051  1.6007 -0.7497  1.4265
   29MOL    O22 5678   6.243   0.231   6.248 -0.2793 -0.7681  0.0021
   29MOL    C23 5679   6.379   0.242   6.281  0.3881 -0.1732 -0.0573
   29MOL    C24 5680   6.412   0.140   6.398  0.0875 -0.6308  0.0440
   29MOL    C25 5681   6.315   0.119   6.514  0.1633 -0.3145  0.0988
   29MOL    H26 5682   6.393   0.345   6.313 -1.0333  0.0416 -0.0885
   29MOL    H27 5683   6.439   0.224   6.192  0.8093 -1.5087  0.4851
   29MOL    H28 5684   6.428   0.048   6.342  4.5450  1.3229 -2.1599
   29MOL    H29 5685   6.512   0.165   6.434 -0.0179 -1.3761  0.8467
   29MOL    H30 5686   6.218   0.118   6.465  0.1663 -2.1977  0.1052
   29MOL    H31 5687   6.340   0.202   6.580 -1.1450 -0.6868  1.0886
   29MOL    O32 5688   6.324   7.781   6.569  0.2671 -0.2715  0.2362
   29MOL    C33 5689   6.208   7.742   6.648 -0.6303 -0.3197  0.1981
   29MOL    C34 5690   6.228   7.597   6.691 -0.9380  0.4402  0.2849
   29MOL    C35 5691   6.129   7.558   6.800 -1.0935 -0.2362  0.1150
   29MOL    H36 5692   6.111   7.756   6.601 -1.8126 -0.7061  2.4506
   29MOL    H37 5693   6.205   0.024   6.731 -2.4220 -0.6406  0.4226
   29MOL    H38 5694   6.225   7.543   6.597 -2.1586 -0.0396  0.5940
   29MOL    H39 5695   6.330   7.595   6.729 -1.0727 -1.6159  0.5972
   29MOL    H40 5696   6.025   7.573   6.769 -0.8936  1.5132  0.2540
   29MOL    H41 5697   6.133   7.633   6.880 -0.2192  1.2300 -1.2876
   29MOL    O42 5698   6.148   7.422   6.828 -0.2778 -0.1424  0.4062
   29MOL    C43 5699   6.112   7.329   6.727 -0.5864 -0.1837 -0.0535
   29MOL    C44 5700   6.069   7.207   6.796 -0.1131  0.3317 -0.1452
   29MOL    C45 5701   5.943   7.223   6.882 -0.8276  0.0253  0.4251
   29MOL    H46 5702   6.200   7.307   6.667 -0.9577  0.7015 -0.9379
   29MOL    H47 5703   6.029   7.370   6.670 -0.4656  0.0513 -0.0604
   29MOL    H48 5704   6.043   7.125   6.729 -0.0219  0.7360 -0.6717
   29MOL    H49 5705   6.156   7.175   6.854  1.3489  1.2840 -1.7785
   29MOL    H50 5706   5.865   7.243   6.809  1.4439  1.3820 -1.7217
   29MOL    H51 5707   5.957   7.301   6.956  2.8532 -0.1596  0.0308
   29MOL    O52 5708   5.913   7.106   6.944  0.2804 -0.1088 -0.1047
   29MOL    C53 5709   5.785   7.122   7.018 -0.1581 -0.7032  0.6808
   29MOL    C54 5710   5.759   6.986   7.089  0.2893 -1.1863 -0.3112
   29MOL    C55 5711   5.865   6.965   7.199  0.6615  0.5473  0.0554
   29MOL    H56 5712   5.696   7.138   6.957  1.8392  1.9618 -1.6727
   29MOL    H57 5713   5.781   7.209   7.082  0.3340 -1.4535  1.7382
   29MOL    H58 5714   5.656   6.978   7.122 -0.2042  1.7178 -1.0244
   29MOL    H59 5715   5.773   6.908   7.014  1.2898  0.2546 -1.6349
   29MOL    H60 5716   5.857   7.049   7.269  2.4613  0.7703  0.0157
   29MOL    H61 5717   5.967   6.963   7.161  1.5682  2.1189  2.3100
   29MOL    O62 5718   5.835   6.839   7.261 -0.4296  0.2353  0.4875
   29MOL    C63 5719   5.916   6.816   7.376 -0.2259 -0.3404 -0.3514
   29MOL    C64 5720   5.883   6.680   7.443 -0.2718  0.1051  0.1302
   29MOL    C65 5721   5.737   6.639   7.463  0.0568  0.4164  0.7356
   29MOL    H66 5722   5.908   6.899   7.446  1.1110  0.8994 -1.6040
   29MOL    H67 5723   6.018   6.801   7.340  1.1208 -0.0992  3.2181
   29MOL    H68 5724   5.940   6.602   7.392  1.9313  2.2942 -0.8910
   29MOL    H69 5725   5.927   6.683   7.542 -0.8250 -1.1811  0.4148
   29MOL    H70 5726   5.681   6.682   7.380 -0.6293  0.1409  1.0555
   29MOL    H71 5727   5.693   6.678   7.555 -0.4546 -0.2318  0.7656
   29MOL    O72 5728   5.730   6.501   7.457 -0.6017  0.0829  0.4336
   29MOL    C73 5729   5.690   6.441   7.332  0.1615  0.4057 -0.0607
   29MOL    C74 5730   5.679   6.293   7.335 -0.0067  0.4828  0.3583
   29MOL    C75 5731   5.611   6.230   7.213  0.1588 -0.0523  0.2616
   29MOL    H76 5732   5.757   6.463   7.250  0.1917  0.0330 -0.1364
   29MOL    H77 5733   5.591   6.482   7.310  0.1949  1.6382  1.8989
   29MOL    H78 5734   5.780   6.252   7.344  0.5700  1.3975 -1.6840
   29MOL    H79 5735   5.620   6.264   7.422  2.1721 -0.3344  1.6112
   29MOL    H80 5736   5.678   6.260   7.133 -2.2350  0.1799 -1.7086
   29MOL    H81 5737   5.517   6.282   7.195  1.2302  3.1125  3.1773
   29MOL    O82 5738   5.603   6.095   7.235  0.0888  0.3262  0.4164
   29MOL    C83 5739   5.536   6.018   7.127 -0.0620  1.1934 -0.2708
   29MOL    C84 5740   5.540   5.865   7.158 -0.4222 -0.6214  0.2080
   29MOL    C85 5741   5.679   5.812   7.203 -0.0352 -0.0621  0.2113
   29MOL    H86 5742   5.585   6.039   7.032 -1.9954 -1.5318 -1.9359
   29MOL    H87 5743   5.438   6.064   7.115 -0.3505  0.1275 -2.1657
   29MOL    H88 5744   5.472   5.851   7.242 -0.9301  2.1958  0.3432
   29MOL    H89 5745   5.494   5.812   7.075  1.5639 -1.8872 -0.1190
   29MOL    H90 5746   5.724   5.862   7.289 -1.6599 -0.3804  1.2740
   29MOL    H91 5747   5.747   5.844   7.124 -0.3475  0.8657  0.3101
   29MOL    O92 5748   5.684   5.674   7.216 -0.7146  0.3145 -0.5923
   29MOL    C93 5749   5.815   5.623   7.214 -0.2418  0.9728  0.0798
   29MOL    C94 5750   5.801   5.478   7.209 -0.3587  0.1707 -0.1979
   29MOL    C95 5751   5.744   5.418   7.078 -0.6928  0.6705  0.3327
   29MOL    H96 5752   5.877   5.645   7.300  1.7582  0.0621 -1.0910
   29MOL    H97 5753   5.874   5.651   7.127 -0.6155  0.1039 -0.4678
   29MOL    H98 5754   5.900   5.446   7.243  0.1754  1.3297 -0.6483
   29MOL    H99 5755   5.724   5.453   7.283 -0.7819  1.7048 -0.0870
   29MOL   H100 5756   5.817   5.435   6.999  0.2767 -2.5171  0.4544
   29MOL   H101 5757   5.648   5.464   7.053 -2.8329 -3.0304  1.4099
   29MOL   O102 5758   5.734   5.279   7.119  0.8513 -0.1702  0.2792
   29MOL   C103 5759   5.662   5.196   7.035 -0.6052 -0.3580 -0.3503
   29MOL   C104 5760   5.689   5.048   7.072 -0.0773  0.2638  0.0006
   29MOL   C105 5761   5.627   5.001   7.201  0.2980  0.2916  0.0790
   29MOL   H106 5762   5.690   5.223   6.933  1.9708  0.6436  0.5932
   29MOL   H107 5763   5.554   5.212   7.039 -0.3934  1.4544 -1.4743
   29MOL   H108 5764   5.678   4.973   6.994  1.8992 -0.7600  0.6763
   29MOL   H109 5765   5.796   5.051   7.088 -0.0898 -0.3237  0.1869
   29MOL   H110 5766   5.521   5.023   7.188 -0.1640 -2.6646 -1.7570
   29MOL   H111 5767   5.665   5.049   7.290  0.2034 -0.2027  0.3889
   29MOL   O112 5768   5.645   4.858   7.215  0.2971  0.3969 -0.0250
   29MOL   C113 5769   5.769   4.814   7.263  0.0119 -0.4736  0.7809
   29MOL   C114 5770   5.757   4.660   7.301 -0.1420  0.2108 -0.2113
   29MOL   C115 5771   5.898   4.598   7.336  0.6047 -0.7445 -0.1262
   29MOL   H116 5772   5.798   4.859   7.358  3.5095  0.2000 -0.5287
   29MOL   H117 5773   5.842   4.821   7.183  0.5348  0.7901  1.3525
   29MOL   H118 5774   5.686   4.629   7.377  0.5548 -0.2821  0.2532
   29MOL   H119 5775   5.722   4.606   7.213  0.4381 -1.4237  0.5282
   29MOL   H120 5776   5.934   4.631   7.434 -2.6059 -0.3628  0.9755
   29MOL   H121 5777   5.966   4.633   7.259  2.3811 -0.1533  1.6622
   29MOL   O122 5778   5.885   4.453   7.338  0.6244 -0.3988 -0.1603
   29MOL   C123 5779   6.012   4.403   7.374 -0.1849  0.1839  0.0081
   29MOL   C124 5780   5.999   4.256   7.412  0.0105 -0.0102 -0.4194
   29MOL   C125 5781   6.141   4.193   7.412 -0.5374 -0.6100  0.5538
   29MOL   H126 5782   6.050   4.459   7.459 -1.1574 -0.1854  0.6886
   29MOL   H127 5783   6.084   4.409   7.292 -0.0049 -1.4981  0.0267
   29MOL   H128 5784   5.944   4.245   7.506 -0.1661  0.1204 -0.5073
   29MOL   H129 5785   5.942   4.195   7.342 -0.2770  1.8513 -1.8530
   29MOL   H130 5786   6.177   4.196   7.309 -0.1698  0.6369  0.7190
   29MOL   H131 5787   6.130   4.087   7.436 -1.9538 -0.2527  1.5471
   29MOL   O132 5788   6.232   4.278   7.490  0.1315 -0.2692  0.2796
   29MOL   C133 5789   6.232   4.260   7.626  1.1192  0.3042 -0.2642
   29MOL   C134 5790   6.363   4.323   7.659  0.0981  0.5233  0.8645
   29MOL   C135 5791   6.426   4.268   0.001  0.2689 -0.2635 -0.7556
   29MOL   H136 5792   6.247   4.154   7.647  0.3692  0.6712  2.3272
   29MOL   H137 5793   6.142   4.290   7.679  1.0550  0.6216 -0.5528
   29MOL   H138 5794   6.440   4.298   7.586 -1.5185 -1.0794 -0.3402
   29MOL   H139 5795   6.350   4.431   7.655 -1.3150  0.3316 -0.0782
   29MOL   H140 5796   6.529   4.303   7.786  0.2835 -0.3677 -1.4862
   29MOL   H141 5797   6.433   4.161   0.020 -0.1392 -0.5910 -2.3885
   29MOL   O142 5798   6.355   4.320   0.117 -0.4652 -0.3655 -0.0224
   29MOL   C143 5799   6.421   4.326   0.245  0.8211  0.0935  0.0498
   29MOL   C144 5800   6.325   4.343   0.361 -0.7563  0.3707 -0.1817
   29MOL   C145 5801   6.218   4.225   0.375  0.1552  0.7796 -0.4217
   29MOL   H146 5802   6.477   4.420   0.240  0.2664  0.4418  0.4215
   29MOL   H147 5803   6.496   4.247   0.252  0.0665 -0.3958  3.2207
   29MOL   H148 5804   6.397   4.352   0.442 -1.4947 -0.5838  0.5974
   29MOL   H149 5805   6.275   4.440   0.366  0.1114  0.7244  2.7510
   29MOL   H150 5806   6.264   4.127   0.389 -2.5210 -0.7424 -1.8555
   29MOL   H151 5807   6.151   4.210   0.290 -1.1632  0.3852  0.6718
   29MOL   O152 5808   6.124   4.258   0.483 -0.3898 -0.0853  0.5206
   29MOL   C153 5809   6.083   4.147   0.566 -0.5371  0.3338  0.1068
   29MOL   C154 5810   5.963   4.201   0.645 -0.6268  0.2530  0.7203
   29MOL   C155 5811   5.917   4.118   0.761  0.8633 -0.1458  0.1909
   29MOL   H156 5812   6.161   4.132   0.641  1.1844 -0.0552 -1.7110
   29MOL   H157 5813   6.052   4.062   0.506  1.4981  0.2643 -0.8769
   29MOL   H158 5814   5.980   4.300   0.686  0.7958  2.0301 -3.8893
   29MOL   H159 5815   5.874   4.205   0.582  0.2338  0.6568 -0.4812
   29MOL   H160 5816   5.999   4.097   0.830  3.1095 -2.3560 -2.9814
   29MOL   H161 5817   5.878   4.023   0.723  0.9936  0.2215 -0.8678
   29MOL   O162 5818   5.807   4.185   0.821 -0.3367  0.7279 -0.4762
   29MOL   C163 5819   5.738   4.112   0.922 -0.0347  0.2208 -0.2138
   29MOL   C164 5820   5.776   4.158   1.063 -0.3094 -0.5040 -0.3159
   29MOL   C165 5821   5.690   4.087   1.173  0.5672  0.0708 -0.1776
   29MOL   H166 5822   5.750   4.005   0.902  2.0171 -0.4421  4.1335
   29MOL   H167 5823   5.632   4.130   0.904 -0.3945 -0.6597  1.0044
   29MOL   H168 5824   5.881   4.135   1.078 -0.0713 -0.0484 -1.2829
   29MOL   H169 5825   5.766   4.266   1.065  0.8475 -0.3952  1.6783
   29MOL   H170 5826   5.590   4.130   1.167  0.3969 -0.5171 -1.8238
   29MOL   H171 5827   5.723   4.127   1.269  0.2652 -0.3603  0.1040
   29MOL   O172 5828   5.689   3.949   1.169  0.2357 -0.5030 -0.6694
   29MOL   C173 5829   5.583   3.902   1.261 -0.0034  0.2260 -0.0863
   29MOL   C174 5830   5.579   3.748   1.278 -0.2376 -0.2463  0.6284
   29MOL   C175 5831   5.446   3.698   1.346  0.7642 -0.5770  0.0606
   29MOL   H176 5832   5.488   3.934   1.217 -0.3432  1.4656  1.5266
   29MOL   H177 5833   5.594   3.953   1.356 -1.0800  0.0654  0.1238
   29MOL   H178 5834   5.596   3.707   1.178  0.3599 -0.4570  0.8162
   29MOL   H179 5835   5.665   3.715   1.336  1.2281 -0.8860 -1.8444
   29MOL   H180 5836   5.436   3.590   1.339 -1.4407 -0.3968  0.2003
   29MOL   H181 5837   5.356   3.743   1.306  1.5958  0.1364 -1.0242
   29MOL   O182 5838   5.454   3.744   1.483 -0.6113 -0.4284 -0.0818
   29MOL   C183 5839   5.355   3.687   1.570  0.4588 -0.4761  0.0649
   29MOL   C184 5840   5.361   3.737   1.712 -0.3775 -0.1470 -0.0361
   29MOL   C185 5841   5.274   3.657   1.813 -0.0398  0.4553  0.6271
   29MOL   H186 5842   5.366   3.578   1.572  1.5047 -0.3732  0.5146
   29MOL   H187 5843   5.259   3.715   1.526 -0.6946 -2.1325  1.4318
   29MOL   H188 5844   5.462   3.750   1.751 -0.2694 -3.5319  1.0033
   29MOL   H189 5845   5.319   3.837   1.711 -0.3002 -0.1114 -1.7693
   29MOL   H190 5846   5.169   3.672   1.788 -0.1490 -0.7644  0.3060
   29MOL   H191 5847   5.283   3.713   1.906  0.8264 -2.1393  2.1604
   29MOL   O192 5848   5.324   3.523   1.819  0.3318 -0.2173  0.8168
   29MOL   C193 5849   5.273   3.454   1.934 -0.7754 -0.8485  0.1574
   29MOL   C194 5850   5.330   3.313   1.937 -0.4303 -0.1296  0.3955
   29MOL   C195 5851   5.274   3.232   1.815  0.5264  1.0042  0.8521
   29MOL   H196 5852   5.165   3.457   1.924 -0.8961 -2.6531  0.7443
   29MOL   H197 5853   5.304   3.507   2.024 -0.1855  1.0889 -1.1638
   29MOL   H198 5854   5.438   3.330   1.936 -0.4632  0.0481 -1.7111
   29MOL   H199 5855   5.295   3.251   2.020 -2.4482  0.9194  0.3533
   29MOL   H200 5856   5.166   3.221   1.823  0.4181  0.8885 -0.6405
   29MOL   H201 5857   5.312   3.130   1.823 -2.3478 -0.2328 -0.8098
   29MOL   H202 5858   5.300   3.266   1.715 -3.3682  1.5762 -0.0388
   30MOL     O1 5859   2.850   6.125   3.624  0.1555  0.5577 -0.0950
   30MOL     C2 5860   2.901   6.009   3.671 -0.6000  0.2677 -0.0099
   30MOL     C3 5861   2.795   5.899   3.647 -0.4321  0.1087  0.6560
   30MOL     C4 5862   2.838   5.751   3.672 -0.2508  0.6514 -0.5455
   30MOL     H5 5863   2.897   6.022   3.779  1.2213  1.3215 -0.0528
   30MOL     H6 5864   2.999   5.981   3.631 -0.1418  1.0123  0.5848
   30MOL     H7 5865   2.697   5.917   3.690 -1.5623  0.5041 -1.9875
   30MOL     H8 5866   2.774   5.898   3.540  2.1889  1.1536  0.0655
   30MOL     H9 5867   2.749   5.693   3.650  0.0011 -0.1523  0.5482
   30MOL    H10 5868   2.847   5.748   3.781  1.2756  0.2316 -0.6777
   30MOL    H11 5869   2.908   6.184   3.669 -0.5298  1.3155 -0.1967
   30MOL    O12 5870   2.955   5.725   3.605  0.1872 -0.7743 -1.0496
   30MOL    C13 5871   2.962   5.588   3.557 -0.2676 -0.2903 -1.2466
   30MOL    C14 5872   3.010   5.495   3.665 -0.3487  0.2389 -0.6825
   30MOL    C15 5873   3.145   5.535   3.709 -1.0191  0.3587  0.0193
   30MOL    H16 5874   3.042   5.585   3.483 -0.7556  1.2391 -1.8529
   30MOL    H17 5875   2.872   5.542   3.517 -0.6344  0.0747 -0.8500
   30MOL    H18 5876   2.940   5.492   3.749 -3.0009 -0.4344 -2.8349
   30MOL    H19 5877   3.008   5.392   3.630  0.3854  0.1088 -0.3488
   30MOL    H20 5878   3.142   5.639   3.742  0.2892  0.9187 -1.5220
   30MOL    H21 5879   3.212   5.539   3.623 -0.3581 -1.8599  0.4025
   30MOL    O22 5880   3.203   5.437   3.803  0.8386 -0.2980  0.2539
   30MOL    C23 5881   3.328   5.494   3.843  0.5621  0.5274  0.0265
   30MOL    C24 5882   3.400   5.399   3.936 -1.3222 -0.4240 -0.1555
   30MOL    C25 5883   3.489   5.480   4.034  0.8149  0.2004  0.5697
   30MOL    H26 5884   3.299   5.584   3.898  1.0559 -0.6460  2.2660
   30MOL    H27 5885   3.385   5.522   3.755 -0.3142 -2.3957 -1.5292
   30MOL    H28 5886   3.322   5.346   3.990  0.2385 -1.4037  1.1782
   30MOL    H29 5887   3.460   5.329   3.878  0.8390  2.6153 -1.7363
   30MOL    H30 5888   3.428   5.536   4.105 -1.4128 -1.1085 -0.2508
   30MOL    H31 5889   3.543   5.556   3.978  1.5155  1.0091  2.3032
   30MOL    O32 5890   3.573   5.383   4.087 -0.1504 -0.0489 -0.6133
   30MOL    C33 5891   3.648   5.431   4.199 -0.4133  0.0276  0.5594
   30MOL    C34 5892   3.745   5.315   4.245  0.5170  0.0362 -0.9128
   30MOL    C35 5893   3.675   5.198   4.323  0.2047 -0.2946 -0.0060
   30MOL    H36 5894   3.578   5.465   4.276 -0.7083  3.9237 -1.3203
   30MOL    H37 5895   3.710   5.512   4.162  0.4324 -1.3408 -1.1011
   30MOL    H38 5896   3.803   5.269   4.166 -3.3636 -4.0030 -1.6401
   30MOL    H39 5897   3.817   5.359   4.314  0.0347 -1.4432  0.5919
   30MOL    H40 5898   3.596   5.155   4.262 -1.2114 -1.0852  2.3510
   30MOL    H41 5899   3.644   5.241   4.418 -0.1861 -0.7876  0.0890
   30MOL    O42 5900   3.775   5.100   4.349  0.1045  0.2039 -0.2775
   30MOL    C43 5901   3.721   4.969   4.393 -0.6583 -0.0118  0.4667
   30MOL    C44 5902   3.660   4.964   4.533  0.5933  0.1534  1.2019
   30MOL    C45 5903   3.599   4.827   4.566 -0.3685  0.2390  0.2434
   30MOL    H46 5904   3.812   4.908   4.394  1.3154  2.6977 -2.6456
   30MOL    H47 5905   3.656   4.923   4.319  0.7049  0.2225 -0.9139
   30MOL    H48 5906   3.743   4.979   4.601 -0.0367 -1.5139  2.3944
   30MOL    H49 5907   3.606   5.055   4.559 -1.1103 -0.1966 -0.9398
   30MOL    H50 5908   3.682   4.756   4.558 -1.5079 -0.9495 -1.4761
   30MOL    H51 5909   3.539   4.792   4.482  1.5417 -1.5827 -0.4297
   30MOL    O52 5910   3.523   4.825   4.681 -0.4737 -0.6361 -0.3023
   30MOL    C53 5911   3.508   4.694   4.738 -0.2196  0.6167  0.1042
   30MOL    C54 5912   3.404   4.604   4.673 -0.3761 -0.0401  0.3695
   30MOL    C55 5913   3.263   4.655   4.679  0.2123 -0.5598 -0.6083
   30MOL    H56 5914   3.495   4.694   4.846 -0.3035  0.2203  0.0957
   30MOL    H57 5915   3.607   4.650   4.732  0.4076  1.9665  0.4970
   30MOL    H58 5916   3.434   4.588   4.569 -1.0209  1.3302 -0.0452
   30MOL    H59 5917   3.407   4.510   4.728 -1.3389 -0.9740 -1.1496
   30MOL    H60 5918   3.251   4.746   4.622 -2.8043 -0.8151 -0.4838
   30MOL    H61 5919   3.244   4.666   4.786 -1.1464 -0.0910 -0.8904
   30MOL    O62 5920   3.190   4.538   4.654 -0.8772 -0.4699  0.6114
   30MOL    C63 5921   3.050   4.563   4.622 -0.4012  0.0079 -0.0852
   30MOL    C64 5922   2.968   4.436   4.654  0.3993 -0.1309  0.3185
   30MOL    C65 5923   2.814   4.464   4.666 -0.2117  0.1918  0.1052
   30MOL    H66 5924   3.034   4.597   4.520  0.0596  1.0939  0.1963
   30MOL    H67 5925   3.025   4.644   4.691  0.3806 -0.2561  0.5180
   30MOL    H68 5926   2.985   4.360   4.578 -1.2278 -1.6420  1.4399
   30MOL    H69 5927   2.999   4.391   4.748  4.4812  0.1205 -0.8245
   30MOL    H70 5928   2.764   4.368   4.653  0.1612  0.1235 -0.8761
   30MOL    H71 5929   2.767   4.536   4.598 -0.7255 -1.1806 -1.0121
   30MOL    O72 5930   2.794   4.523   4.791 -0.3573  0.3364 -0.2010
   30MOL    C73 5931   2.659   4.537   4.835  0.9403 -0.0103  0.2101
   30MOL    C74 5932   2.645   4.567   4.987 -1.0879 -0.1526  0.1772
   30MOL    C75 5933   2.500   4.548   5.042  0.4496 -0.4927  0.5513
   30MOL    H76 5934   2.603   4.445   4.818  0.6092  0.3224 -0.5042
   30MOL    H77 5935   2.595   4.612   4.788 -2.4635 -3.4745 -0.9438
   30MOL    H78 5936   2.714   4.499   5.038 -0.2123 -1.2862 -2.4623
   30MOL    H79 5937   2.672   4.669   5.016  0.0838 -0.1072 -1.0326
   30MOL    H80 5938   2.461   4.455   4.999  1.2661 -1.5555  2.1036
   30MOL    H81 5939   2.444   4.636   5.009  1.1227 -0.4176 -0.4178
   30MOL    O82 5940   2.507   4.533   5.178 -0.0112 -0.0217  0.2049
   30MOL    C83 5941   2.522   4.653   5.245  0.7918 -0.6869  0.1007
   30MOL    C84 5942   2.517   4.631   5.395  0.8074 -0.4723 -0.0940
   30MOL    C85 5943   2.452   4.748   5.468  0.1040 -0.3865 -0.4603
   30MOL    H86 5944   2.441   4.719   5.211  0.6664 -0.4197  0.9069
   30MOL    H87 5945   2.617   4.703   5.225  1.0426 -0.5227  1.6212
   30MOL    H88 5946   2.474   4.535   5.422  1.4113 -1.1901 -1.6511
   30MOL    H89 5947   2.619   4.635   5.432 -0.2650 -0.9880  3.0908
   30MOL    H90 5948   2.345   4.745   5.445 -0.4603  0.0175  1.9019
   30MOL    H91 5949   2.493   4.845   5.444  0.7218 -0.7828 -1.0066
   30MOL    O92 5950   2.483   4.729   5.608  0.1145  0.5720  0.0250
   30MOL    C93 5951   2.376   4.787   5.687  0.2176 -0.2972  0.1063
   30MOL    C94 5952   2.402   4.767   5.834  0.3086 -0.6033 -0.2489
   30MOL    C95 5953   2.304   4.853   5.924  0.2044  1.2190 -0.1088
   30MOL    H96 5954   2.275   4.755   5.662 -0.4031  1.4245  0.3583
   30MOL    H97 5955   2.366   4.892   5.659  0.5624 -0.7657 -1.8583
   30MOL    H98 5956   2.397   4.661   5.857 -0.8382 -0.3370  0.8079
   30MOL    H99 5957   2.506   4.789   5.861  0.3982 -1.6957  0.3390
   30MOL   H100 5958   2.198   4.848   5.897  0.1720 -0.7606  0.2906
   30MOL   H101 5959   2.328   4.957   5.903  0.7020  1.1689  0.2209
   30MOL   O102 5960   2.319   4.826   6.069  0.4879 -0.1856  0.5914
   30MOL   C103 5961   2.245   4.917   6.149 -0.4622  0.9360  0.6604
   30MOL   C104 5962   2.258   4.872   6.294  0.2813 -0.5699 -0.7084
   30MOL   C105 5963   2.158   4.755   6.312  0.1141 -0.5972  0.2137
   30MOL   H106 5964   2.144   4.923   6.109  0.0055  1.0212 -0.5378
   30MOL   H107 5965   2.289   5.016   6.141  0.4721  0.4524 -0.3232
   30MOL   H108 5966   2.364   4.850   6.301  0.4749  0.2001 -1.0879
   30MOL   H109 5967   2.232   4.958   6.356 -0.1465  0.7086 -2.6009
   30MOL   H110 5968   2.183   4.672   6.247  0.3403 -0.0395 -0.4130
   30MOL   H111 5969   2.052   4.780   6.310  0.3629  0.4678 -0.4552
   30MOL   O112 5970   2.172   4.707   6.440  0.4705 -0.5499  0.0522
   30MOL   C113 5971   2.106   4.586   6.473 -0.5387  0.5128 -0.2054
   30MOL   C114 5972   2.094   4.568   6.627  0.2857  0.4652 -0.9151
   30MOL   C115 5973   2.225   4.525   6.694 -0.2512  0.2385  0.3240
   30MOL   H116 5974   2.157   4.499   6.432 -1.6541  0.6463 -1.9191
   30MOL   H117 5975   2.010   4.588   6.422 -0.3063 -2.1922 -0.8460
   30MOL   H118 5976   2.052   4.659   6.671 -3.0950 -0.5901 -1.8038
   30MOL   H119 5977   2.012   4.497   6.643  2.6654 -1.7274  2.1366
   30MOL   H120 5978   2.295   4.606   6.717 -0.5438  0.5835  0.0104
   30MOL   H121 5979   2.268   4.463   6.615 -0.4778  0.0156  0.3759
   30MOL   O122 5980   2.208   4.451   6.812  0.0838  0.4998  0.5076
   30MOL   C123 5981   2.158   4.527   6.922  0.1757 -0.0109  0.1551
   30MOL   C124 5982   2.147   4.438   7.042  0.1819 -0.0475 -0.0260
   30MOL   C125 5983   2.282   4.413   7.098 -0.5635 -0.4930 -0.1032
   30MOL   H126 5984   2.056   4.565   6.914  0.0687 -0.7884 -2.4805
   30MOL   H127 5985   2.212   4.616   6.954 -0.3471  0.2290  0.3785
   30MOL   H128 5986   2.089   4.484   7.122  0.5409 -0.0870  0.2576
   30MOL   H129 5987   2.102   4.340   7.025 -1.2848  0.8074 -1.2307
   30MOL   H130 5988   2.330   4.511   7.104 -0.3983 -0.6788  1.6431
   30MOL   H131 5989   2.346   4.360   7.028 -0.3942 -0.1379 -0.2198
   30MOL   O132 5990   2.288   4.355   7.228 -0.4745  0.3650 -0.7475
   30MOL   C133 5991   2.247   4.435   7.337 -0.0479 -0.1430 -0.7168
   30MOL   C134 5992   2.241   4.350   7.464 -0.0164  0.0418  0.0144
   30MOL   C135 5993   2.205   4.436   7.591  0.1415 -0.3111 -0.7675
   30MOL   H136 5994   2.147   4.476   7.319 -0.4376  0.2877  2.2616
   30MOL   H137 5995   2.322   4.513   7.351 -0.3219 -0.1660  0.9003
   30MOL   H138 5996   2.161   4.278   7.452 -0.8410  1.1698 -1.5321
   30MOL   H139 5997   2.328   4.288   7.485  1.0379  1.2745 -0.6168
   30MOL   H140 5998   2.117   4.499   7.576  0.6075  0.2921 -0.9707
   30MOL   H141 5999   2.290   4.496   7.622 -0.2471 -0.4350  0.5580
   30MOL   O142 6000   2.189   4.347   7.693  0.1961 -0.1855 -0.3813
   30MOL   C143 6001   2.107   4.393   0.014 -0.7440 -0.0797  0.4627
   30MOL   C144 6002   2.123   4.308   0.139 -0.2447 -0.0680 -0.0486
   30MOL   C145 6003   2.031   4.347   0.257  0.0983  0.5322 -0.2592
   30MOL   H146 6004   2.006   4.400   7.763 -1.0304 -4.3502  0.1764
   30MOL   H147 6005   2.133   4.496   0.040 -2.5518  0.3395  0.6768
   30MOL   H148 6006   2.106   4.205   0.106  1.0585  0.1390 -1.3896
   30MOL   H149 6007   2.212   4.308   0.202 -0.7575 -1.9986  0.7187
   30MOL   H150 6008   2.059   4.436   0.314 -0.0512  0.3101  0.1664
   30MOL   H151 6009   2.030   4.274   0.338  1.7270  0.2289 -0.4993
   30MOL   O152 6010   1.896   4.359   0.220 -0.3758 -0.1106  0.5073
   30MOL   C153 6011   1.830   4.235   0.187 -0.1444 -0.5658  0.4226
   30MOL   C154 6012   1.688   4.274   0.150  0.3331  0.5331 -0.3617
   30MOL   C155 6013   1.596   4.152   0.107 -0.2018 -0.2263 -0.4583
   30MOL   H156 6014   1.826   4.173   0.276  0.5681 -1.9477 -0.4993
   30MOL   H157 6015   1.874   4.197   0.095  0.6242  4.2020 -1.3621
   30MOL   H158 6016   1.651   4.313   0.245  0.9106  0.0356  0.0731
   30MOL   H159 6017   1.675   4.348   0.071  1.2302  0.0510 -0.9709
   30MOL   H160 6018   1.558   4.102   0.196 -1.9096  1.6881 -0.0659
   30MOL   H161 6019   1.643   4.087   0.033 -1.1738 -1.6172  0.1064
   30MOL   O162 6020   1.473   4.203   0.051  0.5293 -0.0247 -0.1089
   30MOL   C163 6021   1.394   4.112   7.768  0.3455  0.1911  0.2665
   30MOL   C164 6022   1.272   4.178   7.728  0.3625 -0.2300 -0.0278
   30MOL   C165 6023   1.173   4.106   7.651  0.4006  0.0423  0.0414
   30MOL   H166 6024   1.401   4.010   0.017 -0.4458 -1.0277 -2.7515
   30MOL   H167 6025   1.448   4.089   7.676 -1.3840 -1.8758 -0.2789
   30MOL   H168 6026   1.211   4.218   0.021 -2.4294  0.9732 -2.6441
   30MOL   H169 6027   1.301   4.268   7.674 -0.9146  0.0210 -0.3244
   30MOL   H170 6028   1.184   4.130   7.545  0.9508 -0.0542  0.0739
   30MOL   H171 6029   1.074   4.147   7.670 -0.5937 -1.4223 -1.8047
   30MOL   O172 6030   1.182   3.967   7.684 -0.1018 -0.1257  0.0554
   30MOL   C173 6031   1.089   3.892   7.606  0.0896 -0.4692 -0.4743
   30MOL   C174 6032   1.095   3.744   7.628 -0.2148  0.3654 -0.0516
   30MOL   C175 6033   0.962   3.674   7.599  0.6647 -0.7830 -0.6605
   30MOL   H176 6034   1.099   3.930   7.504 -1.2514  0.7214 -0.1843
   30MOL   H177 6035   0.987   3.922   7.627  0.2788 -0.8276  0.9929
   30MOL   H178 6036   1.171   3.689   7.573 -1.0992 -1.6513  0.6990
   30MOL   H179 6037   1.124   3.724   7.731  0.6496  1.1981 -0.1260
   30MOL   H180 6038   0.968   3.565   7.601 -1.4883 -0.9127  0.1786
   30MOL   H181 6039   0.937   3.705   7.498 -1.0761  0.5435  0.1529
   30MOL   O182 6040   0.855   3.713   7.698 -0.1605  0.9115  0.1452
   30MOL   C183 6041   0.731   3.658   7.668 -0.4817  0.2873  0.2905
   30MOL   C184 6042   0.623   3.704   7.776 -0.9248  0.9793 -0.0110
   30MOL   C185 6043   0.654   3.657   0.125 -0.2919  0.3163  0.3657
   30MOL   H186 6044   0.729   3.549   7.660  0.3750  0.1751  1.4718
   30MOL   H187 6045   0.694   3.690   7.571 -0.5577  1.7557  0.7836
   30MOL   H188 6046   0.617   3.813   7.776 -1.2172  0.9656 -0.8131
   30MOL   H189 6047   0.524   3.672   7.743  0.2004  0.0210 -2.5560
   30MOL   H190 6048   0.731   3.715   0.176  1.1249  0.7836 -2.1946
   30MOL   H191 6049   0.698   3.557   0.117 -0.9820  0.0677 -0.4766
   30MOL   O192 6050   0.542   3.644   0.212  0.2505  0.3417  0.0342
   30MOL   C193 6051   0.457   3.756   0.218  0.0308 -0.1386  0.4127
   30MOL   C194 6052   0.361   3.761   0.338 -0.7930  0.3886 -0.2733
   30MOL   C195 6053   0.428   3.725   0.474 -0.7955  0.2804 -0.5258
   30MOL   H196 6054   0.404   3.764   0.123  1.1077 -2.7294 -0.4567
   30MOL   H197 6055   0.527   3.839   0.229  1.4258 -1.2399 -0.0463
   30MOL   H198 6056   0.324   3.863   0.348  0.4877  0.8524 -0.1031
   30MOL   H199 6057   0.280   3.689   0.338 -0.0548 -0.4511 -0.6001
   30MOL   H200 6058   0.507   3.651   0.463  0.2261  1.2814 -0.0154
   30MOL   H201 6059   0.351   3.688   0.542 -1.2468 -0.1064 -1.2413
   30MOL   H202 6060   0.464   3.814   0.525 -1.2146 -0.6469  1.4742
   31MOL     O1 6061   6.006   2.217   3.932  0.8143  0.3494 -0.0126
   31MOL     C2 6062   5.947   2.262   3.813  0.2690  0.2076  0.9372
   31MOL     C3 6063   5.841   2.375   3.836 -0.4401 -0.0836  0.0807
   31MOL     C4 6064   5.782   2.412   3.698 -0.7750 -0.0672 -0.3365
   31MOL     H5 6065   5.883   2.184   3.773  0.6094  0.4740 -0.1342
   31MOL     H6 6066   6.033   2.285   3.750  1.6025 -0.0580  2.6264
   31MOL     H7 6067   5.759   2.342   3.900 -1.0886  2.2806  0.5219
   31MOL     H8 6068   5.877   2.468   3.881 -0.0462  0.3001 -1.0084
   31MOL     H9 6069   5.700   2.341   3.687  0.1418 -1.4837  1.7104
   31MOL    H10 6070   5.848   2.384   3.616 -3.4895 -1.4286 -2.1588
   31MOL    H11 6071   5.962   2.254   4.008 -0.7402 -1.1318 -0.1746
   31MOL    O12 6072   5.751   2.552   3.694  0.0141  0.3280  0.7913
   31MOL    C13 6073   5.853   2.629   3.638 -1.2707 -0.2744 -0.0799
   31MOL    C14 6074   5.813   2.778   3.627 -0.4219  0.0963  0.3857
   31MOL    C15 6075   5.910   2.870   3.554 -0.6251 -0.7336 -0.0426
   31MOL    H16 6076   5.869   2.601   3.534  2.1630 -1.4852  0.6910
   31MOL    H17 6077   5.952   2.616   3.683 -1.9787 -0.7236  1.3776
   31MOL    H18 6078   5.721   2.777   3.569 -0.1565  1.8007 -0.0921
   31MOL    H19 6079   5.794   2.810   3.730  1.5024  1.7822  0.2393
   31MOL    H20 6080   5.913   2.856   3.446 -0.0215  1.4593 -0.3427
   31MOL    H21 6081   6.008   2.848   3.597 -0.4401 -0.3008 -0.2326
   31MOL    O22 6082   5.872   3.005   3.584  0.1315 -0.0691  0.0809
   31MOL    C23 6083   5.760   3.048   3.512  0.2443 -0.9563  0.3206
   31MOL    C24 6084   5.728   3.188   3.565  0.2936  0.4284 -0.4954
   31MOL    C25 6085   5.590   3.241   3.519 -0.2237  0.9221 -0.3301
   31MOL    H26 6086   5.674   2.983   3.521 -0.2351 -0.8099 -2.6984
   31MOL    H27 6087   5.787   3.050   3.406  0.8738  2.0155  0.4786
   31MOL    H28 6088   5.742   3.184   3.673 -1.6744 -2.2464 -0.3071
   31MOL    H29 6089   5.803   3.254   3.520 -0.7758  0.6576 -1.9728
   31MOL    H30 6090   5.516   3.180   3.570  0.5606 -0.3025 -0.6605
   31MOL    H31 6091   5.572   3.234   3.412 -0.3150 -1.7969 -0.1528
   31MOL    O32 6092   5.560   3.376   3.563 -0.3622 -0.7025 -0.1397
   31MOL    C33 6093   5.432   3.421   3.562 -0.2285 -0.2823 -0.4169
   31MOL    C34 6094   5.424   3.555   3.631  0.4907 -0.0866 -0.0219
   31MOL    C35 6095   5.490   3.665   3.542 -0.0871  0.6751  0.7627
   31MOL    H36 6096   5.371   3.353   3.621 -0.8076  0.8216  0.2634
   31MOL    H37 6097   5.390   3.419   3.462 -0.6456 -1.6644 -0.2269
   31MOL    H38 6098   5.318   3.584   3.632  0.7234  0.7820  0.7239
   31MOL    H39 6099   5.453   3.554   3.736 -0.3678 -0.9168  0.2209
   31MOL    H40 6100   5.452   3.659   3.441 -1.9350 -1.9252  1.5774
   31MOL    H41 6101   5.597   3.646   3.536 -0.4108 -0.7580 -0.5157
   31MOL    O42 6102   5.457   3.792   3.589 -0.3284  0.4826 -0.2420
   31MOL    C43 6103   5.544   3.894   3.540 -0.3860  0.2046  0.4350
   31MOL    C44 6104   5.491   4.034   3.555 -0.7443  0.1797  0.6585
   31MOL    C45 6105   5.589   4.135   3.492  0.7972  0.2044  0.6620
   31MOL    H46 6106   5.567   3.878   3.435 -1.1018  0.0726  0.2939
   31MOL    H47 6107   5.633   3.892   3.603  0.1343  0.1509 -0.2991
   31MOL    H48 6108   5.391   4.035   3.513  0.0986  1.3063 -1.4454
   31MOL    H49 6109   5.473   4.047   3.661  0.4120 -4.6046  1.5657
   31MOL    H50 6110   5.622   4.101   3.394 -0.4552  1.5111 -0.2178
   31MOL    H51 6111   5.683   4.131   3.548  1.5056 -1.4231 -0.5724
   31MOL    O52 6112   5.536   4.261   3.489 -0.3322 -0.2151 -0.3661
   31MOL    C53 6113   5.603   4.352   3.409  0.1018 -0.2795 -0.1013
   31MOL    C54 6114   5.538   4.495   3.429 -0.3154 -0.0891  0.0613
   31MOL    C55 6115   5.609   4.599   3.344  0.2768 -0.5303  0.1797
   31MOL    H56 6116   5.604   4.323   3.304 -2.0691 -0.7995 -0.0074
   31MOL    H57 6117   5.707   4.356   3.442  0.6322 -1.3003 -1.6128
   31MOL    H58 6118   5.433   4.490   3.400 -0.7796  1.4156  1.4144
   31MOL    H59 6119   5.546   4.532   3.531  1.4900 -0.2522 -0.0052
   31MOL    H60 6120   5.611   4.566   3.240  0.5555  2.0360 -0.6674
   31MOL    H61 6121   5.710   4.602   3.385 -0.1288 -0.5466  1.2057
   31MOL    O62 6122   5.540   4.720   3.361 -0.6217 -0.4607  0.2747
   31MOL    C63 6123   5.591   4.810   3.265  0.1009 -0.0707 -0.4260
   31MOL    C64 6124   5.509   4.940   3.271  0.3340  0.2587 -1.0292
   31MOL    C65 6125   5.554   5.061   3.174  0.2258 -0.2685 -0.2452
   31MOL    H66 6126   5.565   4.765   3.170  0.8898  1.8267 -1.5829
   31MOL    H67 6127   5.699   4.830   3.268  0.2088 -0.7180 -0.0436
   31MOL    H68 6128   5.405   4.911   3.265  0.4093 -0.2170 -0.1416
   31MOL    H69 6129   5.517   4.983   3.371 -0.0474 -2.0563  0.0436
   31MOL    H70 6130   5.483   5.048   3.093  0.9490 -0.6990 -0.8128
   31MOL    H71 6131   5.653   5.042   3.132  1.4935  3.1455  1.0048
   31MOL    O72 6132   5.549   5.194   3.239  0.2563 -0.6879  0.1960
   31MOL    C73 6133   5.548   5.302   3.141 -0.0183 -0.4382  0.2234
   31MOL    C74 6134   5.576   5.428   3.218  1.0445  0.5103 -0.7131
   31MOL    C75 6135   5.656   5.530   3.137  1.0278 -0.8248 -0.1421
   31MOL    H76 6136   5.455   5.302   3.084 -0.0175  0.9186  0.2165
   31MOL    H77 6137   5.634   5.283   3.077  0.0818  2.0030 -0.4104
   31MOL    H78 6138   5.488   5.479   3.257  0.7696  1.1045 -2.0845
   31MOL    H79 6139   5.640   5.391   3.298 -3.8310 -2.4302  2.0960
   31MOL    H80 6140   5.745   5.484   3.093  0.7081 -0.4608 -1.1783
   31MOL    H81 6141   5.692   5.610   3.200 -0.9965  0.9665 -1.2089
   31MOL    O82 6142   5.579   5.597   3.038  0.4009 -0.4445 -0.4799
   31MOL    C83 6143   5.667   5.684   2.956 -0.0110  0.5500 -0.4733
   31MOL    C84 6144   5.606   5.713   2.814  0.3071  0.7281 -0.8021
   31MOL    C85 6145   5.706   5.768   2.719  0.1415 -0.0661  0.5361
   31MOL    H86 6146   5.768   5.644   2.948  0.4888  1.9170 -1.0939
   31MOL    H87 6147   5.677   5.780   3.007  0.3231 -0.3636  1.2298
   31MOL    H88 6148   5.563   5.618   2.782  1.0781  0.4684 -1.0735
   31MOL    H89 6149   5.523   5.783   2.820 -0.6112 -0.2904 -1.4503
   31MOL    H90 6150   5.798   5.713   2.701 -0.2790  0.0912 -2.3118
   31MOL    H91 6151   5.749   5.861   2.757 -0.5231 -0.0497  1.2662
   31MOL    O92 6152   5.647   5.770   2.591  0.4605  0.4679 -0.2794
   31MOL    C93 6153   5.717   5.851   2.496  0.5538  0.2906 -0.0862
   31MOL    C94 6154   5.620   5.883   2.387 -1.0704 -0.5170 -0.1214
   31MOL    C95 6155   5.560   5.752   2.323  0.7716  0.3696 -0.4294
   31MOL    H96 6156   5.793   5.794   2.442  0.8676  0.0305  0.6227
   31MOL    H97 6157   5.755   5.944   2.538  0.3350 -0.4766  1.8636
   31MOL    H98 6158   5.549   5.954   2.429 -0.2282  0.6579 -0.6592
   31MOL    H99 6159   5.687   5.931   2.315  0.7670 -0.6718  1.4374
   31MOL   H100 6160   5.518   5.694   2.405  1.3456  0.8023  0.1786
   31MOL   H101 6161   5.630   5.689   2.268 -1.0516 -2.3998  0.3377
   31MOL   O102 6162   5.452   5.785   2.229 -0.1574  0.5959  0.0642
   31MOL   C103 6163   5.376   5.673   2.192  0.0694  0.0611  0.2095
   31MOL   C104 6164   5.259   5.715   2.105 -0.2822 -0.2370 -0.5309
   31MOL   C105 6165   5.168   5.597   2.078  0.1269 -0.3140 -0.4452
   31MOL   H106 6166   5.348   5.638   2.291  0.6047  1.1878  0.7683
   31MOL   H107 6167   5.445   5.599   2.150  1.5149  0.7340  1.3489
   31MOL   H108 6168   5.202   5.790   2.160 -2.6070 -1.6370 -0.9463
   31MOL   H109 6169   5.293   5.766   2.015  1.6869  0.4362  0.5478
   31MOL   H110 6170   5.138   5.543   2.168 -0.3250  1.1293  0.2750
   31MOL   H111 6171   5.211   5.527   2.006  1.2131 -1.2192  1.0691
   31MOL   O112 6172   5.047   5.640   2.022  0.0810 -0.1727 -0.1506
   31MOL   C113 6173   4.982   5.547   1.937 -0.2077 -0.2599  0.1373
   31MOL   C114 6174   4.874   5.616   1.855 -0.6157  0.4084 -0.4771
   31MOL   C115 6175   4.932   5.695   1.741  0.4689 -0.0474 -0.3698
   31MOL   H116 6176   4.939   5.466   1.996 -0.7703  1.6553  2.4321
   31MOL   H117 6177   5.056   5.495   1.877  0.1413 -0.3764  0.6664
   31MOL   H118 6178   4.796   5.546   1.825  0.0835 -0.7917  0.4363
   31MOL   H119 6179   4.815   5.677   1.924 -0.0497 -0.5674  0.9054
   31MOL   H120 6180   4.986   5.627   1.674  1.7058 -0.6646  1.2254
   31MOL   H121 6181   5.006   5.771   1.764  0.2366  0.1333 -0.2254
   31MOL   O122 6182   4.833   5.752   1.666  0.4500  0.4934 -0.2836
   31MOL   C123 6183   4.879   5.807   1.546 -1.0641  0.1448 -0.4312
   31MOL   C124 6184   4.762   5.852   1.455 -0.3186  0.3747  0.3299
   31MOL   C125 6185   4.810   5.923   1.327 -0.6469 -0.1488  0.0325
   31MOL   H126 6186   4.948   5.745   1.489 -0.5779 -1.5452  1.9168
   31MOL   H127 6187   4.941   5.895   1.561  2.4488 -1.8209 -2.5430
   31MOL   H128 6188   4.700   5.763   1.440  0.8929 -0.5796  0.8999
   31MOL   H129 6189   4.710   5.929   1.513 -1.0848 -1.0440  1.5987
   31MOL   H130 6190   4.875   5.863   1.263 -1.0403 -2.3679  1.6700
   31MOL   H131 6191   4.876   6.005   1.355  0.0608 -1.0621  1.0833
   31MOL   O132 6192   4.700   5.971   1.248 -0.0258  0.3327 -0.5351
   31MOL   C133 6193   4.728   6.017   1.116  0.0615  0.1620 -1.2999
   31MOL   C134 6194   4.777   6.172   1.117 -0.2243  1.0531 -0.0296
   31MOL   C135 6195   4.786   6.233   0.974  0.0284 -0.6113 -0.6402
   31MOL   H136 6196   4.633   6.010   1.062 -0.4302  0.3695 -0.4829
   31MOL   H137 6197   4.797   5.958   1.056  0.9674  0.0781 -0.1833
   31MOL   H138 6198   4.710   6.221   1.188  1.9916  1.0108  2.1307
   31MOL   H139 6199   4.877   6.175   1.160  0.5739 -0.9987 -1.6378
   31MOL   H140 6200   4.789   6.341   0.985 -1.2371 -0.5282 -1.0259
   31MOL   H141 6201   4.701   6.216   0.908 -1.0832  2.2922 -0.0229
   31MOL   O142 6202   4.894   6.181   0.900  0.3835 -0.1595  0.5195
   31MOL   C143 6203   4.898   6.213   0.759 -0.2270  0.6188 -0.1613
   31MOL   C144 6204   4.901   6.358   0.735  0.3667  0.2300  0.4251
   31MOL   C145 6205   5.021   6.420   0.811 -0.1846 -0.7926 -0.1169
   31MOL   H146 6206   4.808   6.178   0.708 -0.1415 -0.7139  0.5574
   31MOL   H147 6207   4.986   6.170   0.711  0.7525  2.9853 -0.5338
   31MOL   H148 6208   4.915   6.380   0.630 -1.1243  1.3342  0.4352
   31MOL   H149 6209   4.815   6.416   0.769  0.3322  0.2932  0.2307
   31MOL   H150 6210   5.109   6.355   0.812  1.3240  1.1129 -2.8442
   31MOL   H151 6211   5.002   6.428   0.918 -0.6589 -1.9731 -0.0982
   31MOL   O152 6212   5.057   6.542   0.760 -0.0912 -0.1181 -0.3944
   31MOL   C153 6213   5.146   6.618   0.850 -0.1959 -0.2751 -0.3591
   31MOL   C154 6214   5.231   6.716   0.763  0.6868 -0.3150  1.2784
   31MOL   C155 6215   5.343   6.790   0.841  0.7201  0.1801  0.9561
   31MOL   H156 6216   5.217   6.547   0.894 -0.3161  0.4527  1.0562
   31MOL   H157 6217   5.083   6.677   0.917  3.3480 -0.2469  3.1199
   31MOL   H158 6218   5.265   6.673   0.668 -0.3304  0.0410  0.7414
   31MOL   H159 6219   5.168   6.799   0.730  1.0863 -0.0125  1.2740
   31MOL   H160 6220   5.408   6.829   0.763 -0.0992 -2.9668 -1.3885
   31MOL   H161 6221   5.403   6.715   0.893  0.1677 -1.0422 -0.1333
   31MOL   O162 6222   5.302   6.885   0.940  0.2712 -0.2762 -0.5263
   31MOL   C163 6223   5.418   6.954   0.990  0.0605 -0.1911 -0.9726
   31MOL   C164 6224   5.372   7.097   1.010 -0.6260  0.6517  0.3761
   31MOL   C165 6225   5.246   7.125   1.080  0.1236 -0.4094  0.0519
   31MOL   H166 6226   5.505   6.952   0.923  1.3386  0.0583  0.6365
   31MOL   H167 6227   5.458   6.905   1.078  1.5455 -0.4890 -1.7884
   31MOL   H168 6228   5.459   7.141   1.058  0.3072 -2.3589  1.5656
   31MOL   H169 6229   5.368   7.158   0.920  2.8257 -0.4252 -0.5713
   31MOL   H170 6230   5.240   7.070   1.174  0.4604  3.1193  2.2222
   31MOL   H171 6231   5.164   7.104   1.011 -0.4201 -0.1015  0.5927
   31MOL   O172 6232   5.223   7.267   1.111  0.6575  0.5073  0.1791
   31MOL   C173 6233   5.097   7.289   1.174  0.3180  0.3766 -0.1695
   31MOL   C174 6234   5.086   7.447   1.197  0.5144  0.1120  0.3467
   31MOL   C175 6235   5.186   7.497   1.302  0.2483 -1.0620  0.8141
   31MOL   H176 6236   5.094   7.226   1.262  0.4517 -0.2172 -0.5891
   31MOL   H177 6237   5.029   7.248   1.099 -1.0950  1.9201  0.2375
   31MOL   H178 6238   5.113   7.492   1.102  1.4069  0.4518  0.7468
   31MOL   H179 6239   4.992   7.478   1.243  0.3621 -0.0121  0.1140
   31MOL   H180 6240   5.289   7.480   1.270 -0.7451 -1.9745 -2.0593
   31MOL   H181 6241   5.173   7.438   1.392 -0.6188 -3.0532 -0.5842
   31MOL   O182 6242   5.166   7.633   1.339 -0.3029  0.8108  0.0070
   31MOL   C183 6243   5.232   7.722   1.247  0.1500  0.2312 -0.2282
   31MOL   C184 6244   5.264   0.053   1.337  0.8104 -0.4182  1.1371
   31MOL   C185 6245   5.390   0.030   1.423  0.1507 -0.0019  0.2817
   31MOL   H186 6246   5.169   7.750   1.162  1.7042 -0.0317 -1.4834
   31MOL   H187 6247   5.327   7.683   1.211 -0.6660 -1.5327 -0.5576
   31MOL   H188 6248   5.280   0.134   1.266 -1.9413 -1.0945 -0.3215
   31MOL   H189 6249   5.171   0.078   1.388 -0.0722 -0.2831 -0.4937
   31MOL   H190 6250   5.376   7.732   1.487 -1.7920  0.2665  0.2406
   31MOL   H191 6251   5.416   0.112   1.491 -0.0111  2.0282 -2.0449
   31MOL   O192 6252   5.498   0.018   1.323  0.3892 -0.6183  0.4884
   31MOL   C193 6253   5.613   7.757   1.387 -0.5237  1.3645 -0.0058
   31MOL   C194 6254   5.709   7.720   1.277 -0.0035 -0.2173  0.3867
   31MOL   C195 6255   5.846   7.664   1.321  0.3403 -0.6605  0.3317
   31MOL   H196 6256   5.590   7.678   1.459 -2.1546  1.4831 -0.3827
   31MOL   H197 6257   5.664   0.045   1.445 -0.7155  0.3540  1.5134
   31MOL   H198 6258   5.673   7.642   1.210 -1.1650 -1.0434  1.9369
   31MOL   H199 6259   5.726   0.017   1.211  2.0281 -0.1123  1.0083
   31MOL   H200 6260   5.897   7.747   1.371 -1.4633 -0.1230  1.3289
   31MOL   H201 6261   5.902   7.642   1.230  0.2675  0.5650 -0.0260
   31MOL   H202 6262   5.840   7.576   1.385  0.1512 -1.1195 -0.3210
   32MOL     O1 6263   4.243   1.726   7.296 -0.1191  0.3565  0.0334
   32MOL     C2 6264   4.115   1.775   7.309  0.8565  0.3110 -0.6541
   32MOL     C3 6265   4.024   1.662   7.337  0.4558  0.0734  0.1732
   32MOL     C4 6266   3.870   1.696   7.347 -0.4258 -0.5521  0.0175
   32MOL     H5 6267   4.082   1.828   7.220 -0.6046 -2.1184 -1.6173
   32MOL     H6 6268   4.125   1.853   7.384  2.3863  1.0120 -1.5626
   32MOL     H7 6269   4.022   1.601   7.247  1.1942  1.7974 -1.0357
   32MOL     H8 6270   4.053   1.603   7.424  1.3528  0.4412  0.1339
   32MOL     H9 6271   3.820   1.759   7.272 -2.9598 -1.0028  1.2596
   32MOL    H10 6272   3.855   1.755   7.438  2.0545 -2.0287  1.4191
   32MOL    H11 6273   4.270   1.723   7.387 -1.1151  0.9048  0.3567
   32MOL    O12 6274   3.800   1.573   7.370 -0.3675 -0.3505 -0.6383
   32MOL    C13 6275   3.665   1.595   7.401  0.9100 -0.1585  0.0041
   32MOL    C14 6276   3.607   1.465   7.448 -0.2707  0.5691  0.7216
   32MOL    C15 6277   3.621   1.344   7.354 -0.5839  0.4181 -0.7065
   32MOL    H16 6278   3.623   1.620   7.304  0.2669  0.8484  0.5271
   32MOL    H17 6279   3.657   1.680   7.469 -0.4531 -2.3912  2.7266
   32MOL    H18 6280   3.643   1.447   7.549  1.6114  2.6327  0.4582
   32MOL    H19 6281   3.501   1.474   7.471 -0.8380 -1.7596 -0.8032
   32MOL    H20 6282   3.722   1.306   7.339 -0.3723  0.6004  0.2550
   32MOL    H21 6283   3.591   1.371   7.252 -1.1896  0.8233 -0.4233
   32MOL    O22 6284   3.538   1.242   7.394  0.1703 -0.0946  0.3245
   32MOL    C23 6285   3.515   1.131   7.302  0.6578 -0.3477 -0.0571
   32MOL    C24 6286   3.430   1.028   7.371  0.1872 -0.2189  0.7827
   32MOL    C25 6287   3.291   1.082   7.398  0.2996 -0.4037 -0.1135
   32MOL    H26 6288   3.612   1.084   7.280  0.3249 -0.7632 -0.6636
   32MOL    H27 6289   3.481   1.180   7.211  0.1243  0.0132  0.3391
   32MOL    H28 6290   3.414   0.936   7.315  0.4843 -0.3771  0.9576
   32MOL    H29 6291   3.467   0.995   7.468  0.3313 -2.2894  0.0513
   32MOL    H30 6292   3.253   1.122   7.304  3.1777 -0.9080 -1.5587
   32MOL    H31 6293   3.290   1.152   7.481  1.2946  0.2861 -0.6757
   32MOL    O32 6294   3.210   0.975   7.439  0.0687  0.6170 -0.1191
   32MOL    C33 6295   3.076   1.028   7.473 -0.3319 -0.3628  0.3587
   32MOL    C34 6296   2.972   0.915   7.499  0.3425 -0.3522  0.2822
   32MOL    C35 6297   2.967   0.793   7.397  0.0447  0.1583 -0.6172
   32MOL    H36 6298   3.039   1.094   7.395  0.3951 -0.1219  0.2112
   32MOL    H37 6299   3.088   1.086   7.565 -2.2680  0.1656  0.2956
   32MOL    H38 6300   3.026   0.882   7.587  0.1693 -2.9813 -0.5555
   32MOL    H39 6301   2.873   0.952   7.527 -0.5193 -1.4604 -1.2083
   32MOL    H40 6302   3.070   0.772   7.369  1.5807  3.5380  2.1260
   32MOL    H41 6303   2.908   0.808   7.306  0.9270  0.4643 -1.1476
   32MOL    O42 6304   2.900   0.683   7.460  0.1978 -0.0526  0.1473
   32MOL    C43 6305   2.932   0.554   7.411 -0.0914  0.1604 -0.9541
   32MOL    C44 6306   2.841   0.457   7.474  0.2702 -0.0779 -0.5511
   32MOL    C45 6307   2.866   0.309   7.456  0.0359  0.1108 -0.1453
   32MOL    H46 6308   3.037   0.540   7.437  0.1487  0.8546 -1.5166
   32MOL    H47 6309   2.914   0.540   7.304 -2.8541 -0.6379 -0.4366
   32MOL    H48 6310   2.841   0.466   7.583 -0.5509 -2.7721 -0.2828
   32MOL    H49 6311   2.743   0.464   7.426  0.1166 -1.1577 -0.4006
   32MOL    H50 6312   2.876   0.285   7.350 -0.1731  0.0586 -0.1539
   32MOL    H51 6313   2.787   0.258   7.510 -0.1340 -0.0666 -0.5638
   32MOL    O52 6314   2.983   0.265   7.527 -0.1037  0.3342  0.4352
   32MOL    C53 6315   2.990   0.128   7.558 -0.4039 -0.2035  0.1072
   32MOL    C54 6316   3.131   0.092   7.600  0.1149  0.4249  0.4504
   32MOL    C55 6317   3.175   0.130   7.742  0.2205 -0.5292 -0.7558
   32MOL    H56 6318   2.968   0.086   7.460  0.5854  1.4686 -0.8669
   32MOL    H57 6319   2.912   0.110   7.632 -0.8032  0.4613 -0.1408
   32MOL    H58 6320   3.138   7.772   7.593 -0.8088  0.3883 -0.0654
   32MOL    H59 6321   3.208   0.124   7.530 -0.0326 -1.1482 -0.4615
   32MOL    H60 6322   3.112   0.074   0.023  0.1507  1.6385  0.9839
   32MOL    H61 6323   3.148   0.232   7.770  1.6034 -0.1851 -0.6741
   32MOL    O62 6324   3.317   0.107   7.766 -0.0796  0.0193  0.0375
   32MOL    C63 6325   3.347   0.050   0.105  0.1593 -0.7211  0.4728
   32MOL    C64 6326   3.494   0.008   0.104 -0.0112 -0.2010  0.6321
   32MOL    C65 6327   3.554   7.765   0.240 -0.4935 -0.1727 -0.3348
   32MOL    H66 6328   3.281   7.755   0.129  1.0656 -0.8486  2.6778
   32MOL    H67 6329   3.336   0.125   0.183 -0.0487  1.0167 -1.1924
   32MOL    H68 6330   3.493   7.702   0.048  1.9268 -0.0299  0.2811
   32MOL    H69 6331   3.562   0.064   0.040  1.0675 -2.2663 -0.0907
   32MOL    H70 6332   3.652   7.719   0.229 -1.0176 -1.3678 -0.1066
   32MOL    H71 6333   3.485   7.693   0.284  0.3102 -1.7471 -1.6066
   32MOL    O72 6334   3.566   0.096   0.323  0.2766  0.3329 -0.3217
   32MOL    C73 6335   3.635   0.057   0.435 -0.9687  0.2288  0.2165
   32MOL    C74 6336   3.625   0.172   0.529 -0.1086 -0.0582  0.1361
   32MOL    C75 6337   3.691   0.148   0.670  0.4772 -0.4138  0.2818
   32MOL    H76 6338   3.738   0.033   0.409 -0.8357  3.0084 -2.0468
   32MOL    H77 6339   3.576   7.767   0.483 -0.0202 -1.7042 -1.7172
   32MOL    H78 6340   3.676   0.260   0.490 -1.7182  0.8145 -0.0808
   32MOL    H79 6341   3.523   0.207   0.544 -0.1224 -0.4079  0.8808
   32MOL    H80 6342   3.795   0.121   0.652  1.0874  1.7381  0.4332
   32MOL    H81 6343   3.638   0.060   0.708  2.5412 -1.3159  1.1752
   32MOL    O82 6344   3.676   0.259   0.758 -0.1658  0.2562  1.0201
   32MOL    C83 6345   3.724   0.244   0.888 -0.0826 -0.0993  0.3873
   32MOL    C84 6346   3.637   0.153   0.976 -0.3945 -0.0592  0.3188
   32MOL    C85 6347   3.501   0.213   1.001 -0.1643  0.0729 -0.4167
   32MOL    H86 6348   3.725   0.338   0.942 -3.1056  0.3961 -0.3055
   32MOL    H87 6349   3.824   0.201   0.883 -0.5161 -1.1950  0.9303
   32MOL    H88 6350   3.633   0.049   0.942 -2.2612 -0.1048  0.6318
   32MOL    H89 6351   3.688   0.156   1.072  1.1218  0.8568 -0.4947
   32MOL    H90 6352   3.451   0.225   0.904  1.2055 -0.1343 -1.1648
   32MOL    H91 6353   3.506   0.316   1.037  0.7173 -0.0199 -0.2853
   32MOL    O92 6354   3.428   0.148   1.104  0.2718  0.2079 -0.3349
   32MOL    C93 6355   3.284   0.169   1.082 -0.3326  0.2438  0.4029
   32MOL    C94 6356   3.205   0.071   1.176 -0.5638  0.0225  0.4078
   32MOL    C95 6357   3.231   7.712   1.150 -0.2821 -0.1674 -0.2063
   32MOL    H96 6358   3.244   0.152   0.982  1.4909  0.0641 -0.3266
   32MOL    H97 6359   3.250   0.269   1.111  1.8251  2.0194 -2.9007
   32MOL    H98 6360   3.214   0.096   1.282 -1.3917  0.6206  0.3465
   32MOL    H99 6361   3.097   0.085   1.170 -0.6612 -1.2963 -1.4491
   32MOL   H100 6362   3.236   7.647   1.238  2.8008  0.2140 -0.0521
   32MOL   H101 6363   3.332   7.701   1.111 -0.1276 -0.8436  0.3684
   32MOL   O102 6364   3.139   7.673   1.052  0.5544 -0.0884 -0.0825
   32MOL   C103 6365   3.017   7.612   1.094 -0.1738 -0.0910 -0.0493
   32MOL   C104 6366   2.937   7.568   0.976  0.3123 -0.3750  0.6020
   32MOL   C105 6367   2.971   7.435   0.912 -0.0069 -0.3633 -0.6434
   32MOL   H106 6368   2.949   7.678   1.147  0.5416  2.4283 -2.1664
   32MOL   H107 6369   3.045   7.523   1.151 -1.0010  0.1235  0.7078
   32MOL   H108 6370   2.837   7.564   1.019  0.0587  0.7999  0.1562
   32MOL   H109 6371   2.940   7.655   0.910  0.1738  0.2052  1.3547
   32MOL   H110 6372   2.995   7.364   0.992 -1.2483 -1.3189 -1.1043
   32MOL   H111 6373   3.060   7.432   0.848  1.8061  0.0326  1.7833
   32MOL   O112 6374   2.861   7.383   0.837  0.4207 -0.1222 -0.4195
   32MOL   C113 6375   2.883   7.248   0.794  0.8124 -0.3326 -0.2240
   32MOL   C114 6376   2.780   7.203   0.680 -0.4951  0.8836 -0.1525
   32MOL   C115 6377   2.827   7.077   0.598 -0.2008  0.9796  0.6178
   32MOL   H116 6378   2.874   7.192   0.887 -0.9791 -0.4664 -0.4649
   32MOL   H117 6379   2.986   7.235   0.762  0.7573  0.8071 -0.9224
   32MOL   H118 6380   2.682   7.177   0.721 -0.9612  0.6401 -1.4000
   32MOL   H119 6381   2.774   7.282   0.605  1.5712 -0.0313 -1.2912
   32MOL   H120 6382   2.813   6.988   0.658  1.4993  0.2940  0.0367
   32MOL   H121 6383   2.929   7.077   0.558 -1.1151 -0.7870 -1.8160
   32MOL   O122 6384   2.737   7.077   0.490 -0.0970 -0.4194  0.5629
   32MOL   C123 6385   2.736   6.950   0.432 -0.3805  0.4568 -0.8002
   32MOL   C124 6386   2.703   6.956   0.283  0.8348 -0.5062 -0.3304
   32MOL   C125 6387   2.828   6.960   0.190 -0.6122  0.4319 -0.1649
   32MOL   H126 6388   2.660   6.890   0.481  0.6974  1.2476  1.9165
   32MOL   H127 6389   2.828   6.893   0.446 -0.9191 -0.2358 -0.0253
   32MOL   H128 6390   2.650   6.864   0.258 -0.8557  0.3051  0.1870
   32MOL   H129 6391   2.639   7.041   0.264  2.6698  0.7259 -1.1219
   32MOL   H130 6392   2.859   6.855   0.186 -1.0656  0.2588  0.6173
   32MOL   H131 6393   2.912   7.007   0.242 -1.3719  1.3040  0.2811
   32MOL   O132 6394   2.793   7.011   0.062  0.1132  0.5239 -0.0758
   32MOL   C133 6395   2.905   7.018   7.771 -0.6388  0.0760 -0.3732
   32MOL   C134 6396   2.876   7.080   7.633 -0.1896 -0.2587 -1.0114
   32MOL   C135 6397   3.000   7.100   7.551  0.3279 -0.3754 -0.1274
   32MOL   H136 6398   2.937   6.915   7.755 -1.0449  0.0415 -0.9567
   32MOL   H137 6399   2.993   7.070   0.022 -0.8256  0.8250 -0.9305
   32MOL   H138 6400   2.806   7.018   7.578 -1.4149 -0.8248  1.1094
   32MOL   H139 6401   2.826   7.176   7.641  0.1382 -0.1224 -0.5661
   32MOL   H140 6402   3.061   7.011   7.571 -1.6423 -1.6008  0.6518
   32MOL   H141 6403   3.063   7.174   7.600 -1.1258 -0.6099  2.1838
   32MOL   O142 6404   2.979   7.119   7.411 -0.2373  0.1284  0.1769
   32MOL   C143 6405   3.069   7.044   7.328  0.7780 -0.0223  0.0105
   32MOL   C144 6406   3.003   7.026   7.188 -0.0045  0.4396  0.0634
   32MOL   C145 6407   3.075   6.941   7.090  0.4803 -0.3258  0.4012
   32MOL   H146 6408   3.094   6.945   7.367  1.5940  0.6210  1.1397
   32MOL   H147 6409   3.165   7.096   7.328  0.5468  0.4418  2.5237
   32MOL   H148 6410   2.898   6.998   7.188  0.2912 -0.6864  0.4690
   32MOL   H149 6411   3.007   7.125   7.141 -0.5357  0.9181  0.9913
   32MOL   H150 6412   3.027   6.919   6.995 -0.3620 -2.6098  1.3214
   32MOL   H151 6413   3.089   6.845   7.141 -0.2495 -0.3106  0.6306
   32MOL   O152 6414   3.207   6.986   7.064 -0.8929  0.6009 -0.4891
   32MOL   C153 6415   3.225   7.060   6.946 -0.0410  0.3491  0.3295
   32MOL   C154 6416   3.355   7.132   6.960 -0.1358 -0.1871 -0.2749
   32MOL   C155 6417   3.387   7.239   6.855  0.4009 -0.3127  0.7228
   32MOL   H156 6418   3.138   7.125   6.934 -1.6802 -2.0058 -0.9487
   32MOL   H157 6419   3.231   6.998   6.856  1.7755 -0.8918  1.2737
   32MOL   H158 6420   3.370   7.182   7.056 -4.3878  2.1064 -0.6843
   32MOL   H159 6421   3.420   7.046   6.945 -1.2105 -1.0689  0.0569
   32MOL   H160 6422   3.320   7.321   6.880 -0.3021 -0.7523  0.2879
   32MOL   H161 6423   3.355   7.198   6.759  0.3766  0.8127  0.2435
   32MOL   O162 6424   3.529   7.277   6.856  0.2766 -0.2121 -0.3575
   32MOL   C163 6425   3.555   7.400   6.793  0.2609  0.6821  0.2065
   32MOL   C164 6426   3.712   7.430   6.787  0.5226  0.6493  0.1992
   32MOL   C165 6427   3.779   7.421   6.925 -0.1470 -0.3618  0.0177
   32MOL   H166 6428   3.504   7.481   6.845  0.7566  0.8878  0.3717
   32MOL   H167 6429   3.501   7.400   6.698  0.0141  2.0817  0.3403
   32MOL   H168 6430   3.753   7.354   6.721 -0.5492  1.6594 -1.6858
   32MOL   H169 6431   3.727   7.525   6.735  0.8317  0.4646 -0.0525
   32MOL   H170 6432   3.883   7.441   6.903 -0.5488  0.6957 -0.9866
   32MOL   H171 6433   3.761   7.322   6.966  0.1818 -0.1056  0.7944
   32MOL   O172 6434   3.723   7.522   7.014 -0.4204  0.7009 -0.4133
   32MOL   C173 6435   3.697   7.489   7.146 -0.3733 -0.3698  0.0374
   32MOL   C174 6436   3.650   7.613   7.228 -0.2439  0.3408 -0.0380
   32MOL   C175 6437   3.674   7.605   7.377  0.0928 -0.1637 -0.6098
   32MOL   H176 6438   3.798   7.459   7.177  0.1057  1.5136  0.4222
   32MOL   H177 6439   3.631   7.403   7.143 -2.0805  0.9285 -0.7172
   32MOL   H178 6440   3.722   7.693   7.206 -0.3910  0.1305 -1.3366
   32MOL   H179 6441   3.551   7.643   7.194 -0.3265  0.2052  0.0846
   32MOL   H180 6442   3.775   7.566   7.395 -0.3134 -0.3718  1.3807
   32MOL   H181 6443   3.599   7.533   7.412 -0.0061  0.5427  0.6790
   32MOL   O182 6444   3.647   7.726   7.451  0.3976  0.0257 -0.4575
   32MOL   C183 6445   3.524   0.015   7.434 -0.5010  0.2639  0.1134
   32MOL   C184 6446   3.552   0.155   7.488  0.2612 -0.2610 -0.0631
   32MOL   C185 6447   3.657   0.240   7.413  0.3921  0.5124  0.5733
   32MOL   H186 6448   3.446   7.744   7.483 -0.1625 -0.2846 -0.0104
   32MOL   H187 6449   3.491   0.013   7.330 -1.7569  0.1833  0.4949
   32MOL   H188 6450   3.457   0.209   7.487 -0.1701 -1.0174 -0.2708
   32MOL   H189 6451   3.585   0.172   7.590 -1.3182  0.0202  0.4107
   32MOL   H190 6452   3.638   0.343   7.443 -0.2721  0.3643  0.6594
   32MOL   H191 6453   3.645   0.240   7.305 -0.6531 -2.9066  0.6341
   32MOL   O192 6454   3.795   0.205   7.449  0.3495  0.2704 -0.3178
   32MOL   C193 6455   3.887   0.296   7.395 -0.5238 -0.2528  0.2177
   32MOL   C194 6456   4.031   0.245   7.442 -0.2866  0.1355 -0.0168
   32MOL   C195 6457   4.158   0.326   7.398  0.2466  0.2724 -0.7104
   32MOL   H196 6458   3.860   0.396   7.428  0.8350  0.1926  0.0406
   32MOL   H197 6459   3.872   0.304   7.287  1.0171 -2.6060 -0.2150
   32MOL   H198 6460   4.022   0.210   7.545  2.7306 -3.6086 -0.8884
   32MOL   H199 6461   4.033   0.157   7.378 -1.4298  0.8453 -1.0422
   32MOL   H200 6462   4.185   0.298   7.296 -1.8635 -0.7313 -1.0331
   32MOL   H201 6463   4.236   0.311   7.472 -0.8501  1.0713  0.6273
   32MOL   H202 6464   4.138   0.433   7.390 -0.8282  0.1488  0.1609
   33MOL     O1 6465   1.053   4.536   2.440  0.1109 -0.6968 -0.1495
   33MOL     C2 6466   0.996   4.436   2.526 -0.5496  0.6506 -0.2363
   33MOL     C3 6467   0.924   4.320   2.459 -0.1926  0.4616 -0.5094
   33MOL     C4 6468   0.799   4.375   2.383  0.1890 -0.0012 -0.3800
   33MOL     H5 6469   0.930   4.483   2.599 -0.0840  1.7579 -0.5122
   33MOL     H6 6470   1.080   4.392   2.580  0.3374  2.0766 -0.4162
   33MOL     H7 6471   0.991   4.255   2.403 -0.2982  0.4696 -0.6459
   33MOL     H8 6472   0.879   4.260   2.538 -1.2807  2.4712  0.4545
   33MOL     H9 6473   0.832   4.422   2.290  0.2620 -1.1466 -0.9423
   33MOL    H10 6474   0.735   4.440   2.442 -1.2970 -2.0228  0.2942
   33MOL    H11 6475   1.119   4.587   2.485  1.1285 -0.9848 -1.2875
   33MOL    O12 6476   0.722   4.268   2.331  0.3060  0.1184  0.5785
   33MOL    C13 6477   0.616   4.308   2.233  0.1483 -0.3211  0.3654
   33MOL    C14 6478   0.528   4.185   2.213  0.0240 -0.2827  0.1119
   33MOL    C15 6479   0.413   4.229   2.117 -0.3669  0.2860  0.4202
   33MOL    H16 6480   0.657   4.354   2.144  3.1982 -2.6993  0.4525
   33MOL    H17 6481   0.574   4.398   2.279  3.2523  1.8117 -0.8393
   33MOL    H18 6482   0.581   4.103   2.166  2.2898  0.4613  1.2753
   33MOL    H19 6483   0.487   4.145   2.306 -1.4379  2.6115  0.7574
   33MOL    H20 6484   0.447   4.260   2.018  1.5549  0.1606  1.0253
   33MOL    H21 6485   0.368   4.315   2.167 -1.9691  0.3552 -1.0995
   33MOL    O22 6486   0.311   4.130   2.109 -0.0890  0.8136 -0.5950
   33MOL    C23 6487   0.209   4.174   2.023  0.4460 -0.5463  1.0392
   33MOL    C24 6488   0.074   4.123   2.073  0.1680 -0.2287  0.2624
   33MOL    C25 6489   7.782   4.238   2.148  0.6010 -0.5517 -0.4780
   33MOL    H26 6490   0.224   4.146   1.918  0.9790  2.7922  0.1614
   33MOL    H27 6491   0.205   4.283   2.023  2.1070 -0.4673  3.1161
   33MOL    H28 6492   0.014   4.083   1.992  0.4814  1.7608 -0.9794
   33MOL    H29 6493   0.077   4.039   2.143  3.5700 -0.1195  0.3311
   33MOL    H30 6494   0.060   4.291   2.217 -0.2098  0.0442 -0.1512
   33MOL    H31 6495   7.697   4.191   2.198  0.5265  0.3048  0.1996
   33MOL    O32 6496   7.734   4.326   2.045  0.0033  0.3047  0.1912
   33MOL    C33 6497   7.632   4.421   2.078  0.2050 -0.1555  0.2707
   33MOL    C34 6498   7.582   4.509   1.963  0.0493 -0.0984 -0.1644
   33MOL    C35 6499   7.522   4.630   2.022  0.0617 -0.2413  0.4904
   33MOL    H36 6500   7.677   4.477   2.160  1.5723 -0.9348  0.0701
   33MOL    H37 6501   7.542   4.382   2.125  0.4630  0.2958  1.1635
   33MOL    H38 6502   7.657   4.544   1.892 -1.4168  1.8223 -0.8046
   33MOL    H39 6503   7.515   4.455   1.897 -0.0965  0.6467 -0.6320
   33MOL    H40 6504   7.596   4.679   2.085 -0.2211 -2.5615  2.6973
   33MOL    H41 6505   7.428   4.610   2.073 -1.0136  2.2290 -0.4229
   33MOL    O42 6506   7.470   4.700   1.913 -0.1610 -0.2833 -0.4860
   33MOL    C43 6507   7.426   4.832   1.937  0.3706  0.4730 -0.0459
   33MOL    C44 6508   7.397   4.910   1.802  0.5031  0.4447  0.2599
   33MOL    C45 6509   7.364   5.055   1.833  0.6063  0.4237 -0.3851
   33MOL    H46 6510   7.507   4.886   1.987 -1.1148  2.9469 -0.2283
   33MOL    H47 6511   7.336   4.847   1.997 -0.3850  0.0651 -1.0807
   33MOL    H48 6512   7.478   4.909   1.730  0.3719  3.5482  0.0240
   33MOL    H49 6513   7.320   4.863   1.742  0.8341  2.6629 -1.9576
   33MOL    H50 6514   7.340   5.107   1.740  0.5061  0.9681 -0.0559
   33MOL    H51 6515   7.447   5.118   1.865 -0.9250  3.4067 -2.0691
   33MOL    O52 6516   7.264   5.071   1.927  1.2108 -0.3831  0.2992
   33MOL    C53 6517   7.210   5.203   1.935 -0.5577  0.3740 -0.2630
   33MOL    C54 6518   7.105   5.217   2.047 -0.8996  0.1998  1.0341
   33MOL    C55 6519   6.998   5.335   2.034 -0.0284  0.0506  0.9626
   33MOL    H56 6520   7.165   5.234   1.841  1.2054 -0.3476 -1.3714
   33MOL    H57 6521   7.286   5.281   1.936 -2.0407  1.9698 -3.3687
   33MOL    H58 6522   7.046   5.125   2.043 -1.9157  0.9096 -0.9977
   33MOL    H59 6523   7.152   5.222   2.145 -1.5580 -0.0147  1.3614
   33MOL    H60 6524   6.946   5.350   2.128  0.8951  1.9447  1.2019
   33MOL    H61 6525   6.922   5.315   1.958  2.6989  1.3230 -2.2435
   33MOL    O62 6526   7.054   5.457   1.998  0.0270  0.3196  0.0852
   33MOL    C63 6527   6.958   5.560   1.982 -0.1922 -0.1004  0.6010
   33MOL    C64 6528   7.031   5.689   1.935 -0.2917 -0.4900 -0.0903
   33MOL    C65 6529   7.144   5.728   2.026 -0.3185 -0.0261 -0.5513
   33MOL    H66 6530   6.908   5.583   2.077  0.5265  2.1602  0.4673
   33MOL    H67 6531   6.881   5.543   1.907 -0.2726  2.1612  0.1223
   33MOL    H68 6532   7.075   5.675   1.836 -0.6815  1.6558 -0.6052
   33MOL    H69 6533   6.949   5.761   1.940 -0.4552 -0.6576 -0.2887
   33MOL    H70 6534   7.211   5.804   1.985 -1.3848  1.7669  0.9497
   33MOL    H71 6535   7.201   5.636   2.036 -0.0468  0.3646  1.6356
   33MOL    O72 6536   7.097   5.774   2.152  0.6899 -0.6865 -0.4971
   33MOL    C73 6537   7.201   5.795   2.253  0.3002  0.5352 -0.7738
   33MOL    C74 6538   7.199   5.686   2.357  0.1615 -0.5641 -0.3742
   33MOL    C75 6539   7.247   5.545   2.309 -0.6271 -0.6704 -0.8138
   33MOL    H76 6540   7.192   5.895   2.296 -1.0016 -0.0906  0.4739
   33MOL    H77 6541   7.305   5.779   2.224  1.1941  0.7236  2.2065
   33MOL    H78 6542   7.264   5.716   2.438 -1.2928 -1.6867  1.2382
   33MOL    H79 6543   7.099   5.678   2.400 -0.9011 -3.7814 -3.1616
   33MOL    H80 6544   7.352   5.546   2.279  0.1155 -0.6541  1.6704
   33MOL    H81 6545   7.193   5.515   2.219 -2.2874 -1.9227  0.5663
   33MOL    O82 6546   7.246   5.456   2.422  0.6179  0.1080 -0.1080
   33MOL    C83 6547   7.323   5.337   2.398 -0.2854  0.0462  0.4250
   33MOL    C84 6548   7.294   5.237   2.505 -0.5440 -0.5614 -0.2688
   33MOL    C85 6549   7.404   5.126   2.498  0.2067 -0.1204 -0.4977
   33MOL    H86 6550   7.423   5.380   2.400  0.4010 -1.4733 -0.2374
   33MOL    H87 6551   7.308   5.292   2.300 -0.0666 -1.6629  1.1593
   33MOL    H88 6552   7.282   5.281   2.603  0.7991  0.0515 -0.3682
   33MOL    H89 6553   7.197   5.196   2.477 -0.7138 -2.0455  2.3171
   33MOL    H90 6554   7.487   5.162   2.558 -0.4714  1.1048 -0.2676
   33MOL    H91 6555   7.429   5.121   2.392 -2.5711  0.4275 -1.2253
   33MOL    O92 6556   7.359   4.999   2.550  0.2646  0.5878  0.1265
   33MOL    C93 6557   7.366   4.982   2.694 -0.0967  0.2497  0.1471
   33MOL    C94 6558   7.308   4.851   2.747 -0.5872 -0.2597 -0.3251
   33MOL    C95 6559   7.289   4.843   2.902 -1.0655  0.7222  0.3886
   33MOL    H96 6560   7.330   5.075   2.737  0.0936  0.3136  0.1708
   33MOL    H97 6561   7.472   4.984   2.720 -0.2747  0.8224  0.8369
   33MOL    H98 6562   7.207   4.838   2.710 -0.3058 -1.7287 -0.5730
   33MOL    H99 6563   7.365   4.764   2.716  0.0618  0.0589 -0.0419
   33MOL   H100 6564   7.194   4.883   2.936 -1.9663  0.4335 -1.6660
   33MOL   H101 6565   7.361   4.902   2.959 -0.9233  0.6280  0.3089
   33MOL   O102 6566   7.299   4.707   2.939  0.3242  0.0567 -0.2821
   33MOL   C103 6567   7.274   4.678   3.073  0.3754 -0.3369  0.2416
   33MOL   C104 6568   7.258   4.520   3.077  0.1730  0.6924 -0.0921
   33MOL   C105 6569   7.230   4.469   3.220  0.4203  0.1087  0.2671
   33MOL   H106 6570   7.180   4.718   3.110  0.1529 -2.9742  2.6765
   33MOL   H107 6571   7.358   4.715   3.132  0.5851  0.0495 -0.2952
   33MOL   H108 6572   7.174   4.502   3.009 -1.5853 -1.4820  2.5692
   33MOL   H109 6573   7.334   4.475   3.014 -0.4097  1.7560 -1.6031
   33MOL   H110 6574   7.290   4.517   3.297  0.2853  1.0584 -0.2242
   33MOL   H111 6575   7.232   4.362   3.241 -2.3118 -0.2237 -0.8815
   33MOL   O112 6576   7.095   4.499   3.242 -0.7162  0.4024  0.0397
   33MOL   C113 6577   7.062   4.497   3.379  0.0610 -0.8616  0.5772
   33MOL   C114 6578   6.911   4.536   3.405  0.0621 -0.4559 -0.0369
   33MOL   C115 6579   6.816   4.474   3.294 -0.2915  0.7760 -0.8191
   33MOL   H116 6580   7.130   4.558   3.438  0.5243  0.0187 -0.8628
   33MOL   H117 6581   7.079   4.397   3.420  1.2660 -1.1316 -0.5604
   33MOL   H118 6582   6.878   4.497   3.502  2.2090 -1.2804  0.3819
   33MOL   H119 6583   6.892   4.644   3.404  1.8514 -0.1224  0.2929
   33MOL   H120 6584   6.821   4.366   3.311 -0.9568  0.8036 -0.4381
   33MOL   H121 6585   6.851   4.504   3.195 -0.8151 -0.5060 -1.4094
   33MOL   O122 6586   6.685   4.519   3.313 -0.3815 -0.1687  0.9537
   33MOL   C123 6587   6.605   4.513   3.198 -0.3647  0.0796 -0.2227
   33MOL   C124 6588   6.460   4.518   3.234 -0.5384  0.3628 -0.6940
   33MOL   C125 6589   6.426   4.396   3.322  0.0555 -0.6958 -0.4284
   33MOL   H126 6590   6.630   4.426   3.138 -1.9032 -1.2755  1.0632
   33MOL   H127 6591   6.623   4.607   3.146 -2.2134 -0.3075 -1.6078
   33MOL   H128 6592   6.428   4.613   3.278  1.4396  0.5400  0.4377
   33MOL   H129 6593   6.403   4.515   3.142  0.4897  0.4512 -1.3450
   33MOL   H130 6594   6.460   4.399   3.426 -3.7906  0.6538  0.8817
   33MOL   H131 6595   6.479   4.308   3.287 -1.7349 -1.2321 -1.8691
   33MOL   O132 6596   6.288   4.367   3.316  0.3896  0.1119 -0.0357
   33MOL   C133 6597   6.252   4.254   3.393 -0.3225 -0.8488 -0.0732
   33MOL   C134 6598   6.095   4.265   3.396  0.5802  0.6756 -0.0904
   33MOL   C135 6599   6.019   4.132   3.423 -0.2409  0.3292  0.1847
   33MOL   H136 6600   6.277   4.266   3.499  0.6413 -2.8384 -0.0651
   33MOL   H137 6601   6.287   4.161   3.349 -1.6450 -0.5795 -1.7408
   33MOL   H138 6602   6.055   4.339   3.465 -2.8590 -0.4494 -0.7987
   33MOL   H139 6603   6.051   4.295   3.301 -2.2653 -0.3376  0.8641
   33MOL   H140 6604   5.914   4.157   3.418 -0.4440 -0.8617 -2.8853
   33MOL   H141 6605   6.039   4.105   3.527  2.3389  0.0384 -0.3451
   33MOL   O142 6606   6.039   4.028   3.321  0.0968  0.0485 -0.4924
   33MOL   C143 6607   5.961   4.042   3.197  0.0188 -0.0261 -0.0451
   33MOL   C144 6608   5.985   3.914   3.112 -0.2149  0.2437  0.2891
   33MOL   C145 6609   5.962   3.943   2.962  0.4970  0.1060 -0.2138
   33MOL   H146 6610   5.990   4.135   3.149 -1.3484 -1.0363 -2.9566
   33MOL   H147 6611   5.855   4.062   3.208  0.2027  0.4535  0.9509
   33MOL   H148 6612   6.086   3.877   3.130  0.4714  2.4079  0.9996
   33MOL   H149 6613   5.913   3.839   3.146  1.1967 -0.5951  1.4505
   33MOL   H150 6614   5.858   3.972   2.946  0.2149 -0.0429  1.2313
   33MOL   H151 6615   5.972   3.851   2.904 -1.9113 -0.6682  0.5498
   33MOL   O152 6616   6.060   4.033   2.913  0.2871  0.1372 -0.2846
   33MOL   C153 6617   6.048   4.062   2.778  0.0413 -1.0077 -0.3131
   33MOL   C154 6618   6.139   4.177   2.734 -0.7165 -0.6430 -0.9117
   33MOL   C155 6619   6.113   4.305   2.816  0.4826  0.1072 -0.7768
   33MOL   H156 6620   5.946   4.099   2.766  0.0759 -0.9901 -0.5661
   33MOL   H157 6621   6.076   3.985   2.705  1.1514 -1.7795  0.9029
   33MOL   H158 6622   6.243   4.146   2.739 -1.1558 -1.9266  0.4634
   33MOL   H159 6623   6.123   4.201   2.629 -1.2820 -3.3448 -1.4882
   33MOL   H160 6624   6.134   4.279   2.920  2.0925 -0.4385 -1.2335
   33MOL   H161 6625   6.011   4.339   2.795  1.2627  1.5724 -2.2364
   33MOL   O162 6626   6.195   4.414   2.786  0.3807 -0.0340 -0.4659
   33MOL   C163 6627   6.170   4.524   2.874  0.4507  0.6366  0.4417
   33MOL   C164 6628   6.226   4.652   2.830  0.4870  0.1133  0.2797
   33MOL   C165 6629   6.207   4.759   2.942  0.1721 -0.0832  0.3084
   33MOL   H166 6630   6.205   4.484   2.969 -0.3608 -1.0456  0.0578
   33MOL   H167 6631   6.061   4.531   2.875  0.3123 -1.0861 -0.9562
   33MOL   H168 6632   6.331   4.643   2.801  0.1153 -2.2420 -0.3915
   33MOL   H169 6633   6.178   4.687   2.739  2.3545  0.5523 -0.5648
   33MOL   H170 6634   6.242   4.718   3.038 -0.5216  0.3828  0.7610
   33MOL   H171 6635   6.100   4.776   2.952  0.2139  0.8177 -0.7487
   33MOL   O172 6636   6.264   4.883   2.903 -0.1009  0.6229 -0.0179
   33MOL   C173 6637   6.393   4.916   2.951  0.3887 -0.5039 -0.6443
   33MOL   C174 6638   6.438   5.040   2.870 -0.7409 -0.0233  0.0916
   33MOL   C175 6639   6.350   5.162   2.884  0.7092 -0.3503 -0.3023
   33MOL   H176 6640   6.459   4.831   2.933 -1.3460 -1.8815 -0.5840
   33MOL   H177 6641   6.384   4.928   3.059 -1.3573  0.0679 -0.8352
   33MOL   H178 6642   6.540   5.064   2.901 -1.2346  0.7382  1.1552
   33MOL   H179 6643   6.440   5.026   2.762  0.8676  1.2360 -0.0662
   33MOL   H180 6644   6.351   5.199   2.986  0.9571 -1.1079 -0.0288
   33MOL   H181 6645   6.243   5.146   2.870  0.2755  0.4128  1.9475
   33MOL   O182 6646   6.403   5.260   2.797  0.0463  0.3321  0.1781
   33MOL   C183 6647   6.302   5.356   2.768 -0.3731 -0.1170  0.3953
   33MOL   C184 6648   6.373   5.488   2.753  0.1250  0.1539  0.4422
   33MOL   C185 6649   6.274   5.593   2.714  1.2753  0.8762  0.3890
   33MOL   H186 6650   6.221   5.363   2.840 -0.1742  1.0510  0.5184
   33MOL   H187 6651   6.255   5.326   2.674  1.3775  1.2017 -0.9635
   33MOL   H188 6652   6.416   5.531   2.844 -1.1942 -2.2344  2.2604
   33MOL   H189 6653   6.455   5.465   2.685 -2.4656 -0.3995 -2.6381
   33MOL   H190 6654   6.189   5.593   2.783 -0.1563 -0.1958 -1.3326
   33MOL   H191 6655   6.227   5.565   2.620  1.4191 -0.2779  0.6523
   33MOL   O192 6656   6.327   5.719   2.702 -0.2856 -0.2060  0.2529
   33MOL   C193 6657   6.417   5.743   2.593  0.2688 -0.0607 -0.3612
   33MOL   C194 6658   6.416   5.896   2.571  0.0934  0.6481  0.1202
   33MOL   C195 6659   6.269   5.945   2.525  0.4939 -0.1586 -0.5531
   33MOL   H196 6660   6.396   5.693   2.498  0.3871 -0.6661 -0.0765
   33MOL   H197 6661   6.522   5.727   2.620  0.6151 -0.0214 -1.6675
   33MOL   H198 6662   6.458   5.957   2.651 -0.4870 -0.6872  1.4735
   33MOL   H199 6663   6.472   5.913   2.480  1.8107  3.3526  1.6188
   33MOL   H200 6664   6.275   6.048   2.492 -0.4619  1.2054  3.3495
   33MOL   H201 6665   6.210   5.935   2.616 -0.0851  2.7794 -0.5853
   33MOL   H202 6666   6.221   5.887   2.445 -0.2888  0.2830 -0.4100
   34MOL     O1 6667   2.584   0.233   3.862 -0.3047  0.1096  0.3108
   34MOL     C2 6668   2.641   0.142   3.771 -0.6025  0.6529  0.4030
   34MOL     C3 6669   2.613   7.784   3.812  0.2725 -0.0493  0.6223
   34MOL     C4 6670   2.698   7.689   3.729 -0.1601 -0.5052 -0.0361
   34MOL     H5 6671   2.747   0.160   3.789 -0.6362  2.1891 -0.8054
   34MOL     H6 6672   2.615   0.157   3.666 -0.6726 -2.6216 -0.0804
   34MOL     H7 6673   2.655   7.769   3.911 -1.7063  0.5478  1.5612
   34MOL     H8 6674   2.506   7.763   3.811  0.1702  0.5008  0.0602
   34MOL     H9 6675   2.669   7.674   3.625  2.0982 -2.8125 -0.3829
   34MOL    H10 6676   2.682   7.587   3.764  0.9515 -1.0403 -1.0360
   34MOL    H11 6677   2.593   0.321   3.828 -1.1509 -0.7876 -2.3122
   34MOL    O12 6678   2.837   7.720   3.742 -0.2564  0.6320  0.5770
   34MOL    C13 6679   2.915   7.624   3.672 -0.0554  0.7851 -0.4230
   34MOL    C14 6680   3.059   7.665   3.696  0.3385 -0.1390  0.2597
   34MOL    C15 6681   3.162   7.578   3.623 -0.1865  0.3431 -0.8251
   34MOL    H16 6682   2.891   7.630   3.565  1.5649  0.9711 -0.7989
   34MOL    H17 6683   2.889   7.522   3.701 -0.4232  0.7877 -0.7359
   34MOL    H18 6684   3.087   7.765   3.664  0.9008  0.4454  2.4797
   34MOL    H19 6685   3.077   7.671   3.803  2.8030  0.7652 -0.1882
   34MOL    H20 6686   3.261   7.623   3.632 -1.2813  2.5288  0.6810
   34MOL    H21 6687   3.134   7.556   3.520  0.1418 -1.7710 -0.4792
   34MOL    O22 6688   3.157   7.458   3.698 -0.1942  0.1991 -0.2101
   34MOL    C23 6689   3.237   7.353   3.636  0.2632 -0.4666 -0.4729
   34MOL    C24 6690   3.237   7.225   3.716 -0.4141 -0.3755 -0.0890
   34MOL    C25 6691   3.102   7.153   3.713 -0.1092 -0.4388 -0.1737
   34MOL    H26 6692   3.335   7.395   3.613  1.6149 -3.1689  0.1934
   34MOL    H27 6693   3.193   7.328   3.539  0.2623  0.5129 -0.7395
   34MOL    H28 6694   3.310   7.160   3.668  0.4208  1.7662 -1.8342
   34MOL    H29 6695   3.277   7.247   3.815 -1.9608 -0.4812  0.5693
   34MOL    H30 6696   3.069   7.156   3.609  0.2259 -0.6155 -0.2870
   34MOL    H31 6697   3.031   7.212   3.771 -1.2224  0.5743 -2.4915
   34MOL    O32 6698   3.112   7.022   3.766 -0.2992  0.0381 -0.9639
   34MOL    C33 6699   3.001   6.940   3.736 -0.3071  0.8465 -0.3332
   34MOL    C34 6700   3.017   6.796   3.792 -0.4841 -0.4085 -0.0460
   34MOL    C35 6701   2.896   6.716   3.761 -0.1213 -0.1763 -0.2972
   34MOL    H36 6702   3.010   6.926   3.628 -0.1168  0.9105 -0.3263
   34MOL    H37 6703   2.912   6.990   3.774 -0.5763  0.1740 -0.0664
   34MOL    H38 6704   3.102   6.746   3.746 -0.7100 -0.9725  0.1457
   34MOL    H39 6705   3.038   6.796   3.898 -0.6386  0.1897 -0.0145
   34MOL    H40 6706   2.877   6.727   3.655 -0.9918 -1.1869 -0.2554
   34MOL    H41 6707   2.812   6.755   3.819 -0.1027  2.1675 -1.8266
   34MOL    O42 6708   2.911   6.576   3.799  0.1949 -0.3719 -0.0622
   34MOL    C43 6709   2.788   6.518   3.804 -0.4467  0.1034  0.5320
   34MOL    C44 6710   2.798   6.383   3.886  0.3210  0.0146  0.7908
   34MOL    C45 6711   2.676   6.289   3.853  0.1814 -0.1895 -0.3186
   34MOL    H46 6712   2.779   6.475   3.704  2.2308 -0.3404  0.4376
   34MOL    H47 6713   2.697   6.566   3.838 -0.6197  0.9707 -1.1142
   34MOL    H48 6714   2.885   6.321   3.862  1.4139  1.2972  1.3752
   34MOL    H49 6715   2.808   6.394   3.994  1.0127 -0.2136  0.7536
   34MOL    H50 6716   2.685   6.238   3.757 -0.7529 -1.1364  0.0817
   34MOL    H51 6717   2.584   6.346   3.846  0.3206 -0.0006 -0.6064
   34MOL    O52 6718   2.662   6.197   3.963 -0.2754 -0.3671 -0.1741
   34MOL    C53 6719   2.532   6.139   3.963  0.4365  0.6378 -0.3418
   34MOL    C54 6720   2.515   6.010   4.042 -0.0284 -0.5554  0.6822
   34MOL    C55 6721   2.629   5.915   4.032 -0.6510  0.0495 -0.3499
   34MOL    H56 6722   2.511   6.118   3.858 -1.6011  0.1108  0.1377
   34MOL    H57 6723   2.442   6.200   3.976  0.2366  0.4218 -0.6992
   34MOL    H58 6724   2.513   6.027   4.150  0.7875 -2.2495  0.9777
   34MOL    H59 6725   2.422   5.961   4.013 -0.2326 -0.5122  1.2571
   34MOL    H60 6726   2.722   5.966   4.057 -1.9436  2.5410 -0.4948
   34MOL    H61 6727   2.650   5.878   3.931  0.3710 -0.5321  0.0705
   34MOL    O62 6728   2.600   5.803   4.119 -0.4860 -0.3666  0.5575
   34MOL    C63 6729   2.712   5.712   4.119 -0.3804  0.2665  0.2818
   34MOL    C64 6730   2.683   5.591   4.208  0.6769  0.3695 -0.0958
   34MOL    C65 6731   2.777   5.469   4.186 -0.1987  0.0475 -0.1585
   34MOL    H66 6732   2.806   5.764   4.137 -0.7430  1.0187  0.0093
   34MOL    H67 6733   2.727   5.669   4.021  0.4851  0.4664  0.3271
   34MOL    H68 6734   2.677   5.609   4.316  1.0669 -1.9317  0.3374
   34MOL    H69 6735   2.577   5.573   4.191  0.7313 -0.5664  0.5073
   34MOL    H70 6736   2.793   5.452   4.080  0.3792 -1.0714  0.1070
   34MOL    H71 6737   2.739   5.379   4.235  2.8025 -1.5902 -0.7612
   34MOL    O72 6738   2.895   5.505   4.254  0.5057  0.2062  0.1112
   34MOL    C73 6739   3.009   5.436   4.205 -0.3079 -0.8350 -0.4667
   34MOL    C74 6740   3.126   5.475   4.283  0.2175  0.7066  0.2292
   34MOL    C75 6741   3.194   5.607   4.247  0.0373  0.2251  0.3795
   34MOL    H76 6742   3.034   5.456   4.101  0.7109 -0.2418 -0.1197
   34MOL    H77 6743   2.996   5.328   4.217 -1.2098 -0.4287  2.8903
   34MOL    H78 6744   3.110   5.483   4.391  0.1192  0.1565  0.2549
   34MOL    H79 6745   3.210   5.407   4.269  0.9637  1.5759  0.4373
   34MOL    H80 6746   3.132   5.695   4.261 -0.5886  0.3568 -2.8537
   34MOL    H81 6747   3.217   5.599   4.141 -0.2326 -0.2334  0.3558
   34MOL    O82 6748   3.309   5.614   4.330  0.1768 -0.1291  0.2384
   34MOL    C83 6749   3.390   5.732   4.303 -0.6705  0.3763  0.5788
   34MOL    C84 6750   3.501   5.743   4.398  0.1894  0.7354 -1.3388
   34MOL    C85 6751   3.460   5.801   4.533  1.1136  0.2465  0.1985
   34MOL    H86 6752   3.323   5.816   4.321 -0.3977  0.0547  3.2378
   34MOL    H87 6753   3.435   5.728   4.204 -0.5592 -1.2204  0.6894
   34MOL    H88 6754   3.541   5.645   4.424  2.1124  1.8895  0.2262
   34MOL    H89 6755   3.584   5.800   4.356  1.4318 -1.4962 -2.0111
   34MOL    H90 6756   3.384   5.736   4.576  1.1528 -0.2994 -0.5640
   34MOL    H91 6757   3.425   5.904   4.533 -3.2486 -1.1406  0.5855
   34MOL    O92 6758   3.577   5.784   4.610  0.4574  0.2467  0.4670
   34MOL    C93 6759   3.556   5.818   4.743  0.9858  0.0528  0.1174
   34MOL    C94 6760   3.683   5.802   4.824 -0.3710 -0.2529 -0.3324
   34MOL    C95 6761   3.744   5.658   4.832 -0.6286 -0.5948  0.0507
   34MOL    H96 6762   3.478   5.759   4.791  0.0919  0.4908 -0.7773
   34MOL    H97 6763   3.512   5.916   4.757 -0.3723 -0.6860  1.1980
   34MOL    H98 6764   3.756   5.865   4.772  0.5991  0.0476  1.3422
   34MOL    H99 6765   3.671   5.843   4.925 -2.9333 -0.3143 -0.5841
   34MOL   H100 6766   3.840   5.655   4.885 -0.0904 -0.5804 -0.9067
   34MOL   H101 6767   3.768   5.626   4.730 -0.0122  0.1452 -0.0423
   34MOL   O102 6768   3.668   5.569   4.915 -0.5644 -0.4316  0.1973
   34MOL   C103 6769   3.690   5.428   4.910 -0.2177  0.1725 -0.3794
   34MOL   C104 6770   3.670   5.367   4.769 -0.5634 -0.1562 -0.3445
   34MOL   C105 6771   3.535   5.397   4.712 -0.1446  0.6026 -0.1683
   34MOL   H106 6772   3.618   5.372   4.970  0.9119 -1.6831 -0.7139
   34MOL   H107 6773   3.793   5.413   4.943 -0.5413 -1.1596  0.0312
   34MOL   H108 6774   3.744   5.408   4.701 -0.2684  1.5589  0.9792
   34MOL   H109 6775   3.692   5.260   4.767  0.2662  0.0101 -0.3499
   34MOL   H110 6776   3.528   5.492   4.660 -0.2134  2.5769  3.2930
   34MOL   H111 6777   3.466   5.401   4.797  0.1963  0.3589  0.1240
   34MOL   O112 6778   3.498   5.299   4.626 -0.9890  0.5941  0.1904
   34MOL   C113 6779   3.359   5.285   4.608  0.6060 -0.5461 -0.7874
   34MOL   C114 6780   3.330   5.178   4.505 -0.2636 -0.1792 -0.2931
   34MOL   C115 6781   3.176   5.143   4.484  0.4920 -0.5483  0.2026
   34MOL   H116 6782   3.322   5.384   4.580 -0.1032 -0.9937 -1.4335
   34MOL   H117 6783   3.320   5.248   4.704 -0.8738  0.8478 -0.8204
   34MOL   H118 6784   3.370   5.209   4.409 -1.2991 -3.0495 -1.6933
   34MOL   H119 6785   3.385   5.090   4.539 -2.4618 -0.7255  2.1362
   34MOL   H120 6786   3.138   5.239   4.449  1.4200  0.2977  1.4503
   34MOL   H121 6787   3.130   5.116   4.579 -0.2238 -0.3590 -0.0865
   34MOL   O122 6788   3.156   5.048   4.377 -0.0169  0.1201  0.2386
   34MOL   C123 6789   3.175   4.918   4.427  0.1503  0.5362  0.6482
   34MOL   C124 6790   3.187   4.835   4.300  0.3430 -0.3796  0.7180
   34MOL   C125 6791   3.312   4.856   4.210 -0.8188 -0.1467  0.2892
   34MOL   H126 6792   3.088   4.890   4.486  0.2250  1.5152  1.2377
   34MOL   H127 6793   3.257   4.914   4.499 -0.1467  1.2444  1.0271
   34MOL   H128 6794   3.194   4.730   4.328  0.7305 -0.2921  0.9498
   34MOL   H129 6795   3.096   4.831   4.240  1.6281  1.5708 -1.4811
   34MOL   H130 6796   3.398   4.834   4.273  0.0282  0.9540 -0.4637
   34MOL   H131 6797   3.317   4.961   4.180 -2.4701 -0.0444  0.3002
   34MOL   O132 6798   3.328   4.772   4.103  0.0546 -0.1776  0.1597
   34MOL   C133 6799   3.431   4.816   4.015 -1.0686 -0.2499 -0.9041
   34MOL   C134 6800   3.444   4.719   3.894 -0.1929 -0.3003 -0.5465
   34MOL   C135 6801   3.544   4.770   3.787 -0.1322  0.0858  0.0943
   34MOL   H136 6802   3.529   4.828   4.062 -0.0933  0.9348 -3.1596
   34MOL   H137 6803   3.408   4.918   3.983  1.6917  0.2309 -1.5014
   34MOL   H138 6804   3.464   4.613   3.914  3.5717  0.3136 -0.6550
   34MOL   H139 6805   3.351   4.704   3.838 -0.5346 -1.4069  0.2979
   34MOL   H140 6806   3.643   4.799   3.822 -0.5683 -0.0349  1.4440
   34MOL   H141 6807   3.500   4.855   3.734 -0.5699  0.3158  0.8243
   34MOL   O142 6808   3.573   4.666   3.693 -0.3789 -0.0103 -0.4036
   34MOL   C143 6809   3.672   4.713   3.599  0.0187  0.2972  0.4726
   34MOL   C144 6810   3.697   4.604   3.496  0.0222  0.4362  0.1789
   34MOL   C145 6811   3.803   4.653   3.397  0.0806  0.1658  0.0159
   34MOL   H146 6812   3.766   4.726   3.652 -0.4114  0.6940  1.1387
   34MOL   H147 6813   3.635   4.805   3.553 -2.1586 -1.2688 -1.0323
   34MOL   H148 6814   3.737   4.515   3.544 -2.0618  0.0400  1.2235
   34MOL   H149 6815   3.609   4.575   3.440 -0.8410  0.9507  1.2532
   34MOL   H150 6816   3.897   4.680   3.445  0.5579  2.4691 -2.0786
   34MOL   H151 6817   3.753   4.738   3.350 -0.2919 -2.2230 -4.1466
   34MOL   O152 6818   3.835   4.556   3.298  0.6476  0.0322  0.3157
   34MOL   C153 6819   3.902   4.608   3.183  0.5496 -0.2864  0.5284
   34MOL   C154 6820   3.988   4.504   3.099  0.2400  0.0539 -0.1837
   34MOL   C155 6821   3.889   4.387   3.050 -0.1881 -0.3238 -0.3495
   34MOL   H156 6822   3.964   4.694   3.211  1.3094  0.5355 -3.3757
   34MOL   H157 6823   3.827   4.653   3.118  2.2757  1.6953 -0.1678
   34MOL   H158 6824   4.040   4.552   3.016  0.1032  2.3945  1.0449
   34MOL   H159 6825   4.064   4.465   3.166 -1.1037 -1.4463  0.5044
   34MOL   H160 6826   3.819   4.424   2.975  2.4327  1.0522 -2.2022
   34MOL   H161 6827   3.832   4.332   3.124 -0.8585  0.3654 -0.3519
   34MOL   O162 6828   3.967   4.311   2.960 -0.3515  0.5222  0.0016
   34MOL   C163 6829   3.918   4.183   2.945 -0.1541  0.1298  0.1412
   34MOL   C164 6830   4.028   4.108   2.862  0.8250 -0.3014 -0.4106
   34MOL   C165 6831   3.982   3.973   2.812  0.7431  0.1880 -0.5251
   34MOL   H166 6832   3.819   4.193   2.902 -0.2982 -1.8084 -0.0471
   34MOL   H167 6833   3.915   4.139   3.044  1.3033 -1.4146 -0.4496
   34MOL   H168 6834   4.058   4.179   2.784  1.5625  0.7865  0.8439
   34MOL   H169 6835   4.115   4.097   2.927  0.8485 -2.8841 -0.8548
   34MOL   H170 6836   3.896   3.997   2.748  1.7902  1.4562 -1.4774
   34MOL   H171 6837   3.948   3.901   2.887  1.7790  0.3162  0.0756
   34MOL   O172 6838   4.069   3.900   2.732 -0.4123  0.0008  0.3843
   34MOL   C173 6839   4.016   3.784   2.672 -0.0595 -0.0453 -0.9043
   34MOL   C174 6840   4.001   3.656   2.761 -0.4607  0.6551  0.6622
   34MOL   C175 6841   3.944   3.528   2.698 -0.2304 -0.1512 -0.5194
   34MOL   H176 6842   4.086   3.755   2.594 -0.8158 -0.1103 -1.5746
   34MOL   H177 6843   3.919   3.813   2.630 -1.1970  0.4503  1.9606
   34MOL   H178 6844   4.096   3.631   2.809  1.3955  0.6874 -2.8939
   34MOL   H179 6845   3.939   3.685   2.847 -1.1951 -0.1453  0.4091
   34MOL   H180 6846   4.015   3.498   2.621 -1.6856 -0.8774 -1.6239
   34MOL   H181 6847   3.860   3.577   2.649 -0.0628 -1.6222 -2.3214
   34MOL   O182 6848   3.926   3.425   2.793 -0.4652  0.0284  0.0414
   34MOL   C183 6849   3.858   3.322   2.730 -0.1848  0.1641 -0.6179
   34MOL   C184 6850   3.856   3.213   2.841 -0.7204 -0.3258 -0.6465
   34MOL   C185 6851   3.994   3.155   2.865 -0.2721 -0.2545 -0.1956
   34MOL   H186 6852   3.896   3.293   2.632 -0.5454 -0.6912 -0.5053
   34MOL   H187 6853   3.758   3.354   2.701 -1.1388 -1.3904  0.9182
   34MOL   H188 6854   3.816   3.248   2.936 -1.2280  0.7553 -1.2541
   34MOL   H189 6855   3.791   3.134   2.804 -0.9307 -0.9587  1.0486
   34MOL   H190 6856   4.047   3.221   2.935 -1.6689  0.4623  0.2047
   34MOL   H191 6857   4.049   3.146   2.772  2.2762  0.1834  1.2144
   34MOL   O192 6858   3.980   3.028   2.924  0.2554 -0.5140  0.2752
   34MOL   C193 6859   4.099   2.953   2.928  1.3447  0.9837  0.0425
   34MOL   C194 6860   4.078   2.810   2.974  0.0170  0.3693 -0.4340
   34MOL   C195 6861   4.021   2.712   2.870 -0.2310  0.0221 -0.2559
   34MOL   H196 6862   4.162   3.000   3.004  1.8335  1.1914 -0.4854
   34MOL   H197 6863   4.158   2.959   2.836  1.2753 -2.1573 -0.2360
   34MOL   H198 6864   4.169   2.760   3.008 -0.5630  0.0718  0.7060
   34MOL   H199 6865   4.012   2.821   3.060  1.4559 -3.1694  1.2229
   34MOL   H200 6866   4.052   2.722   2.766  1.1085 -0.9069  0.0388
   34MOL   H201 6867   3.913   2.722   2.866 -0.2952 -0.9714 -1.2638
   34MOL   H202 6868   4.049   2.608   2.886 -0.7086 -0.1924 -0.7905
   35MOL     O1 6869   5.615   4.519   6.002  0.5780 -0.3543  0.1053
   35MOL     C2 6870   5.504   4.433   5.999  0.2188  0.1942  0.5870
   35MOL     C3 6871   5.423   4.458   6.133 -0.1731 -0.2027  0.1877
   35MOL     C4 6872   5.499   4.414   6.263  0.0912  0.6275  0.3138
   35MOL     H5 6873   5.545   4.332   6.003 -0.2989  0.0442  2.7544
   35MOL     H6 6874   5.450   4.454   5.907  1.6752  0.0169 -0.3207
   35MOL     H7 6875   5.391   4.561   6.143 -2.0621 -0.6696 -0.8085
   35MOL     H8 6876   5.324   4.411   6.129  0.4475 -1.4826 -0.7261
   35MOL     H9 6877   5.554   4.321   6.246 -0.3041  0.2654  0.9756
   35MOL    H10 6878   5.424   4.398   6.341  1.7602  2.7079  2.4256
   35MOL    H11 6879   5.650   4.514   6.090 -0.4155 -0.4067  0.5065
   35MOL    O12 6880   5.597   4.508   6.301 -0.0829  0.2178 -0.7140
   35MOL    C13 6881   5.660   4.471   6.427  0.0933  0.0831  0.2029
   35MOL    C14 6882   5.744   4.579   6.494  0.5697 -0.7208 -0.3477
   35MOL    C15 6883   5.690   4.714   6.496  0.1825 -0.1464  0.8537
   35MOL    H16 6884   5.725   4.383   6.418  2.8876  2.1550 -0.7105
   35MOL    H17 6885   5.580   4.448   6.496  1.2791  1.9095  2.2537
   35MOL    H18 6886   5.763   4.541   6.594  0.3421 -0.1342 -0.0813
   35MOL    H19 6887   5.846   4.585   6.457  0.2072  1.5917 -1.0486
   35MOL    H20 6888   5.595   4.721   6.550 -0.4178  0.3195 -0.2405
   35MOL    H21 6889   5.666   4.733   6.391  0.5459 -0.9456  0.6223
   35MOL    O22 6890   5.778   4.807   6.556 -0.0085  0.5243  0.3167
   35MOL    C23 6891   5.735   4.941   6.542 -0.4687  0.5647  1.2380
   35MOL    C24 6892   5.824   5.036   6.621 -0.8523  0.1839  0.2388
   35MOL    C25 6893   5.772   5.176   6.612  0.2077 -0.3109 -0.5107
   35MOL    H26 6894   5.635   4.960   6.581 -1.1845 -1.5237  0.5027
   35MOL    H27 6895   5.738   4.971   6.437  1.2938 -1.0558  0.7947
   35MOL    H28 6896   5.812   5.007   6.726 -2.2035 -1.8850 -0.4545
   35MOL    H29 6897   5.931   5.039   6.601 -0.8088  0.7530  0.5289
   35MOL    H30 6898   5.813   5.237   6.692 -0.2099 -1.1010  0.3116
   35MOL    H31 6899   5.663   5.178   6.620  0.2179 -0.3689 -0.3690
   35MOL    O32 6900   5.811   5.250   6.498  0.4270  0.1589 -0.0596
   35MOL    C33 6901   5.755   5.383   6.498 -0.7138 -0.0269 -0.0569
   35MOL    C34 6902   5.832   5.458   6.395  0.5986 -0.5600  0.2712
   35MOL    C35 6903   5.790   5.606   6.400  0.2241 -0.6798  0.3664
   35MOL    H36 6904   5.781   5.434   6.590 -1.7630  0.9945 -0.3057
   35MOL    H37 6905   5.646   5.386   6.485 -0.9550  0.6527  2.0007
   35MOL    H38 6906   5.939   5.464   6.415  0.5962  1.5069 -0.2269
   35MOL    H39 6907   5.823   5.415   6.295  2.5482 -0.5522  0.0630
   35MOL    H40 6908   5.682   5.610   6.411  0.3338  0.2481  1.2350
   35MOL    H41 6909   5.820   5.647   6.303  1.8711  1.1388  1.5974
   35MOL    O42 6910   5.849   5.670   6.507  0.0761 -0.7024 -0.5543
   35MOL    C43 6911   5.812   5.810   6.530 -0.4052  0.4379  0.1557
   35MOL    C44 6912   5.819   5.857   6.677  0.5364  0.4131 -0.1194
   35MOL    C45 6913   5.750   5.764   6.773 -0.3443  0.3391  0.4688
   35MOL    H46 6914   5.709   5.821   6.495 -0.8614 -1.3695  0.8599
   35MOL    H47 6915   5.864   5.867   6.454 -1.3781  1.7534  0.4698
   35MOL    H48 6916   5.921   5.865   6.714  0.3401  2.1914  0.0762
   35MOL    H49 6917   5.767   5.953   6.674  1.4105  0.8542 -2.8764
   35MOL    H50 6918   5.765   5.802   6.874 -0.0100 -1.2546  1.0279
   35MOL    H51 6919   5.797   5.667   6.755 -2.3064 -0.7289  1.0279
   35MOL    O52 6920   5.610   5.765   6.742 -0.2907 -0.7458  0.2761
   35MOL    C53 6921   5.521   5.679   6.807  0.1656  0.8886 -0.1249
   35MOL    C54 6922   5.517   5.543   6.729 -0.0886 -0.0591  0.6445
   35MOL    C55 6923   5.445   5.431   6.806 -0.1456  0.1588 -0.5641
   35MOL    H56 6924   5.417   5.711   6.806  0.4213  1.7167 -0.4824
   35MOL    H57 6925   5.556   5.653   6.907 -0.0770 -0.9177 -0.4906
   35MOL    H58 6926   5.483   5.559   6.626  1.3994  2.5932  0.5159
   35MOL    H59 6927   5.618   5.503   6.726 -0.8709 -2.0344 -0.2114
   35MOL    H60 6928   5.344   5.459   6.835 -0.5805 -2.1498  0.2493
   35MOL    H61 6929   5.505   5.412   6.895 -0.3442 -0.2084 -0.5090
   35MOL    O62 6930   5.452   5.301   6.745 -0.5119 -0.8143 -0.7175
   35MOL    C63 6931   5.334   5.223   6.752 -0.5569  0.5109  0.3548
   35MOL    C64 6932   5.358   5.075   6.708 -0.2415  0.3976  0.7171
   35MOL    C65 6933   5.350   5.063   6.553  0.1131 -0.1336 -0.7200
   35MOL    H66 6934   5.250   5.260   6.693 -2.6831  0.7971  3.4585
   35MOL    H67 6935   5.300   5.212   6.855 -1.7723 -1.2617 -0.1990
   35MOL    H68 6936   5.456   5.044   6.742 -0.5117 -0.4805  0.7131
   35MOL    H69 6937   5.288   5.005   6.754 -1.5069  1.5131  0.5557
   35MOL    H70 6938   5.433   5.119   6.509  0.8112 -1.5706 -1.2505
   35MOL    H71 6939   5.255   5.094   6.508 -1.4354 -1.4584  1.5702
   35MOL    O72 6940   5.376   4.929   6.532 -0.5710  0.0902  1.0745
   35MOL    C73 6941   5.258   4.849   6.528 -0.1949  1.1044  0.8989
   35MOL    C74 6942   5.288   4.704   6.492 -0.1034 -0.9034 -0.3239
   35MOL    C75 6943   5.156   4.630   6.451  0.0055 -0.2209 -0.6340
   35MOL    H76 6944   5.186   4.883   6.454 -0.4002 -2.0618 -0.4213
   35MOL    H77 6945   5.217   4.840   6.629 -0.5330  1.5543  0.8047
   35MOL    H78 6946   5.354   4.705   6.405 -0.6889  0.3216 -0.7654
   35MOL    H79 6947   5.340   4.656   6.575  0.5969  0.2899 -0.0674
   35MOL    H80 6948   5.070   4.692   6.473  1.0295  0.2599  2.2167
   35MOL    H81 6949   5.138   4.531   6.494 -0.0224  1.1564  2.7150
   35MOL    O82 6950   5.176   4.646   6.309 -0.0692  0.0990 -0.5096
   35MOL    C83 6951   5.049   4.644   6.243  0.2655 -0.1863 -0.0765
   35MOL    C84 6952   5.079   4.655   6.096  0.3918 -0.0688 -0.5668
   35MOL    C85 6953   5.132   4.794   6.061  0.1020 -0.0186  1.0725
   35MOL    H86 6954   4.980   4.715   6.288 -1.3276  0.0433 -2.7657
   35MOL    H87 6955   4.993   4.550   6.252  0.2518 -0.1807 -0.1087
   35MOL    H88 6956   5.157   4.581   6.079  3.0761  2.6722 -0.5583
   35MOL    H89 6957   4.996   4.618   6.035 -2.2876  3.0020  1.0475
   35MOL    H90 6958   5.181   4.789   5.964 -1.1749 -0.0483  0.4090
   35MOL    H91 6959   5.209   4.825   6.131 -0.0465  0.0779  1.1929
   35MOL    O92 6960   5.029   4.891   6.051  0.4185  1.1346  0.5293
   35MOL    C93 6961   5.079   5.026   6.046  1.0349  0.1734 -0.3110
   35MOL    C94 6962   5.116   5.078   6.186 -0.7040 -0.0116 -0.3094
   35MOL    C95 6963   5.142   5.230   6.177  0.4428  0.3256  0.5812
   35MOL    H96 6964   5.001   5.094   6.012  1.5189 -0.7536 -3.4451
   35MOL    H97 6965   5.163   5.034   5.977 -0.1756  1.7066 -1.6277
   35MOL    H98 6966   5.033   5.054   6.254 -0.1681 -1.3950 -0.1123
   35MOL    H99 6967   5.201   5.029   6.235 -1.8638 -1.8777 -0.0844
   35MOL   H100 6968   5.058   5.279   6.130  0.4303 -0.8158 -0.6064
   35MOL   H101 6969   5.229   5.252   6.114  1.1534 -1.6834  0.8271
   35MOL   O102 6970   5.177   5.282   6.304 -0.9227  0.6873  0.6036
   35MOL   C103 6971   5.184   5.423   6.311  0.2970  0.4365 -0.0295
   35MOL   C104 6972   5.237   5.463   6.449  0.3500 -0.1173  0.5055
   35MOL   C105 6973   5.227   5.613   6.484 -0.2589 -0.5091 -1.0117
   35MOL   H106 6974   5.085   5.465   6.289  0.5183  1.6306  1.2374
   35MOL   H107 6975   5.251   5.465   6.236  1.4647 -1.4011 -0.0141
   35MOL   H108 6976   5.180   5.404   6.522  0.3208  1.1832  1.5486
   35MOL   H109 6977   5.335   5.420   6.465  0.3971  0.6139  2.2766
   35MOL   H110 6978   5.262   5.621   6.587  1.1353 -2.9261 -1.2614
   35MOL   H111 6979   5.123   5.644   6.478  0.7225  2.5412 -3.0790
   35MOL   O112 6980   5.309   5.691   6.394  0.2714  0.5452 -0.1857
   35MOL   C113 6981   5.316   5.824   6.443  0.6346 -0.5074  0.6185
   35MOL   C114 6982   5.444   5.876   6.373 -0.7537  0.4274  0.4546
   35MOL   C115 6983   5.479   6.014   6.421 -0.2875 -0.0686 -0.1896
   35MOL   H116 6984   5.336   5.821   6.550  0.8738 -1.9323  0.5511
   35MOL   H117 6985   5.229   5.880   6.410  1.6881  0.3850 -0.7349
   35MOL   H118 6986   5.527   5.807   6.389 -2.0210 -0.9752  1.1069
   35MOL   H119 6987   5.423   5.895   6.268 -0.1279  0.5923  0.3528
   35MOL   H120 6988   5.510   6.007   6.525 -0.8230 -2.1021 -0.1493
   35MOL   H121 6989   5.395   6.082   6.408 -1.5318 -1.8968 -1.9841
   35MOL   O122 6990   5.583   6.072   6.354  0.0148  0.4885 -0.3452
   35MOL   C123 6991   5.618   6.195   6.401 -0.4358 -0.2443  0.2548
   35MOL   C124 6992   5.608   6.281   6.276  0.2541 -0.1391 -0.8297
   35MOL   C125 6993   5.686   6.239   6.154  0.1231 -0.3085 -1.0260
   35MOL   H126 6994   5.719   6.187   6.443 -0.4608  0.4408  0.4632
   35MOL   H127 6995   5.554   6.242   6.476  2.2827 -0.9510  3.1752
   35MOL   H128 6996   5.504   6.297   6.251 -0.0699  0.8608  1.0519
   35MOL   H129 6997   5.640   6.379   6.313 -0.4253 -0.2031 -0.0572
   35MOL   H130 6998   5.630   6.163   6.099  0.7768 -0.9090 -0.8620
   35MOL   H131 6999   5.778   6.184   6.173 -0.3199 -1.2560 -1.6056
   35MOL   O132 7000   5.716   6.362   6.085  0.4070  0.2633 -0.2326
   35MOL   C133 7001   5.760   6.324   5.956 -0.3814 -0.0348 -0.2316
   35MOL   C134 7002   5.778   6.452   5.868 -0.2160  0.2428 -0.2461
   35MOL   C135 7003   5.853   6.423   5.734 -0.3794 -0.2562 -0.0644
   35MOL   H136 7004   5.687   6.257   5.910 -1.6181  0.4524  0.9619
   35MOL   H137 7005   5.849   6.261   5.962  0.4207  0.9422 -1.6443
   35MOL   H138 7006   5.677   6.487   5.847 -0.6929 -0.8898  0.0528
   35MOL   H139 7007   5.822   6.526   5.935 -0.1609  0.5286 -0.6032
   35MOL   H140 7008   5.958   6.398   5.745  0.3415  1.8903 -1.7680
   35MOL   H141 7009   5.853   6.509   5.668  0.1048  0.0226  0.2959
   35MOL   O142 7010   5.802   6.303   5.672 -0.0166 -0.1145 -0.8258
   35MOL   C143 7011   5.687   6.319   5.581  0.3678  0.3969 -0.4079
   35MOL   C144 7012   5.712   6.413   5.456  0.2989 -0.1884  0.2193
   35MOL   C145 7013   5.581   6.453   5.373 -0.1371 -0.4880 -0.3506
   35MOL   H146 7014   5.594   6.351   5.628  1.1671  0.7642  0.9499
   35MOL   H147 7015   5.666   6.218   5.545  0.7701  0.2108 -0.1238
   35MOL   H148 7016   5.787   6.492   5.458 -0.7875  0.8395  1.1506
   35MOL   H149 7017   5.757   6.350   5.379 -0.4193  0.6848 -0.9316
   35MOL   H150 7018   5.592   6.505   5.278  1.1278  0.6029  0.3864
   35MOL   H151 7019   5.548   6.539   5.431 -2.4970 -1.8305  0.3929
   35MOL   O152 7020   5.482   6.354   5.378 -0.5735  0.1289  0.7666
   35MOL   C153 7021   5.356   6.398   5.335 -0.0996 -1.1468 -0.2490
   35MOL   C154 7022   5.290   6.278   5.278 -0.0384 -0.3971  0.1153
   35MOL   C155 7023   5.140   6.287   5.240  0.7774  0.8131  0.1106
   35MOL   H156 7024   5.367   6.470   5.254  0.1423 -0.3425  0.4974
   35MOL   H157 7025   5.313   6.452   5.419  3.1662  1.0922  0.1022
   35MOL   H158 7026   5.346   6.258   5.187 -1.0174 -1.8940 -0.1878
   35MOL   H159 7027   5.303   6.193   5.346  3.0204 -2.0519 -2.3936
   35MOL   H160 7028   5.111   6.196   5.188 -2.4207 -0.0938  3.2954
   35MOL   H161 7029   5.112   6.373   5.179 -0.6466 -1.1919 -2.1375
   35MOL   O162 7030   5.072   6.286   5.371  0.0858  0.3578 -0.2778
   35MOL   C163 7031   4.930   6.287   5.345  0.1026  0.0155 -0.2610
   35MOL   C164 7032   4.845   6.287   5.470  0.4202 -0.3306 -0.4490
   35MOL   C165 7033   4.694   6.289   5.457 -0.0947 -0.1712 -0.0212
   35MOL   H166 7034   4.912   6.200   5.282  0.1993 -1.2403  1.4097
   35MOL   H167 7035   4.917   6.367   5.273  3.6915 -1.2568 -2.4348
   35MOL   H168 7036   4.872   6.202   5.533 -2.5719  0.7631  2.4761
   35MOL   H169 7037   4.874   6.379   5.521 -0.3867 -1.0898  1.4380
   35MOL   H170 7038   4.654   6.293   5.558 -0.6377 -0.9337 -0.1991
   35MOL   H171 7039   4.650   6.198   5.416  0.6871 -1.3312  1.6702
   35MOL   O172 7040   4.665   6.398   5.368 -0.1217 -0.0811 -0.1430
   35MOL   C173 7041   4.542   6.468   5.407  0.2741 -0.3289 -0.8009
   35MOL   C174 7042   4.478   6.558   5.301 -0.5470 -0.0372  0.4687
   35MOL   C175 7043   4.327   6.575   5.328  0.5089  0.5604  0.0185
   35MOL   H176 7044   4.557   6.525   5.498  0.4041 -0.1235 -0.9498
   35MOL   H177 7045   4.466   6.397   5.440 -0.5751  0.7837 -0.3448
   35MOL   H178 7046   4.535   6.651   5.298 -0.9844  0.2813  1.7079
   35MOL   H179 7047   4.498   6.517   5.202 -1.9358 -0.3886  0.3203
   35MOL   H180 7048   4.291   6.649   5.256 -1.7491  0.5919  1.1409
   35MOL   H181 7049   4.315   6.632   5.419 -1.1502 -1.4564  1.0897
   35MOL   O182 7050   4.261   6.448   5.317  0.0535 -0.1152 -0.3936
   35MOL   C183 7051   4.120   6.462   5.350  0.3495  0.2645  0.0242
   35MOL   C184 7052   4.098   6.420   5.496  0.2044 -0.1461  0.0510
   35MOL   C185 7053   3.953   6.418   5.553 -0.1619 -0.5736 -0.3218
   35MOL   H186 7054   4.048   6.424   5.277 -1.9046  0.2847  2.1718
   35MOL   H187 7055   4.101   6.569   5.349 -2.7486 -0.0959  4.5846
   35MOL   H188 7056   4.141   6.321   5.514 -0.2485 -0.2043  0.8540
   35MOL   H189 7057   4.149   6.492   5.560 -1.0408  1.8527 -1.1751
   35MOL   H190 7058   3.883   6.359   5.494 -0.0645 -2.5021  1.4255
   35MOL   H191 7059   3.906   6.516   5.543  2.2683  0.7917  1.0195
   35MOL   O192 7060   3.955   6.392   5.686 -0.2526 -0.1021 -1.5710
   35MOL   C193 7061   3.824   6.394   5.740  0.0931 -0.4365 -0.2081
   35MOL   C194 7062   3.821   6.330   5.877  0.1629 -0.1979  0.0382
   35MOL   C195 7063   3.701   6.334   5.965  0.4202 -0.0791  0.4318
   35MOL   H196 7064   3.755   6.344   5.673  0.2973  0.2308 -0.9296
   35MOL   H197 7065   3.790   6.498   5.744 -1.3153 -0.7667 -2.4976
   35MOL   H198 7066   3.845   6.225   5.858 -1.8022 -0.4371 -1.2148
   35MOL   H199 7067   3.894   6.380   5.941 -1.4764  0.7237  1.2058
   35MOL   H200 7068   3.624   6.265   5.933 -2.3057  2.0934  2.0272
   35MOL   H201 7069   3.652   6.431   5.958 -1.8237 -1.2440 -0.6764
   35MOL   H202 7070   3.724   6.306   6.068  0.6329  2.1770  1.0320
   36MOL     O1 7071   1.262   0.264   4.418 -0.3564  0.3783 -0.3333
   36MOL     C2 7072   1.174   0.291   4.525  0.2133 -0.1689 -0.5498
   36MOL     C3 7073   1.211   0.202   4.640  0.3663  0.2906  0.2238
   36MOL     C4 7074   1.144   0.239   4.765 -0.3646 -0.6653 -0.1192
   36MOL     H5 7075   1.077   0.256   4.491  1.3192 -2.6022 -1.3126
   36MOL     H6 7076   1.169   0.395   4.560 -0.4000 -0.7301  1.0955
   36MOL     H7 7077   1.188   0.099   4.611  0.7276  0.0678  0.7230
   36MOL     H8 7078   1.320   0.207   4.640  0.3778  0.3411 -1.6084
   36MOL     H9 7079   1.172   0.342   4.788 -3.4117 -0.3849  2.7920
   36MOL    H10 7080   1.183   0.172   4.842 -0.9167 -2.1818 -1.1303
   36MOL    H11 7081   1.263   0.171   4.404  0.0744  0.7230 -2.8031
   36MOL    O12 7082   1.003   0.224   4.769 -1.0085  0.6691  0.0278
   36MOL    C13 7083   0.947   0.255   4.893  0.3271 -0.4633  0.1112
   36MOL    C14 7084   0.796   0.266   4.858 -0.0734  0.3890  0.3269
   36MOL    C15 7085   0.721   0.314   4.983 -0.1968 -0.0048 -0.6511
   36MOL    H16 7086   0.971   0.356   4.925  0.6156 -1.0944  1.9746
   36MOL    H17 7087   0.970   0.172   4.961  0.7397 -0.7880 -0.4279
   36MOL    H18 7088   0.771   0.334   4.777  2.8324  3.0823  1.5877
   36MOL    H19 7089   0.767   0.164   4.831  1.1612  0.1693 -0.2078
   36MOL    H20 7090   0.755   0.414   5.009  2.3797 -1.2194  0.8001
   36MOL    H21 7091   0.736   0.242   5.063 -0.5981  0.9734  0.3054
   36MOL    O22 7092   0.584   0.319   4.949 -0.0214 -0.3774  0.5683
   36MOL    C23 7093   0.512   0.377   5.058  0.2215  0.0038 -0.1992
   36MOL    C24 7094   0.362   0.399   5.010  0.2892 -0.1628 -0.5251
   36MOL    C25 7095   0.295   0.495   5.104 -0.2133  0.6567  0.2647
   36MOL    H26 7096   0.549   0.472   5.095 -0.4293  0.1476  0.0973
   36MOL    H27 7097   0.510   0.302   5.138 -1.8273 -1.3946 -1.5164
   36MOL    H28 7098   0.357   0.443   4.910 -0.1594 -0.1167 -0.4810
   36MOL    H29 7099   0.314   0.301   5.000  1.1101 -0.9593  2.6229
   36MOL    H30 7100   0.331   0.596   5.084 -0.0998  0.3923 -0.9503
   36MOL    H31 7101   0.308   0.466   5.208  3.5597  1.0157 -0.0154
   36MOL    O32 7102   0.157   0.473   5.069 -0.2798  0.0809 -0.0440
   36MOL    C33 7103   0.076   0.558   5.149  1.0827  0.7388 -0.3392
   36MOL    C34 7104   7.721   0.512   5.133 -0.6092  0.1214  0.5360
   36MOL    C35 7105   7.615   0.617   5.173 -0.6464  0.4225 -0.2390
   36MOL    H36 7106   0.098   0.659   5.115 -1.3124  1.0004 -1.2201
   36MOL    H37 7107   0.101   0.567   5.255  0.2481  1.2750 -0.1835
   36MOL    H38 7108   7.716   0.475   5.030 -3.1590 -0.8027  0.9543
   36MOL    H39 7109   7.698   0.426   5.195 -0.3272  1.1130  2.0263
   36MOL    H40 7110   7.638   0.707   5.115 -3.1968  0.5762 -1.0837
   36MOL    H41 7111   7.627   0.657   5.274  2.6224  0.3847 -0.5392
   36MOL    O42 7112   7.485   0.570   5.148 -0.2174 -0.1150  0.1365
   36MOL    C43 7113   7.385   0.666   5.139 -0.1245 -0.0045 -0.3864
   36MOL    C44 7114   7.261   0.597   5.090  0.5821  0.1905  0.0681
   36MOL    C45 7115   7.138   0.685   5.096  0.1372 -0.1388  0.0167
   36MOL    H46 7116   7.426   0.749   5.081  2.3034 -2.0633 -1.7250
   36MOL    H47 7117   7.361   0.719   5.231  0.3086 -2.4931  1.2325
   36MOL    H48 7118   7.277   0.571   4.985 -1.3130 -2.0917  0.3140
   36MOL    H49 7119   7.241   0.508   5.149 -1.4401  0.7473  0.2345
   36MOL    H50 7120   7.138   0.772   5.031  1.6974 -1.2533 -1.5199
   36MOL    H51 7121   7.130   0.716   5.200  0.6585  1.8334 -0.5097
   36MOL    O52 7122   7.028   0.612   5.059 -0.1720 -0.3843 -0.3125
   36MOL    C53 7123   6.980   0.630   4.924  0.3836 -0.2572  0.5030
   36MOL    C54 7124   6.848   0.543   4.923  0.1173  0.2579  0.2483
   36MOL    C55 7125   6.785   0.553   4.785  0.8073  0.0159  0.0005
   36MOL    H56 7126   7.059   0.596   4.857 -1.3769 -0.1564 -1.6530
   36MOL    H57 7127   6.951   0.729   4.889 -1.8471  0.2674  3.6078
   36MOL    H58 7128   6.879   0.441   4.944 -0.4878  0.1955  0.8302
   36MOL    H59 7129   6.779   0.567   5.003 -1.0951 -1.5179 -0.2364
   36MOL    H60 7130   6.852   0.510   4.711  0.4583  1.8600 -1.4086
   36MOL    H61 7131   6.768   0.656   4.754  0.1638 -0.4456 -1.1939
   36MOL    O62 7132   6.661   0.487   4.771 -0.2554 -0.2992 -0.1606
   36MOL    C63 7133   6.605   0.494   4.642  0.1411 -0.0685 -0.3087
   36MOL    C64 7134   6.537   0.632   4.604 -0.4501 -0.7230 -0.2583
   36MOL    C65 7135   6.477   0.625   4.462  0.0886  0.3277 -0.9152
   36MOL    H66 7136   6.527   0.418   4.642 -0.2171  0.2864  0.3481
   36MOL    H67 7137   6.680   0.461   4.571  1.6401 -0.1095  1.2508
   36MOL    H68 7138   6.459   0.657   4.677 -2.1690 -2.9553 -1.2622
   36MOL    H69 7139   6.600   0.720   4.614  0.2530 -1.3487  0.9612
   36MOL    H70 7140   6.421   0.717   4.448  0.5107  0.6510 -0.5003
   36MOL    H71 7141   6.411   0.540   4.445 -0.3077  0.7320 -1.3936
   36MOL    O72 7142   6.583   0.626   4.373  0.0509  0.8690  0.0952
   36MOL    C73 7143   6.551   0.626   4.232 -0.4960 -0.2635 -0.2747
   36MOL    C74 7144   6.676   0.595   4.161 -0.3220  0.0680  0.2760
   36MOL    C75 7145   6.660   0.559   4.012  0.9489  0.3251  0.6578
   36MOL    H76 7146   6.512   0.725   4.206 -1.3382 -0.6946 -0.6665
   36MOL    H77 7147   6.474   0.555   4.203 -0.4553 -0.9295  1.1674
   36MOL    H78 7148   6.736   0.683   4.184  0.5434 -0.8361  1.5842
   36MOL    H79 7149   6.735   0.519   4.214 -0.1835  0.1389  0.2211
   36MOL    H80 7150   6.586   0.617   3.957 -0.4739 -1.4735  0.6208
   36MOL    H81 7151   6.629   0.454   4.013  1.3316  0.2056  0.3046
   36MOL    O82 7152   6.793   0.577   3.962 -0.1445 -0.0728 -0.0763
   36MOL    C83 7153   6.815   0.502   3.846  0.8959  0.4934  0.0221
   36MOL    C84 7154   6.933   0.568   3.783 -0.4219  0.0933 -0.0068
   36MOL    C85 7155   6.987   0.469   3.675 -0.6014 -0.0331 -0.6032
   36MOL    H86 7156   6.724   0.525   3.791  0.3003 -1.7453  0.0284
   36MOL    H87 7157   6.814   0.394   3.862 -1.0703  0.4184 -0.4869
   36MOL    H88 7158   6.904   0.653   3.721  1.2274  0.9081  0.3273
   36MOL    H89 7159   7.004   0.604   3.857 -1.1626 -1.3428  1.4331
   36MOL    H90 7160   6.909   0.442   3.604 -1.2351 -2.0036  0.7906
   36MOL    H91 7161   7.010   0.377   3.729 -1.3788 -0.1666 -0.4930
   36MOL    O92 7162   7.101   0.517   3.614 -0.2832  0.0608  0.0217
   36MOL    C93 7163   7.191   0.416   3.564  0.0552  0.1057 -0.5697
   36MOL    C94 7164   7.320   0.479   3.516  0.2124  0.5484 -0.6680
   36MOL    C95 7165   7.403   0.539   3.637  0.7015 -0.1735 -0.9018
   36MOL    H96 7166   7.132   0.374   3.483 -3.6185  0.6430  1.7158
   36MOL    H97 7167   7.204   0.332   3.632 -1.3961 -0.1887 -0.6462
   36MOL    H98 7168   7.372   0.393   3.472 -1.6683 -1.5562  1.1078
   36MOL    H99 7169   7.301   0.554   3.440  0.8813  1.0140 -0.3728
   36MOL   H100 7170   7.426   0.452   3.698 -1.3166  0.7047  1.1630
   36MOL   H101 7171   7.349   0.618   3.689  0.6322 -0.5644 -0.3895
   36MOL   O102 7172   7.522   0.607   3.601 -0.0805 -0.3657  0.3616
   36MOL   C103 7173   7.579   0.664   3.718 -0.0593  0.8190  0.9493
   36MOL   C104 7174   7.714   0.723   3.696  0.3106  0.1283 -0.3478
   36MOL   C105 7175   7.767   0.808   3.817  0.4597  0.1470  0.0649
   36MOL   H106 7176   7.592   0.585   3.792 -1.7691 -1.1818 -0.8268
   36MOL   H107 7177   7.512   0.735   3.766 -2.3582 -1.0286  0.5523
   36MOL   H108 7178   0.003   0.648   3.680  1.8452  1.4747  0.5506
   36MOL   H109 7179   7.711   0.769   3.598 -3.1094  1.6039  0.3734
   36MOL   H110 7180   7.786   0.742   3.902  0.5885 -1.4087 -1.1395
   36MOL   H111 7181   7.694   0.887   3.834  2.4918  1.4387  3.1491
   36MOL   O112 7182   0.095   0.880   3.780 -0.0415  0.1553  0.1575
   36MOL   C113 7183   0.141   0.952   3.891 -0.1139  0.7648 -0.6249
   36MOL   C114 7184   0.217   0.868   3.991  0.1455 -0.1273 -0.4495
   36MOL   C115 7185   0.341   0.793   3.930 -0.5622 -0.8989 -0.1515
   36MOL   H116 7186   0.070   1.010   3.951  0.5871 -0.0725  1.0367
   36MOL   H117 7187   0.213   1.026   3.857  1.0736  1.0149  2.2765
   36MOL   H118 7188   0.255   0.939   4.064 -3.7225  0.2408  1.3374
   36MOL   H119 7189   0.149   0.801   4.043  0.1235 -0.0969 -0.4390
   36MOL   H120 7190   0.290   0.725   3.862 -1.1214  0.4727 -1.1110
   36MOL   H121 7191   0.381   0.736   4.015 -0.3698  0.5643  0.7595
   36MOL   O122 7192   0.435   0.876   3.873  0.2029 -0.0669 -0.3589
   36MOL   C123 7193   0.471   0.827   3.748 -0.3560  0.2071 -0.1061
   36MOL   C124 7194   0.526   0.935   3.654  0.4530  0.2912 -0.1143
   36MOL   C125 7195   0.426   1.051   3.628  0.4751  0.0791 -0.3145
   36MOL   H126 7196   0.379   0.794   3.699 -0.3117  1.5746 -1.1206
   36MOL   H127 7197   0.544   0.746   3.743  0.4912  0.6576  3.8198
   36MOL   H128 7198   0.617   0.975   3.698  0.0243  2.8139 -1.4292
   36MOL   H129 7199   0.541   0.883   3.560  0.1040 -0.1793  0.0850
   36MOL   H130 7200   0.468   1.127   3.563 -0.2209 -0.1722 -1.0638
   36MOL   H131 7201   0.391   1.087   3.725 -1.6298 -0.5434 -0.8261
   36MOL   O132 7202   0.312   1.021   3.546  0.0745 -0.1968 -0.6769
   36MOL   C133 7203   0.216   1.132   3.533 -0.3365 -0.3136  0.1772
   36MOL   C134 7204   0.130   1.123   3.412  0.4876 -0.0572  0.9234
   36MOL   C135 7205   0.037   1.004   3.408  0.0475  0.3044 -0.0663
   36MOL   H136 7206   0.279   1.221   3.530 -1.3714  0.4074 -0.9770
   36MOL   H137 7207   0.148   1.138   3.618 -1.0963 -1.0586 -0.3760
   36MOL   H138 7208   0.073   1.215   3.401 -0.1991 -0.4114  1.4732
   36MOL   H139 7209   0.194   1.107   3.325 -0.5829  0.8245 -0.0454
   36MOL   H140 7210   7.773   1.011   3.503  3.2239 -0.5245  1.8132
   36MOL   H141 7211   0.093   0.911   3.413 -0.2055  0.2560  2.2767
   36MOL   O142 7212   7.747   1.013   3.289  0.4356 -0.7349 -0.1339
   36MOL   C143 7213   7.658   0.908   3.279 -0.1577  0.0959  0.3585
   36MOL   C144 7214   7.565   0.936   3.157  0.9373  0.1628 -0.2296
   36MOL   C145 7215   7.426   0.871   3.170  0.3899 -0.3542 -0.6552
   36MOL   H146 7216   7.605   0.897   3.374  0.9018  1.6986  1.1497
   36MOL   H147 7217   7.711   0.813   3.270  0.5650  0.6531 -1.4428
   36MOL   H148 7218   7.546   1.042   3.141  1.7425  0.8392  3.0124
   36MOL   H149 7219   7.614   0.900   3.066 -0.4745 -0.3276 -0.8113
   36MOL   H150 7220   7.386   0.915   3.261 -1.3655 -2.5829 -0.3016
   36MOL   H151 7221   7.443   0.764   3.182 -0.3915 -0.4879 -0.7294
   36MOL   O152 7222   7.345   0.903   3.055  0.0320 -0.0455 -0.1710
   36MOL   C153 7223   7.252   0.800   3.024  0.2967  0.2545  1.0848
   36MOL   C154 7224   7.217   0.808   2.872  0.4999  0.0303  0.6333
   36MOL   C155 7225   7.332   0.762   2.778  0.8184 -0.2953 -0.4050
   36MOL   H156 7226   7.167   0.811   3.092 -1.9902 -0.4301 -1.5276
   36MOL   H157 7227   7.294   0.702   3.047  0.0332  0.1804  1.2644
   36MOL   H158 7228   7.129   0.745   2.859 -1.1883  2.3785  0.3874
   36MOL   H159 7229   7.190   0.906   2.833  2.0111 -0.1247 -0.8454
   36MOL   H160 7230   7.384   0.680   2.828  1.1719 -0.1843 -0.5903
   36MOL   H161 7231   7.400   0.847   2.778 -1.4943  1.6281  1.3011
   36MOL   O162 7232   7.286   0.718   2.653 -0.6327  0.3510  0.4055
   36MOL   C163 7233   7.390   0.698   2.567 -0.9587  0.1492  0.3346
   36MOL   C164 7234   7.337   0.683   2.427  0.0320  0.0683 -0.0294
   36MOL   C165 7235   7.443   0.620   2.330  0.1648 -0.7447 -0.3823
   36MOL   H166 7236   7.441   0.606   2.597 -0.8132  0.2035  0.2548
   36MOL   H167 7237   7.463   0.779   2.563 -0.8103 -0.0798 -2.5978
   36MOL   H168 7238   7.243   0.627   2.428  0.5799 -0.8762  3.3721
   36MOL   H169 7239   7.310   0.782   2.387  1.0684  0.5442  0.4432
   36MOL   H170 7240   7.475   0.524   2.370  0.1850 -0.2853  0.7136
   36MOL   H171 7241   7.530   0.685   2.317 -0.7811  0.5610 -0.2665
   36MOL   O172 7242   7.366   0.608   2.207 -0.3062 -0.6556  0.0899
   36MOL   C173 7243   7.435   0.536   2.102 -0.1355  0.4924 -0.4129
   36MOL   C174 7244   7.330   0.492   2.002  0.0486  0.2274  0.1514
   36MOL   C175 7245   7.380   0.377   1.919 -0.0678 -0.2154  0.3837
   36MOL   H176 7246   7.494   0.449   2.132  0.4620  1.3269  0.8920
   36MOL   H177 7247   7.507   0.601   2.052 -2.6363  1.7297 -2.5370
   36MOL   H178 7248   7.238   0.465   2.054 -0.7371 -1.8555 -2.1885
   36MOL   H179 7249   7.302   0.577   1.939  1.1918 -0.2130 -0.9848
   36MOL   H180 7250   7.300   0.358   1.847 -1.2739 -0.8433  1.8520
   36MOL   H181 7251   7.408   0.293   1.981  1.1881 -0.6623 -0.7702
   36MOL   O182 7252   7.496   0.415   1.854 -0.2111 -0.7579  0.0250
   36MOL   C183 7253   7.505   0.427   1.709 -0.5570  0.4059 -0.7685
   36MOL   C184 7254   7.435   0.558   1.656  0.4325 -0.3369  0.1030
   36MOL   C185 7255   7.400   0.552   1.511  0.5358  0.8825  0.1333
   36MOL   H186 7256   7.464   0.333   1.671 -3.0322  0.6055  1.3084
   36MOL   H187 7257   7.612   0.425   1.692 -0.0007 -0.5855  2.6069
   36MOL   H188 7258   7.350   0.580   1.721 -0.6501 -1.0999 -1.0417
   36MOL   H189 7259   7.511   0.637   1.653 -2.1166  2.2210  0.2508
   36MOL   H190 7260   7.489   0.534   1.451  0.6785  2.1471 -0.0434
   36MOL   H191 7261   7.361   0.649   1.480  0.6029  1.3517  1.4965
   36MOL   O192 7262   7.292   0.461   1.491  0.1536  0.4929 -0.7166
   36MOL   C193 7263   7.255   0.457   1.354 -0.1412 -0.0111  0.3119
   36MOL   C194 7264   7.145   0.346   1.328  0.2581 -0.8433 -0.2514
   36MOL   C195 7265   7.059   0.367   1.202 -0.0992  0.9409  0.0639
   36MOL   H196 7266   7.335   0.445   1.282  0.0653  0.0171  0.5380
   36MOL   H197 7267   7.230   0.560   1.328  1.1776 -0.2223 -1.8466
   36MOL   H198 7268   7.183   0.244   1.333  0.0923 -0.8356  1.3549
   36MOL   H199 7269   7.078   0.341   1.414 -1.9886 -1.2925 -1.9924
   36MOL   H200 7270   6.978   0.295   1.201  2.0834 -1.5870  0.6531
   36MOL   H201 7271   7.115   0.382   1.109 -1.5669  1.5246 -0.7516
   36MOL   H202 7272   7.011   0.463   1.222 -0.1876  0.9522 -0.1961
   37MOL     O1 7273   3.634   6.056   7.571 -0.2973 -0.0526 -0.2770
   37MOL     C2 7274   3.757   6.093   7.617  0.2397 -0.1433  0.2981
   37MOL     C3 7275   3.740   6.163   7.744 -0.1788 -0.2887 -0.2519
   37MOL     C4 7276   3.871   6.212   0.017 -0.1305 -0.8143 -0.5142
   37MOL     H5 7277   3.804   6.158   7.543 -0.6810  3.8752  3.0701
   37MOL     H6 7278   3.828   6.012   7.632  0.8171  0.5095  1.1545
   37MOL     H7 7279   3.674   6.250   7.746  1.1495  0.8104 -2.0597
   37MOL     H8 7280   3.692   6.095   0.025 -1.5884 -0.4300 -1.3429
   37MOL     H9 7281   3.914   6.294   7.747 -0.4820  0.2543  0.6976
   37MOL    H10 7282   3.936   6.124   0.023 -0.5550 -1.2493 -2.1937
   37MOL    H11 7283   3.604   6.110   7.499  2.3171 -2.1563 -3.0784
   37MOL    O12 7284   3.852   6.241   0.155  0.3402 -0.1344  0.0683
   37MOL    C13 7285   3.967   6.300   0.220  0.6992  0.3065  1.0145
   37MOL    C14 7286   3.990   6.450   0.191  0.9658  0.4071  0.5765
   37MOL    C15 7287   4.096   6.517   0.275  0.1461 -0.6263  0.1233
   37MOL    H16 7288   4.048   6.233   0.191  0.9475  1.6058 -1.4789
   37MOL    H17 7289   3.957   6.293   0.328  1.8112  3.2781  1.3553
   37MOL    H18 7290   4.011   6.457   0.084 -1.3411 -2.5084 -0.1522
   37MOL    H19 7291   3.897   6.505   0.200  0.3661 -0.4953  0.0148
   37MOL    H20 7292   4.187   6.459   0.289 -0.0417 -0.9647 -0.0578
   37MOL    H21 7293   4.063   6.518   0.379  2.3411  2.8049  0.8793
   37MOL    O22 7294   4.126   6.647   0.233  0.2250 -0.1672 -0.2860
   37MOL    C23 7295   4.208   6.716   0.329  0.1718 -0.2719 -0.7142
   37MOL    C24 7296   4.238   6.856   0.272  0.7221 -0.0249 -0.2142
   37MOL    C25 7297   4.343   6.932   0.356  0.7758  0.1974 -0.3185
   37MOL    H26 7298   4.303   6.663   0.336  1.4295  1.6165 -2.8290
   37MOL    H27 7299   4.172   6.724   0.431  0.9477  0.8355 -0.5232
   37MOL    H28 7300   4.272   6.851   0.169 -1.0826  1.4722 -0.9090
   37MOL    H29 7301   4.143   6.910   0.272 -0.6091 -2.2138  2.1658
   37MOL    H30 7302   4.440   6.881   0.357  0.4669 -0.4147 -1.0065
   37MOL    H31 7303   4.320   6.935   0.463 -2.6632  1.2638 -1.0186
   37MOL    O32 7304   4.356   7.062   0.322 -0.4288  0.5807 -0.1411
   37MOL    C33 7305   4.242   7.150   0.337  0.0367 -0.4957  0.9007
   37MOL    C34 7306   4.289   7.297   0.311  0.0616  0.6692 -0.5484
   37MOL    C35 7307   4.168   7.387   0.318  0.5070 -0.5247 -0.3933
   37MOL    H36 7308   4.194   7.133   0.434 -0.8027 -1.0604  0.3907
   37MOL    H37 7309   4.165   7.132   0.261  0.6718 -1.9239  0.5774
   37MOL    H38 7310   4.366   7.305   0.387  1.0494  1.3972 -1.6121
   37MOL    H39 7311   4.333   7.305   0.212  0.4103  0.5513 -0.4034
   37MOL    H40 7312   4.086   7.343   0.376 -0.8593  1.8661 -0.4625
   37MOL    H41 7313   4.125   7.397   0.218  0.8328 -1.7911 -0.6676
   37MOL    O42 7314   4.203   7.510   0.379  0.0056 -0.0989 -0.1554
   37MOL    C43 7315   4.089   7.585   0.409 -0.1461 -0.2392  0.1555
   37MOL    C44 7316   4.138   7.727   0.443 -0.3380  0.6361  0.1823
   37MOL    C45 7317   4.046   0.051   0.415 -0.3905  0.1637  0.1091
   37MOL    H46 7318   4.037   7.541   0.494  4.0584 -1.8935  2.0598
   37MOL    H47 7319   4.028   7.602   0.320  0.7435  2.7847  0.0475
   37MOL    H48 7320   4.156   7.723   0.551  1.2929  0.1457 -0.0903
   37MOL    H49 7321   4.226   7.751   0.384 -0.4896  0.1016 -0.2587
   37MOL    H50 7322   3.980   0.061   0.501 -1.3625  2.5100 -0.8618
   37MOL    H51 7323   3.979   0.030   0.332  1.3921 -1.0439 -1.0669
   37MOL    O52 7324   4.114   0.176   0.404  0.1081  0.1580 -0.2779
   37MOL    C53 7325   4.035   0.288   0.442  0.4630  0.6456  0.5463
   37MOL    C54 7326   4.093   0.305   0.586  0.1041  0.6513  0.3639
   37MOL    C55 7327   4.034   0.418   0.661  0.0563  0.3230  0.5389
   37MOL    H56 7328   3.927   0.270   0.448  0.8134 -1.9323 -0.2122
   37MOL    H57 7329   4.044   0.375   0.377  1.7130  1.1815  1.4160
   37MOL    H58 7330   4.076   0.219   0.651  1.3992 -0.3985 -0.6365
   37MOL    H59 7331   4.200   0.328   0.585  0.3185 -0.2800  0.9870
   37MOL    H60 7332   3.925   0.417   0.651  0.2840  0.1356 -2.4144
   37MOL    H61 7333   4.050   0.515   0.613 -0.9200 -0.3685 -1.2596
   37MOL    O62 7334   4.063   0.416   0.796  0.6170  0.8025  0.4520
   37MOL    C63 7335   4.011   0.528   0.862 -0.0904  0.0515  0.2819
   37MOL    C64 7336   4.025   0.495   1.011  0.5752  0.8211 -0.6923
   37MOL    C65 7337   3.980   0.607   1.113  0.3641 -0.4422 -0.3910
   37MOL    H66 7338   3.910   0.552   0.829  0.5144  1.1096 -0.8806
   37MOL    H67 7339   4.073   0.617   0.847  2.0340 -1.5715 -0.7710
   37MOL    H68 7340   3.974   0.404   1.041  1.6770  0.2804 -0.4421
   37MOL    H69 7341   4.130   0.477   1.035 -0.1023  1.0768  2.6442
   37MOL    H70 7342   3.873   0.628   1.112  0.3741 -0.1560  2.1974
   37MOL    H71 7343   4.023   0.701   1.078 -1.4921  0.2948 -0.7492
   37MOL    O72 7344   4.034   0.559   1.238  0.5345 -0.0936 -0.3816
   37MOL    C73 7345   4.010   0.645   1.349 -0.1166 -0.0127 -0.2646
   37MOL    C74 7346   4.101   0.618   1.468  0.2758  0.5132  0.2862
   37MOL    C75 7347   4.093   0.478   1.525  0.9501 -0.0063  0.0623
   37MOL    H76 7348   3.904   0.645   1.375 -0.3500  0.6643 -1.1735
   37MOL    H77 7349   4.035   0.745   1.313  0.7356  0.6448  2.0870
   37MOL    H78 7350   4.203   0.631   1.432  0.7584  2.6201  2.3100
   37MOL    H79 7351   4.095   0.694   1.545 -0.2353  1.7553 -0.9615
   37MOL    H80 7352   4.133   0.413   1.446  0.9227 -1.4821  1.2495
   37MOL    H81 7353   3.990   0.446   1.540  0.5114 -0.1973 -2.8910
   37MOL    O82 7354   4.158   0.465   1.645  0.0821  0.1213  0.3133
   37MOL    C83 7355   4.167   0.334   1.707  0.0232 -0.4425 -0.3766
   37MOL    C84 7356   4.263   0.346   1.821 -0.5331 -0.0786 -0.0101
   37MOL    C85 7357   4.257   0.220   1.901  0.0850 -0.1673 -0.3412
   37MOL    H86 7358   4.201   0.257   1.638 -0.1981  0.4530 -1.4820
   37MOL    H87 7359   4.068   0.299   1.737  1.3004 -3.3523  0.6423
   37MOL    H88 7360   4.362   0.364   1.778 -0.5943 -0.7767 -0.4675
   37MOL    H89 7361   4.236   0.433   1.881 -0.8064  0.1594 -0.4718
   37MOL    H90 7362   4.349   0.190   1.951 -0.0954  0.9926  0.7083
   37MOL    H91 7363   4.232   0.133   1.840 -0.3670  0.1959 -0.6756
   37MOL    O92 7364   4.153   0.244   1.991 -0.1609 -0.1470 -0.1545
   37MOL    C93 7365   4.113   0.138   2.077 -0.5670  0.5522  0.0176
   37MOL    C94 7366   3.980   0.178   2.145 -0.0128  0.2770  0.2775
   37MOL    C95 7367   3.939   0.076   2.244  0.2691 -0.8288  0.2041
   37MOL    H96 7368   4.189   0.138   2.155  1.2228 -1.7479 -1.6811
   37MOL    H97 7369   4.123   0.038   2.034  0.1750  0.0718  1.2912
   37MOL    H98 7370   3.991   0.275   2.193  0.8210 -0.2915  1.2599
   37MOL    H99 7371   3.910   0.190   2.062 -0.2742  1.8834  0.7019
   37MOL   H100 7372   4.030   0.038   2.289  1.8335  3.1159  0.5786
   37MOL   H101 7373   3.882   7.783   2.199  0.6368 -0.1921 -1.4321
   37MOL   O102 7374   3.877   0.139   2.355  0.1145  0.1781 -0.2428
   37MOL   C103 7375   3.736   0.155   2.348  0.3157  0.4432  0.5760
   37MOL   C104 7376   3.679   0.221   2.474 -0.0034  0.1640 -0.2187
   37MOL   C105 7377   3.730   0.368   2.491 -0.6727 -0.1175  0.4196
   37MOL   H106 7378   3.694   0.056   2.335  0.7296  0.3831 -0.3451
   37MOL   H107 7379   3.710   0.215   2.261  0.7318 -1.0118 -0.5596
   37MOL   H108 7380   3.570   0.218   2.467 -0.0093 -3.7461  0.3062
   37MOL   H109 7381   3.720   0.165   2.558  0.3693  0.4225 -0.2299
   37MOL   H110 7382   3.839   0.367   2.499 -0.3657  3.4495 -2.1942
   37MOL   H111 7383   3.680   0.402   2.582  0.5026  1.0480  0.6524
   37MOL   O112 7384   3.686   0.448   2.383  0.2373 -0.4317 -0.0671
   37MOL   C113 7385   3.706   0.582   2.405 -0.2280  0.6845 -1.1385
   37MOL   C114 7386   3.667   0.666   2.282 -0.4851  0.2896 -0.7200
   37MOL   C115 7387   3.703   0.821   2.280  0.4029  0.2546 -0.7527
   37MOL   H116 7388   3.808   0.605   2.435  0.2066  1.4380 -3.1301
   37MOL   H117 7389   3.641   0.603   2.490 -0.2331 -1.9078 -0.4837
   37MOL   H118 7390   3.717   0.620   2.197  2.0508 -1.1468  1.4274
   37MOL   H119 7391   3.560   0.658   2.264 -0.2774 -0.9804 -1.4658
   37MOL   H120 7392   3.810   0.822   2.301  0.3584  1.0703 -0.5532
   37MOL   H121 7393   3.653   0.866   2.367 -0.7227  1.0309 -1.7859
   37MOL   O122 7394   3.676   0.887   2.159 -0.3730  0.3607  0.5500
   37MOL   C123 7395   3.753   1.007   2.142 -0.4967  0.7301 -0.5835
   37MOL   C124 7396   3.742   1.057   1.997  0.9860  0.1415 -0.2840
   37MOL   C125 7397   3.800   0.962   1.889 -0.2583  0.0411 -0.5386
   37MOL   H126 7398   3.859   0.987   2.159 -0.4387  0.2993 -1.4290
   37MOL   H127 7399   3.730   1.091   2.207  0.2983  0.1508  0.4462
   37MOL   H128 7400   3.641   1.086   1.970  0.0495 -0.2490  2.6622
   37MOL   H129 7401   3.804   1.146   1.984  1.7192 -0.4173 -0.7068
   37MOL   H130 7402   3.740   0.871   1.886  1.4351 -1.0953 -0.4044
   37MOL   H131 7403   3.904   0.942   1.911  0.0482 -0.1700 -2.1610
   37MOL   O132 7404   3.775   1.015   1.764  0.3898  0.5956 -0.1347
   37MOL   C133 7405   3.851   0.956   1.661  0.6907  0.2583 -0.8167
   37MOL   C134 7406   3.783   0.956   1.529 -0.4171 -0.1529 -0.4026
   37MOL   C135 7407   3.736   1.089   1.471 -0.5061 -0.9729 -0.8243
   37MOL   H136 7408   3.875   0.852   1.683 -0.1049 -0.1481 -1.8424
   37MOL   H137 7409   3.949   1.002   1.651  0.8516  0.0637 -0.1988
   37MOL   H138 7410   3.841   0.902   1.454 -1.1509 -1.1543 -0.2563
   37MOL   H139 7411   3.691   0.901   1.550  0.3915 -1.0656  0.8152
   37MOL   H140 7412   3.816   1.162   1.481 -1.6157  0.1756  0.0286
   37MOL   H141 7413   3.671   1.151   1.533 -0.1088  1.1851 -2.5183
   37MOL   O142 7414   3.681   1.077   1.344 -0.2198  0.0552  0.3721
   37MOL   C143 7415   3.573   0.982   1.326  0.1121 -0.2521 -0.6315
   37MOL   C144 7416   3.556   0.916   1.186  0.0585  0.3673 -0.0801
   37MOL   C145 7417   3.658   0.810   1.153  0.2871  0.2158 -0.6895
   37MOL   H146 7418   3.481   1.039   1.340 -1.1358 -2.2822 -0.3859
   37MOL   H147 7419   3.563   0.907   1.404 -0.0223  2.1284  1.7457
   37MOL   H148 7420   3.454   0.878   1.178  0.0198  0.2352  0.9035
   37MOL   H149 7421   3.560   0.994   1.111 -1.3709 -1.0050 -1.6266
   37MOL   H150 7422   3.666   0.729   1.226 -0.6912  1.0018  0.3119
   37MOL   H151 7423   3.754   0.862   1.146  0.0395  0.4363 -2.8539
   37MOL   O152 7424   3.648   0.764   1.018 -0.0350  0.3229  0.3296
   37MOL   C153 7425   3.581   0.645   0.992  0.2119 -0.2890 -0.5161
   37MOL   C154 7426   3.580   0.619   0.839  0.2964 -0.9815 -0.0382
   37MOL   C155 7427   3.465   0.695   0.763 -0.0899 -0.6317 -0.0353
   37MOL   H156 7428   3.479   0.637   1.031 -0.7415  0.0685 -2.9054
   37MOL   H157 7429   3.637   0.570   1.047 -0.9963 -0.3948  0.6143
   37MOL   H158 7430   3.676   0.625   0.788  0.5026  1.5924  0.5868
   37MOL   H159 7431   3.553   0.514   0.828  1.4407 -1.1329 -1.4842
   37MOL   H160 7432   3.457   0.687   0.655 -0.6489 -3.9448  0.1831
   37MOL   H161 7433   3.493   0.798   0.781 -1.1539 -0.1972 -0.7728
   37MOL   O162 7434   3.342   0.653   0.812  0.2507  0.0867 -0.0717
   37MOL   C163 7435   3.286   0.534   0.759  0.2200 -0.1814 -0.0195
   37MOL   C164 7436   3.176   0.481   0.864 -0.2385 -1.0377 -0.1143
   37MOL   C165 7437   3.097   0.360   0.812  0.2211  0.2119  0.2751
   37MOL   H166 7438   3.365   0.460   0.746  0.8004  0.3136  0.6691
   37MOL   H167 7439   3.251   0.555   0.658 -1.3377 -0.0144  0.5498
   37MOL   H168 7440   3.234   0.460   0.955  0.3562  1.6855  0.1793
   37MOL   H169 7441   3.103   0.558   0.888  0.0444 -0.1063 -2.1342
   37MOL   H170 7442   3.161   0.273   0.801  0.8525  0.4134  2.1474
   37MOL   H171 7443   3.046   0.399   0.723  2.7061  0.1689 -1.2095
   37MOL   O172 7444   3.007   0.320   0.919  0.0534 -0.4198 -0.0462
   37MOL   C173 7445   2.897   0.240   0.875 -0.5521 -0.4981 -0.0187
   37MOL   C174 7446   2.808   0.198   0.990  0.2413  0.2321 -0.6395
   37MOL   C175 7447   2.705   0.093   0.960  0.3068  0.3391  0.9291
   37MOL   H176 7448   2.948   0.157   0.827 -1.1660 -0.8645 -0.0469
   37MOL   H177 7449   2.841   0.291   0.796 -1.2827  1.4826  1.7456
   37MOL   H178 7450   2.868   0.144   1.062  0.5834  2.4324  0.7908
   37MOL   H179 7451   2.770   0.285   1.044  0.7838 -1.4235  2.5187
   37MOL   H180 7452   2.732   0.004   0.904 -0.4785  0.3296  0.5674
   37MOL   H181 7453   2.619   0.131   0.905  0.1536  0.5278  1.2990
   37MOL   O182 7454   2.661   0.039   1.080  0.3416 -0.2390  0.1931
   37MOL   C183 7455   2.549   7.740   1.088  0.4804 -0.1076 -0.2018
   37MOL   C184 7456   2.513   7.723   1.238 -0.0070  0.3069  0.5925
   37MOL   C185 7457   2.372   7.662   1.267  0.1894  0.6072 -0.3240
   37MOL   H186 7458   2.565   7.653   1.025  1.4300 -0.8521  1.0621
   37MOL   H187 7459   2.470   0.011   1.040  0.0255 -0.6183 -0.0866
   37MOL   H188 7460   2.594   7.685   1.299 -0.4613 -0.7707  0.5415
   37MOL   H189 7461   2.516   0.040   1.267 -1.1396  0.2094  1.0905
   37MOL   H190 7462   2.364   7.560   1.228  1.1602  0.4313 -0.0900
   37MOL   H191 7463   2.293   7.730   1.237 -2.4952 -0.9289  2.8872
   37MOL   O192 7464   2.362   7.664   1.407 -0.4687  0.1737  0.2959
   37MOL   C193 7465   2.231   7.646   1.453 -0.6289 -0.7178 -1.2494
   37MOL   C194 7466   2.208   7.699   1.591  0.3515 -0.0651  0.0517
   37MOL   C195 7467   2.288   7.628   1.686  0.0066  0.4476 -0.0491
   37MOL   H196 7468   2.216   7.538   1.451 -0.5496 -0.7400 -0.7770
   37MOL   H197 7469   2.153   7.689   1.391 -0.5993  0.9877 -0.1494
   37MOL   H198 7470   2.231   0.016   1.602 -1.0599  0.7614 -3.9891
   37MOL   H199 7471   2.105   7.682   1.622  1.0409 -0.1228  2.3677
   37MOL   H200 7472   2.248   7.633   1.787  1.6706 -0.4991  0.6666
   37MOL   H201 7473   2.382   7.683   1.686  0.3596 -0.1518 -0.8242
   37MOL   H202 7474   2.303   7.523   1.660  0.2980  0.1990  1.1235
   38MOL     O1 7475   2.664   7.297   1.063  0.4331  0.7785 -0.0197
   38MOL     C2 7476   2.683   7.372   1.191 -0.1606 -0.6716 -0.0034
   38MOL     C3 7477   2.796   7.316   1.260 -0.0955 -0.1540  0.0455
   38MOL     C4 7478   2.830   7.391   1.395  0.0301  0.2817  0.3654
   38MOL     H5 7479   2.596   7.400   1.250  0.1958  0.0494  0.1952
   38MOL     H6 7480   2.716   7.469   1.153  1.3610 -0.5819  1.4805
   38MOL     H7 7481   2.781   7.210   1.283  0.4697  0.0687  1.4812
   38MOL     H8 7482   2.881   7.321   1.192 -3.1367  1.9970 -3.8071
   38MOL     H9 7483   2.900   7.330   1.452 -0.0509  1.0795  1.3331
   38MOL    H10 7484   2.753   7.428   1.462 -0.8105  1.3944 -1.1644
   38MOL    H11 7485   2.723   7.322   0.993  0.4728 -2.9546 -1.4644
   38MOL    O12 7486   2.902   7.517   1.371 -0.3717  0.2462 -0.3558
   38MOL    C13 7487   2.905   7.600   1.489  0.2198  0.9450 -0.0038
   38MOL    C14 7488   3.004   7.712   1.476  0.9559 -0.2550  1.1141
   38MOL    C15 7489   3.000   0.003   1.606 -0.7735 -0.5569  0.0328
   38MOL    H16 7490   2.940   7.540   1.574 -1.9419 -0.7609 -0.2675
   38MOL    H17 7491   2.803   7.632   1.513  0.0873  3.4994 -3.6362
   38MOL    H18 7492   3.107   7.684   1.453  1.0278 -0.1919  1.3570
   38MOL    H19 7493   2.961   7.779   1.402  0.9526 -0.4718  0.9195
   38MOL    H20 7494   3.027   7.728   1.691  0.1437 -0.5909 -0.2797
   38MOL    H21 7495   2.902   0.046   1.623 -0.9819 -0.9523 -0.1587
   38MOL    O22 7496   3.091   0.111   1.590 -0.2269 -0.0273 -0.2757
   38MOL    C23 7497   3.079   0.204   1.701 -0.4304  0.5603  0.8867
   38MOL    C24 7498   3.138   0.336   1.651 -0.6783  0.0829 -0.4143
   38MOL    C25 7499   3.210   0.409   1.765  0.3646  0.4249 -0.1274
   38MOL    H26 7500   3.135   0.155   1.781 -1.1101  0.9327  1.6020
   38MOL    H27 7501   2.982   0.211   1.751 -0.5694 -2.4909  1.1348
   38MOL    H28 7502   3.219   0.318   1.581  0.3139  2.5298  0.0840
   38MOL    H29 7503   3.062   0.398   1.604 -1.6623  1.5975  3.0021
   38MOL    H30 7504   3.293   0.344   1.792 -0.6374 -1.8522 -2.3348
   38MOL    H31 7505   3.133   0.422   1.841 -1.3838  0.4146 -1.8567
   38MOL    O32 7506   3.262   0.527   1.712 -0.1548  0.0623  0.4578
   38MOL    C33 7507   3.303   0.613   1.816 -0.0186 -0.0775  0.3442
   38MOL    C34 7508   3.347   0.759   1.768  1.1827 -0.4799  0.0818
   38MOL    C35 7509   3.386   0.852   1.881 -0.0775  0.3573  0.7254
   38MOL    H36 7510   3.388   0.571   1.869  1.0970  2.5889  0.7476
   38MOL    H37 7511   3.231   0.620   1.898 -0.0195  1.8056  0.2049
   38MOL    H38 7512   3.429   0.748   1.698 -0.5155 -2.1824 -1.7135
   38MOL    H39 7513   3.269   0.813   1.715  0.9852 -2.4864 -1.7434
   38MOL    H40 7514   3.441   0.934   1.834 -1.9250  1.5212  0.5112
   38MOL    H41 7515   3.464   0.806   1.941 -0.6351 -2.3144 -0.5458
   38MOL    O42 7516   3.265   0.904   1.945  0.3574  0.0360 -0.1591
   38MOL    C43 7517   3.281   0.915   2.086 -0.0686 -0.1585 -0.9728
   38MOL    C44 7518   3.251   0.783   2.164 -0.2378  0.5534  0.1520
   38MOL    C45 7519   3.265   0.801   2.316  0.4692  1.6901  0.3655
   38MOL    H46 7520   3.210   0.994   2.112 -1.0997 -0.4943 -2.6705
   38MOL    H47 7521   3.382   0.946   2.112 -1.3325  1.7800  1.9372
   38MOL    H48 7522   3.145   0.759   2.151  0.3755 -2.2494  0.0686
   38MOL    H49 7523   3.294   0.688   2.135  2.7495  2.3306 -1.4622
   38MOL    H50 7524   3.363   0.840   2.342  1.0029 -0.0915  1.1048
   38MOL    H51 7525   3.260   0.703   2.363 -0.3996  1.2342 -0.6721
   38MOL    O52 7526   3.161   0.880   2.373  0.5661  0.4127  0.0410
   38MOL    C53 7527   3.131   0.863   2.510 -0.3497 -0.1194  0.5609
   38MOL    C54 7528   3.016   0.953   2.560 -0.1205  0.0249 -0.2349
   38MOL    C55 7529   2.988   0.930   2.707 -0.1740 -0.2995 -0.7902
   38MOL    H56 7530   3.219   0.891   2.568 -0.1306 -1.4124  0.8539
   38MOL    H57 7531   3.105   0.759   2.528 -0.4700  0.2635  2.6645
   38MOL    H58 7532   3.039   1.059   2.553  0.3371  0.0866  1.8097
   38MOL    H59 7533   2.934   0.943   2.489  1.0802 -0.1324 -1.6159
   38MOL    H60 7534   2.972   0.824   2.726  0.1220 -0.4503 -1.3535
   38MOL    H61 7535   2.901   0.994   2.723 -0.0815 -0.5050  0.5755
   38MOL    O62 7536   3.090   0.987   2.787  0.2774  0.1413 -0.0829
   38MOL    C63 7537   3.059   0.994   2.924 -0.5312  0.5881 -0.1551
   38MOL    C64 7538   3.195   1.043   2.982  0.4604 -0.3264 -0.1317
   38MOL    C65 7539   3.203   1.075   3.131  0.2137  0.3797  0.0280
   38MOL    H66 7540   3.014   0.902   2.962 -0.3071 -0.1002 -1.5321
   38MOL    H67 7541   2.981   1.069   2.941  0.6515  1.6710  0.5488
   38MOL    H68 7542   3.247   0.950   2.962 -1.4676 -1.2101 -1.1424
   38MOL    H69 7543   3.231   1.130   2.928 -0.4222  0.2436  0.1815
   38MOL    H70 7544   3.295   1.055   3.187 -0.2983 -2.5236 -0.0456
   38MOL    H71 7545   3.128   1.010   3.177 -0.1433  0.5475 -0.3127
   38MOL    O72 7546   3.162   1.212   3.153 -0.1892  0.2822  0.8946
   38MOL    C73 7547   3.155   1.258   3.293 -0.1874 -0.3438 -0.0609
   38MOL    C74 7548   3.133   1.410   3.288 -0.6346  0.4323  0.2432
   38MOL    C75 7549   3.109   1.464   3.428  0.8226  0.8552 -0.4776
   38MOL    H76 7550   3.251   1.238   3.340 -0.2782  1.4430  0.9477
   38MOL    H77 7551   3.079   1.204   3.350 -1.1093  2.9639  1.9982
   38MOL    H78 7552   3.216   1.468   3.248 -0.5336  2.5891  3.3830
   38MOL    H79 7553   3.042   1.431   3.232 -0.5558  2.2003  0.7370
   38MOL    H80 7554   3.200   1.454   3.486 -0.0915 -1.3218  0.6374
   38MOL    H81 7555   3.021   1.409   3.463  1.1024  1.1761  0.7545
   38MOL    O82 7556   3.067   1.601   3.412  0.4099  0.0616 -0.1450
   38MOL    C83 7557   3.041   1.679   3.528  0.0222  0.0885 -0.2927
   38MOL    C84 7558   3.168   1.732   3.599  0.1388  0.3131  0.1611
   38MOL    C85 7559   3.138   1.837   3.703 -0.0813 -0.1797 -0.3617
   38MOL    H86 7560   2.981   1.615   3.593  2.6798  1.0851  3.3067
   38MOL    H87 7561   2.981   1.764   3.494 -0.1833  0.4741  0.9980
   38MOL    H88 7562   3.233   1.655   3.639  1.4468  1.3665  0.0805
   38MOL    H89 7563   3.225   1.781   3.520  2.2509 -0.0489  1.4198
   38MOL    H90 7564   3.082   1.798   3.787  0.0932  0.4998  0.0728
   38MOL    H91 7565   3.071   1.912   3.661  3.0120  2.6195 -0.5517
   38MOL    O92 7566   3.256   1.893   3.757  0.4614  0.0475 -0.4191
   38MOL    C93 7567   3.219   2.006   3.834  0.2738 -0.2091  0.5373
   38MOL    C94 7568   3.351   2.068   3.877 -0.4402 -0.0812  0.4742
   38MOL    C95 7569   3.360   2.212   3.923  0.5942  0.1686 -0.7109
   38MOL    H96 7570   3.146   1.999   3.914 -1.1749  1.2457 -0.6359
   38MOL    H97 7571   3.181   2.080   3.763  0.7635  1.6383  2.1496
   38MOL    H98 7572   3.403   2.014   3.956 -0.6834 -0.4385  0.3913
   38MOL    H99 7573   3.417   2.062   3.790 -0.5795 -0.3994  0.3922
   38MOL   H100 7574   3.293   2.231   4.007  1.0158  0.2892 -0.3982
   38MOL   H101 7575   3.326   2.276   3.842 -1.3519 -0.7917 -0.6828
   38MOL   O102 7576   3.495   2.237   3.962  0.0481 -0.3336  0.3596
   38MOL   C103 7577   3.531   2.377   3.966 -0.2034  1.2616 -0.3114
   38MOL   C104 7578   3.681   2.399   3.992  0.1881 -0.1650 -0.6202
   38MOL   C105 7579   3.721   2.545   3.993 -0.6652  0.1187 -0.0867
   38MOL   H106 7580   3.479   2.406   4.057  0.3518  1.0609  0.0724
   38MOL   H107 7581   3.497   2.428   3.875 -1.3590 -0.6029 -0.9538
   38MOL   H108 7582   3.718   2.348   4.081 -0.3683 -0.2688 -0.4499
   38MOL   H109 7583   3.735   2.344   3.914  3.0957  1.1931  0.3421
   38MOL   H110 7584   3.655   2.602   4.060  0.0375  1.1274 -0.2386
   38MOL   H111 7585   3.714   2.593   3.895 -1.6177  1.7740  0.7741
   38MOL   O112 7586   3.853   2.580   4.026  0.1985  0.1044 -0.1595
   38MOL   C113 7587   3.890   2.571   4.161  0.4581  0.2720  0.8797
   38MOL   C114 7588   4.042   2.576   4.167  0.6417 -0.7449  0.2883
   38MOL   C115 7589   4.100   2.710   4.112 -0.3059 -0.0673 -0.1487
   38MOL   H116 7590   3.855   2.473   4.196  0.6651  0.0080  0.3413
   38MOL   H117 7591   3.841   2.648   4.220  0.2685 -0.0970  1.2088
   38MOL   H118 7592   4.075   2.551   4.268 -1.2732 -0.7378  0.9190
   38MOL   H119 7593   4.084   2.491   4.112  2.9637  1.4796 -1.4968
   38MOL   H120 7594   4.053   2.794   4.163  4.3509  2.0641  0.9805
   38MOL   H121 7595   4.083   2.715   4.005  1.2322  1.4250 -0.3570
   38MOL   O122 7596   4.242   2.694   4.145 -0.5608  0.2906  0.0363
   38MOL   C123 7597   4.308   2.822   4.154  0.4908 -0.0382  0.3212
   38MOL   C124 7598   4.462   2.807   4.186 -0.3566 -1.0000 -0.3385
   38MOL   C125 7599   4.486   2.751   4.320  0.1237  0.0808 -0.1774
   38MOL   H126 7600   4.254   2.884   4.225 -0.9831 -1.4961  0.4903
   38MOL   H127 7601   4.300   2.874   4.058  0.7976  0.8458  0.7708
   38MOL   H128 7602   4.514   2.746   4.113  3.3148  0.6318  0.7829
   38MOL   H129 7603   4.508   2.905   4.183  1.2106 -1.6713  0.7827
   38MOL   H130 7604   4.592   2.730   4.336 -0.4649 -1.9218  1.3337
   38MOL   H131 7605   4.446   2.650   4.327  1.9110 -0.7669 -1.8504
   38MOL   O132 7606   4.454   2.832   4.432  0.4896 -0.0770 -0.3893
   38MOL   C133 7607   4.387   2.771   4.541 -0.5300 -0.0457  0.1810
   38MOL   C134 7608   4.251   2.714   4.498 -0.1439 -0.1695 -0.1000
   38MOL   C135 7609   4.157   2.708   4.626  0.2620 -0.0028 -0.5899
   38MOL   H136 7610   4.369   2.842   4.622  0.2900  2.1325 -1.4896
   38MOL   H137 7611   4.460   2.700   4.579  0.7603  1.2969  0.2646
   38MOL   H138 7612   4.211   2.778   4.419 -1.0235 -0.7046 -0.0876
   38MOL   H139 7613   4.257   2.615   4.454  1.2099 -0.4251  0.6301
   38MOL   H140 7614   4.164   2.806   4.672  0.1023  0.6339 -1.9026
   38MOL   H141 7615   4.184   2.630   4.697  1.2136  0.3114 -0.5904
   38MOL   O142 7616   4.024   2.687   4.586  0.0022 -0.2342  0.6349
   38MOL   C143 7617   3.934   2.700   4.691  0.5540 -0.0797  0.1598
   38MOL   C144 7618   3.799   2.643   4.634  0.0780  0.4554  0.2966
   38MOL   C145 7619   3.738   2.730   4.527 -0.0439  0.3448  0.3846
   38MOL   H146 7620   3.918   2.806   4.710  2.2825  0.5400 -1.6109
   38MOL   H147 7621   3.974   2.669   4.787  1.0379 -0.3798 -0.1340
   38MOL   H148 7622   3.798   2.539   4.599  1.4194  0.7074 -0.5243
   38MOL   H149 7623   3.728   2.646   4.716 -0.7046 -1.9359 -0.2422
   38MOL   H150 7624   3.809   2.729   4.445  1.0661  0.1434  1.3292
   38MOL   H151 7625   3.714   2.833   4.554  0.3674  0.2573  1.1102
   38MOL   O152 7626   3.619   2.668   4.475 -0.1467  0.2242  0.3098
   38MOL   C153 7627   3.567   2.749   4.364 -0.6592  0.5030 -0.1087
   38MOL   C154 7628   3.448   2.681   4.305 -0.4631 -0.1810  0.0359
   38MOL   C155 7629   3.415   2.742   4.170  0.0200  0.0026  0.1652
   38MOL   H156 7630   3.647   2.759   4.291  0.5797 -1.9539  0.8674
   38MOL   H157 7631   3.552   2.853   4.396 -3.1086 -0.0980  0.8552
   38MOL   H158 7632   3.473   2.577   4.287 -0.4749 -0.0041 -1.0449
   38MOL   H159 7633   3.362   2.673   4.372 -1.2625  3.0841 -0.5146
   38MOL   H160 7634   3.496   2.737   4.097  0.0818 -0.9867  0.2943
   38MOL   H161 7635   3.401   2.849   4.188 -0.4194  0.1567 -1.0586
   38MOL   O162 7636   3.308   2.670   4.113 -0.4880 -0.2754 -0.3097
   38MOL   C163 7637   3.256   2.734   3.995 -0.1582  0.3502  0.2288
   38MOL   C164 7638   3.125   2.665   3.954  0.7902  0.2656  0.0093
   38MOL   C165 7639   3.137   2.519   3.900  0.0170 -0.2207  0.0103
   38MOL   H166 7640   3.335   2.732   3.919 -0.4054 -0.9178 -0.0040
   38MOL   H167 7641   3.222   2.837   4.012 -2.1140 -0.1716 -0.4008
   38MOL   H168 7642   3.053   2.659   4.035  1.3319 -1.8514  0.3678
   38MOL   H169 7643   3.075   2.731   3.883  1.4741  0.0808 -0.6582
   38MOL   H170 7644   3.145   2.449   3.983  1.7817  0.1460  0.1642
   38MOL   H171 7645   3.226   2.510   3.837  0.4623  0.3693  0.5522
   38MOL   O172 7646   3.025   2.487   3.817 -0.2696  0.2350  0.7894
   38MOL   C173 7647   3.035   2.362   3.743 -0.9325  0.5863  0.0248
   38MOL   C174 7648   2.930   2.348   3.633  0.5106 -0.3456  0.1875
   38MOL   C175 7649   2.960   2.440   3.509  0.5536  0.5284 -0.1631
   38MOL   H176 7650   3.027   2.276   3.809 -0.6734  0.3723 -0.2192
   38MOL   H177 7651   3.133   2.360   3.695 -1.6066  0.7989 -1.4037
   38MOL   H178 7652   2.925   2.245   3.597  1.4335  0.4932 -2.4759
   38MOL   H179 7653   2.832   2.367   3.678 -0.1191 -0.5277 -1.0709
   38MOL   H180 7654   3.050   2.425   3.450  0.9495  0.3070  0.4850
   38MOL   H181 7655   2.978   2.539   3.551  4.8027 -0.7215  1.2039
   38MOL   O182 7656   2.839   2.439   3.423  0.5157 -0.5109  0.1180
   38MOL   C183 7657   2.862   2.514   3.309  0.2673 -0.0304  1.1485
   38MOL   C184 7658   2.737   2.535   3.220 -0.4002  0.7576  0.8348
   38MOL   C185 7659   2.761   2.653   3.121  0.0657 -0.2388  0.0883
   38MOL   H186 7660   2.940   2.465   3.251 -1.9361 -1.4526 -0.6935
   38MOL   H187 7661   2.899   2.610   3.347  0.8798  0.9572 -1.7659
   38MOL   H188 7662   2.703   2.445   3.169 -0.5867  1.0374  0.4631
   38MOL   H189 7663   2.658   2.542   3.295 -2.1213 -4.1561 -0.2974
   38MOL   H190 7664   2.820   2.735   3.161 -2.3291  0.4554  2.3028
   38MOL   H191 7665   2.663   2.689   3.088  0.0607  1.0350  1.4794
   38MOL   O192 7666   2.833   2.605   3.011  0.2484 -0.2304 -0.0870
   38MOL   C193 7667   2.877   2.700   2.913 -0.2236 -0.0984  0.8140
   38MOL   C194 7668   2.975   2.637   2.807 -0.0916 -0.5434  0.2588
   38MOL   C195 7669   2.907   2.529   2.721 -0.5906  0.3012 -0.0737
   38MOL   H196 7670   2.926   2.787   2.957  0.7846 -0.1984 -0.0997
   38MOL   H197 7671   2.793   2.751   2.866 -0.5962 -1.4385 -0.0103
   38MOL   H198 7672   3.014   2.716   2.744 -0.3941 -1.1270 -0.6751
   38MOL   H199 7673   3.064   2.597   2.856 -0.6163 -3.2196 -0.8563
   38MOL   H200 7674   2.844   2.571   2.642 -0.6541 -1.6456 -1.0699
   38MOL   H201 7675   2.837   2.470   2.780 -0.3224  0.8475  0.8008
   38MOL   H202 7676   2.981   2.464   2.676 -1.9382 -1.7914  0.6354
   39MOL     O1 7677   4.314   1.053   6.208  0.0442  0.6042 -0.1256
   39MOL     C2 7678   4.328   1.055   6.353 -0.2370 -0.3436  0.3724
   39MOL     C3 7679   4.328   0.922   6.428  0.1919  0.1189 -0.1905
   39MOL     C4 7680   4.330   0.938   6.583 -0.2205 -0.0027 -0.0845
   39MOL     H5 7681   4.254   1.125   6.391 -2.1958 -1.4861 -1.2263
   39MOL     H6 7682   4.428   1.096   6.366 -0.0411 -0.2664 -1.1920
   39MOL     H7 7683   4.251   0.852   6.397  0.8552 -0.9424  0.5455
   39MOL     H8 7684   4.416   0.862   6.405 -0.1754 -0.5862  0.2621
   39MOL     H9 7685   4.236   0.988   6.606 -1.2940 -1.4422 -1.2738
   39MOL    H10 7686   4.401   1.015   6.614 -2.1672  0.6435  2.9853
   39MOL    H11 7687   4.290   1.141   6.181 -0.8773  0.5295  0.4373
   39MOL    O12 7688   4.358   0.809   6.630 -0.4507 -0.0485 -0.7481
   39MOL    C13 7689   4.398   0.798   6.767  0.2204 -0.6594  0.1033
   39MOL    C14 7690   4.405   0.643   6.805  0.5236 -0.6473 -0.4376
   39MOL    C15 7691   4.401   0.602   6.961  0.5880  0.1487  0.5672
   39MOL    H16 7692   4.326   0.853   6.828  0.1504 -0.5268 -0.1009
   39MOL    H17 7693   4.492   0.850   6.784  0.9644 -2.0242  0.2384
   39MOL    H18 7694   4.326   0.595   6.747 -0.5790  0.0063  0.5062
   39MOL    H19 7695   4.489   0.588   6.762  0.6570 -0.6795 -0.1327
   39MOL    H20 7696   4.332   0.662   7.021  0.1699  1.5092 -1.2337
   39MOL    H21 7697   4.502   0.617   6.999  1.0480 -0.5259 -0.3574
   39MOL    O22 7698   4.368   0.467   6.950 -0.5211  0.3869 -0.5022
   39MOL    C23 7699   4.369   0.401   7.081  0.2814 -0.2469  0.1294
   39MOL    C24 7700   4.498   0.316   7.089 -0.2008 -0.4768 -0.6368
   39MOL    C25 7701   4.545   0.260   7.223 -0.0302 -0.5144 -0.0285
   39MOL    H26 7702   4.282   0.336   7.084 -2.8729  3.8054  2.1954
   39MOL    H27 7703   4.359   0.476   7.160 -1.5380 -0.5184  0.1721
   39MOL    H28 7704   4.491   0.238   7.012 -0.9039  1.0943 -2.2062
   39MOL    H29 7705   4.581   0.372   7.046 -0.0744 -1.3528 -1.5610
   39MOL    H30 7706   4.460   0.227   7.283 -1.4545  1.7303 -0.7492
   39MOL    H31 7707   4.584   0.344   7.281 -0.7782  0.1532 -0.4685
   39MOL    O32 7708   4.634   0.150   7.211  0.4923  0.7520 -0.1901
   39MOL    C33 7709   4.698   0.118   7.330 -1.0302 -0.0401 -0.4572
   39MOL    C34 7710   4.766   7.765   7.310  0.2877  0.2168 -0.4347
   39MOL    C35 7711   4.869   7.731   7.408 -0.8249 -0.7293 -0.1515
   39MOL    H36 7712   4.633   0.117   7.417 -1.6220  0.7974 -0.8915
   39MOL    H37 7713   4.777   0.192   7.349 -0.8959 -0.3392  0.1747
   39MOL    H38 7714   4.687   7.690   7.303  0.2186  0.4573 -2.9436
   39MOL    H39 7715   4.819   7.763   7.215 -1.5545  1.3948 -1.5237
   39MOL    H40 7716   4.814   7.738   7.502 -0.3313 -2.0977  0.2362
   39MOL    H41 7717   4.947   0.019   7.410 -0.8692 -0.6968  0.3986
   39MOL    O42 7718   4.924   7.597   7.389 -0.7304 -0.0094 -1.2237
   39MOL    C43 7719   5.009   7.561   7.497 -0.7366 -0.2670 -0.5423
   39MOL    C44 7720   5.077   7.426   7.475  0.2884 -1.1870 -0.0333
   39MOL    C45 7721   5.199   7.403   7.557 -0.5581 -1.0379  0.0503
   39MOL    H46 7722   4.960   7.569   7.593  1.4837 -2.9700  0.8923
   39MOL    H47 7723   5.080   7.643   7.483  0.3705 -1.1363 -0.1269
   39MOL    H48 7724   5.000   7.353   7.500  1.3128 -2.5097 -0.7009
   39MOL    H49 7725   5.100   7.414   7.369  0.4646 -0.1965 -0.1214
   39MOL    H50 7726   5.231   7.299   7.551 -0.2455 -0.9723  0.5415
   39MOL    H51 7727   5.174   7.422   7.662  1.5565  0.9565  0.2341
   39MOL    O52 7728   5.314   7.475   7.507  0.5493  0.2239 -0.3133
   39MOL    C53 7729   5.433   7.412   7.560 -0.2144 -0.4027 -0.2380
   39MOL    C54 7730   5.555   7.483   7.501 -0.5236 -0.3454 -1.0120
   39MOL    C55 7731   5.568   7.478   7.344 -0.5406 -0.2882  0.2698
   39MOL    H56 7732   5.449   7.307   7.538 -1.7953 -0.4549 -1.1625
   39MOL    H57 7733   5.447   7.412   7.668  0.9465  0.7051 -0.3616
   39MOL    H58 7734   5.565   7.583   7.544  0.4177 -1.3477  1.1378
   39MOL    H59 7735   5.642   7.422   7.525  2.0193  1.9563 -3.8359
   39MOL    H60 7736   5.667   7.510   7.312 -0.6551  0.8377  1.0179
   39MOL    H61 7737   5.500   7.554   7.306 -2.8869 -2.0782  0.6864
   39MOL    O62 7738   5.547   7.350   7.279  0.5668  0.3960  0.0482
   39MOL    C63 7739   5.420   7.327   7.223  0.5133  0.0896  0.1822
   39MOL    C64 7740   5.406   7.188   7.161 -0.1343 -1.1770 -0.0302
   39MOL    C65 7741   5.421   7.067   7.257 -0.0173  0.0906 -0.1770
   39MOL    H66 7742   5.402   7.396   7.140 -2.2011 -0.5143  0.1982
   39MOL    H67 7743   5.342   7.353   7.295 -0.3085  0.0820 -0.6851
   39MOL    H68 7744   5.304   7.185   7.123 -0.3318  1.7242  0.1497
   39MOL    H69 7745   5.478   7.177   7.080 -1.5801  2.5019 -1.9538
   39MOL    H70 7746   5.341   7.077   7.330  1.3196 -0.9080  1.4553
   39MOL    H71 7747   5.510   7.071   7.320 -0.1316 -1.0711  0.0662
   39MOL    O72 7748   5.407   6.945   7.182  0.6406  0.4443 -0.0032
   39MOL    C73 7749   5.378   6.829   7.257  0.5990 -0.1636 -0.8313
   39MOL    C74 7750   5.375   6.709   7.163 -0.0524 -0.2121  0.0518
   39MOL    C75 7751   5.499   6.691   7.079  0.0152 -0.4667  0.0194
   39MOL    H76 7752   5.273   6.838   7.283  0.4986 -3.6410  0.3216
   39MOL    H77 7753   5.448   6.804   7.337 -0.3356 -0.5074 -0.1041
   39MOL    H78 7754   5.368   6.612   7.214  2.0593  0.3802  1.5221
   39MOL    H79 7755   5.285   6.724   7.104  0.2417 -0.7282 -0.5430
   39MOL    H80 7756   5.579   6.702   7.152  0.0790  1.1375 -0.2875
   39MOL    H81 7757   5.508   6.778   7.014  1.0078 -1.6305 -1.4297
   39MOL    O82 7758   5.502   6.572   7.005 -0.2400  0.0639 -1.0601
   39MOL    C83 7759   5.635   6.521   6.962  0.1170 -0.2825 -0.5958
   39MOL    C84 7760   5.618   6.420   6.848 -0.0348 -0.0907  0.4538
   39MOL    C85 7761   5.744   6.342   6.814 -0.2423 -0.2443 -0.7559
   39MOL    H86 7762   5.682   6.468   7.044  1.8883  2.9888  0.6034
   39MOL    H87 7763   5.691   6.613   6.945 -1.2856  0.3012 -2.2484
   39MOL    H88 7764   5.538   6.349   6.867 -0.4705  0.2725 -0.0342
   39MOL    H89 7765   5.600   6.476   6.756 -0.2845 -1.5881 -0.4258
   39MOL    H90 7766   5.817   6.414   6.776  1.9803 -1.6745  0.6439
   39MOL    H91 7767   5.729   6.281   6.725 -0.3385 -2.1391  0.5428
   39MOL    O92 7768   5.785   6.265   6.928  0.2604 -0.0742  0.1191
   39MOL    C93 7769   5.901   6.189   6.917  0.2836 -0.4303 -0.4155
   39MOL    C94 7770   5.897   6.065   7.006  0.3717 -0.6128  0.6041
   39MOL    C95 7771   6.035   6.006   7.018  0.3188 -0.2867  0.0694
   39MOL    H96 7772   5.994   6.246   6.928  0.8093 -1.1629 -0.9611
   39MOL    H97 7773   5.913   6.163   6.812  0.2068  0.7376 -0.7185
   39MOL    H98 7774   5.864   6.099   7.104  2.9457  1.2298  0.8934
   39MOL    H99 7775   5.830   5.984   6.976  0.0802  0.6196 -2.2002
   39MOL   H100 7776   6.096   6.078   7.071  0.8124  1.0669 -2.2640
   39MOL   H101 7777   6.093   5.997   6.926  0.9731  1.8047  0.2610
   39MOL   O102 7778   6.046   5.884   7.088 -0.6277  0.1974  0.1346
   39MOL   C103 7779   6.186   5.862   7.095  0.1053 -0.5142  0.2492
   39MOL   C104 7780   6.201   5.744   7.195  0.0242  0.4768 -0.3429
   39MOL   C105 7781   6.181   5.602   7.136 -0.6091  0.0276 -0.8569
   39MOL   H106 7782   6.240   5.944   7.142 -0.2481 -0.3543  0.3787
   39MOL   H107 7783   6.228   5.841   6.996 -2.5307 -1.3141 -0.7398
   39MOL   H108 7784   6.297   5.752   7.246  0.0001  1.5190 -0.4516
   39MOL   H109 7785   6.138   5.766   7.282  0.2982  2.7283 -0.7045
   39MOL   H110 7786   6.245   5.597   7.048 -1.1127 -0.7485 -1.1743
   39MOL   H111 7787   6.078   5.583   7.108 -0.7956  0.2471 -0.3302
   39MOL   O112 7788   6.240   5.510   7.231 -0.2692 -0.4025 -0.1037
   39MOL   C113 7789   6.298   5.394   7.171 -0.0830 -0.3813 -0.0073
   39MOL   C114 7790   6.377   5.320   7.278 -0.1809  0.2716  0.1503
   39MOL   C115 7791   6.480   5.217   7.227  0.2416 -0.2252  0.1505
   39MOL   H116 7792   6.371   5.418   7.094 -2.0697  1.2384 -1.4252
   39MOL   H117 7793   6.226   5.324   7.127 -1.7175  2.2314 -1.5879
   39MOL   H118 7794   6.430   5.384   7.348  0.8668 -0.6461  0.2088
   39MOL   H119 7795   6.299   5.272   7.336  1.4934 -0.7902  1.5639
   39MOL   H120 7796   6.566   5.276   7.195  0.1301  2.5930  4.6414
   39MOL   H121 7797   6.433   5.142   7.163 -0.0747 -0.4793  0.6790
   39MOL   O122 7798   6.532   5.157   7.341  0.3409  0.5939  0.2652
   39MOL   C123 7799   6.635   5.063   7.315  0.5095  0.3578  0.8688
   39MOL   C124 7800   6.669   4.983   7.446 -0.4190 -0.3905  0.0649
   39MOL   C125 7801   6.776   4.875   7.417  0.8425  0.1673  0.3510
   39MOL   H126 7802   6.718   5.128   7.288  1.0425 -0.2301  1.0770
   39MOL   H127 7803   6.603   5.007   7.227  2.5954 -0.7183  0.7579
   39MOL   H128 7804   6.705   5.047   7.527  0.6498 -1.8368  0.7574
   39MOL   H129 7805   6.580   4.927   7.475 -1.2131 -0.2003 -1.9296
   39MOL   H130 7806   6.779   4.835   7.316 -3.3474  0.4265  0.0056
   39MOL   H131 7807   6.757   4.796   7.491 -0.4334 -0.7812 -0.9642
   39MOL   O132 7808   6.908   4.930   7.434  0.7243 -0.2215 -0.3757
   39MOL   C133 7809   7.010   4.831   7.455  0.5864  0.8522  0.1785
   39MOL   C134 7810   7.149   4.880   7.447 -0.4685  0.1608  0.4010
   39MOL   C135 7811   7.254   4.777   7.500  0.7845 -0.1150  0.3536
   39MOL   H136 7812   6.998   4.741   7.396 -0.7341  1.0085  0.1796
   39MOL   H137 7813   6.986   4.801   7.557 -0.5547  4.7619  1.1794
   39MOL   H138 7814   7.176   4.904   7.344 -1.0202  2.0628  0.6716
   39MOL   H139 7815   7.173   4.976   7.493  2.4930 -0.4778  0.2753
   39MOL   H140 7816   7.268   4.695   7.430  1.1330  0.5802 -0.4143
   39MOL   H141 7817   7.216   4.739   7.594 -0.3989  0.2233  0.0275
   39MOL   O142 7818   7.370   4.855   7.521 -0.5141  0.9401 -0.4432
   39MOL   C143 7819   7.467   4.765   7.573  0.0436 -0.0249  0.5690
   39MOL   C144 7820   7.591   4.838   7.627 -0.7228 -0.1175 -0.5027
   39MOL   C145 7821   7.706   4.738   7.644 -0.0777 -0.2419  0.1132
   39MOL   H146 7822   7.499   4.699   7.492 -2.0950 -1.7712  1.0936
   39MOL   H147 7823   7.436   4.689   7.645  0.5979 -0.9383 -0.1585
   39MOL   H148 7824   7.628   4.909   7.553  0.0569 -0.5473 -0.5343
   39MOL   H149 7825   7.573   4.886   7.722  1.7449 -0.0043 -0.0763
   39MOL   H150 7826   7.730   4.683   7.552 -2.3249  0.4633 -0.9331
   39MOL   H151 7827   7.682   4.662   7.718 -0.3300 -1.4787 -1.1961
   39MOL   O152 7828   0.037   4.802   7.689 -0.1845 -0.0814  0.3208
   39MOL   C153 7829   0.149   4.722   7.725  0.4814  0.0746 -0.2058
   39MOL   C154 7830   0.271   4.804   7.778  0.2989  0.0585  0.3536
   39MOL   C155 7831   0.389   4.705   0.023  0.1126 -0.0597 -0.0653
   39MOL   H156 7832   0.183   4.666   7.637  0.9869  0.5386 -0.3031
   39MOL   H157 7833   0.133   4.647   0.015 -0.4606  1.0745  0.5786
   39MOL   H158 7834   0.300   4.881   7.707  1.7738 -0.9139 -0.1134
   39MOL   H159 7835   0.250   4.858   0.083 -0.7235 -1.8834  1.2908
   39MOL   H160 7836   0.423   4.667   7.715 -1.1804  0.7948 -0.8815
   39MOL   H161 7837   0.344   4.631   0.089  1.4270  0.4785  1.4602
   39MOL   O162 7838   0.489   4.760   0.102 -0.4632  0.4633 -0.3628
   39MOL   C163 7839   0.605   4.679   0.114  0.0759  0.1778 -0.7988
   39MOL   C164 7840   0.713   4.734   0.211  0.5812  0.1602  0.2988
   39MOL   C165 7841   0.829   4.640   0.239  0.8909  0.3915 -0.1031
   39MOL   H166 7842   0.660   4.663   0.021  1.5651  0.5737  0.0011
   39MOL   H167 7843   0.568   4.578   0.131  1.3615 -0.2250 -0.3714
   39MOL   H168 7844   0.751   4.832   0.182  0.8212  0.2848  1.0191
   39MOL   H169 7845   0.674   4.759   0.310  0.9003 -1.0733  0.7485
   39MOL   H170 7846   0.794   4.541   0.268 -2.1299  1.2178 -0.7955
   39MOL   H171 7847   0.895   4.679   0.317  0.9047  0.5004 -0.1689
   39MOL   O172 7848   0.902   4.637   0.112 -0.0632 -0.4050  0.0126
   39MOL   C173 7849   1.020   4.557   0.118 -0.1645 -0.6710  0.4424
   39MOL   C174 7850   1.139   4.641   0.174 -0.1229  0.4730 -0.2919
   39MOL   C175 7851   1.276   4.586   0.137 -0.1403  0.2207  0.6180
   39MOL   H176 7852   1.039   4.538   0.012  0.3547 -3.0808  0.9443
   39MOL   H177 7853   1.009   4.459   0.165  2.6013 -1.7348 -1.0057
   39MOL   H178 7854   1.129   4.743   0.138  0.3822  0.7130  0.2363
   39MOL   H179 7855   1.153   4.650   0.282 -1.3009 -2.3077  0.1327
   39MOL   H180 7856   1.284   4.563   0.031  0.0090  3.5667 -0.1534
   39MOL   H181 7857   1.303   4.501   0.199  0.5500 -0.6017 -0.7956
   39MOL   O182 7858   1.377   4.685   0.167  0.6844  0.4996 -0.2731
   39MOL   C183 7859   1.502   4.622   0.144  0.4532 -0.0958  0.2366
   39MOL   C184 7860   1.605   4.729   0.168 -0.5374  0.9411 -0.1784
   39MOL   C185 7861   1.751   4.673   0.144 -0.0706 -0.4839  0.0178
   39MOL   H186 7862   1.502   4.576   0.045  0.2440 -2.5345  1.3320
   39MOL   H187 7863   1.522   4.532   0.201 -0.5499  0.0889  0.8964
   39MOL   H188 7864   1.578   4.815   0.108 -0.4942  1.3137  0.3306
   39MOL   H189 7865   1.598   4.766   0.270 -0.6203  0.3038  0.0476
   39MOL   H190 7866   1.762   4.629   0.045  0.3142 -2.4149  0.8955
   39MOL   H191 7867   1.757   4.594   0.219 -0.9889  0.4068  1.0442
   39MOL   O192 7868   1.836   4.792   0.162 -0.0395 -0.4380 -0.2908
   39MOL   C193 7869   1.973   4.777   0.159 -0.3291  0.4516 -0.0276
   39MOL   C194 7870   2.049   4.908   0.172  0.1345  0.4639 -0.1386
   39MOL   C195 7871   1.996   4.991   0.296 -0.4561  0.5075 -0.0114
   39MOL   H196 7872   1.994   4.743   0.058 -0.0098 -1.1496  0.5643
   39MOL   H197 7873   2.002   4.703   0.234 -3.4757  2.4949  3.3185
   39MOL   H198 7874   2.157   4.896   0.169  0.2829  1.5054  0.9240
   39MOL   H199 7875   2.021   4.961   0.081  0.1660 -1.4336 -1.2814
   39MOL   H200 7876   2.038   4.938   0.382 -0.0814  0.5386 -0.1726
   39MOL   H201 7877   1.889   5.009   0.299 -0.8326 -1.6858  0.9579
   39MOL   H202 7878   2.060   5.079   0.292  4.3122 -2.6597  1.5353
   40MOL     O1 7879   0.063   2.703   0.691 -0.5970 -0.2971  0.5943
   40MOL     C2 7880   7.744   2.743   0.616 -0.1261 -0.6358 -0.5268
   40MOL     C3 7881   7.704   2.644   0.501  0.2685  0.0487  0.0292
   40MOL     C4 7882   7.588   2.692   0.417 -0.2980 -0.7229  0.2432
   40MOL     H5 7883   7.763   2.845   0.582 -0.1209  0.1119  1.6811
   40MOL     H6 7884   7.660   2.748   0.684  1.4292 -1.7590  1.5293
   40MOL     H7 7885   0.006   2.630   0.441 -0.2012 -0.4360 -0.5591
   40MOL     H8 7886   7.670   2.555   0.553  0.7363 -0.1829 -0.0616
   40MOL     H9 7887   7.630   2.776   0.362 -2.7539  2.7256  3.4021
   40MOL    H10 7888   7.510   2.732   0.482 -0.0417 -0.9873  0.7140
   40MOL    H11 7889   0.147   2.719   0.653  0.0602 -3.0938  0.7404
   40MOL    O12 7890   7.546   2.588   0.337  0.4252  0.4077 -0.2401
   40MOL    C13 7891   7.422   2.607   0.282  0.6717  0.2318 -0.0979
   40MOL    C14 7892   7.369   2.468   0.266 -0.0285  0.4180  0.2696
   40MOL    C15 7893   7.218   2.476   0.214 -0.2480 -0.1001  0.0050
   40MOL    H16 7894   7.434   2.665   0.191  1.8901  0.2914  0.0805
   40MOL    H17 7895   7.352   2.661   0.345  0.7868 -0.1697  0.3792
   40MOL    H18 7896   7.437   2.420   0.197 -0.4042  0.0741  0.1406
   40MOL    H19 7897   7.361   2.418   0.363 -0.0822  0.6286  0.3756
   40MOL    H20 7898   7.152   2.534   0.278  0.5361 -1.2259  1.8674
   40MOL    H21 7899   7.176   2.375   0.214  1.7425 -0.9489 -1.1530
   40MOL    O22 7900   7.220   2.529   0.081  0.2816 -0.3107 -0.2978
   40MOL    C23 7901   7.093   2.517   0.006 -0.1796 -0.4895 -0.1875
   40MOL    C24 7902   7.119   2.585   7.659 -0.0390 -0.2450  0.4723
   40MOL    C25 7903   7.205   2.501   7.560 -0.0409 -0.3297 -0.2462
   40MOL    H26 7904   7.012   2.565   0.061 -0.4080  0.0420 -0.9858
   40MOL    H27 7905   7.055   2.415   0.004 -0.3162 -0.4253 -0.9937
   40MOL    H28 7906   7.023   2.579   7.608  0.3921 -0.1546 -0.3580
   40MOL    H29 7907   7.151   2.689   7.662  2.8891 -1.1109  0.1645
   40MOL    H30 7908   7.148   2.410   7.541 -2.1610  0.9658 -0.1831
   40MOL    H31 7909   7.308   2.482   7.591  0.4281 -0.5424 -1.8572
   40MOL    O32 7910   7.220   2.560   7.427  0.3614  0.1390  0.1233
   40MOL    C33 7911   7.249   2.464   7.326  0.1052 -0.4895  0.1647
   40MOL    C34 7912   7.324   2.518   7.201 -0.2906 -0.2449  0.5617
   40MOL    C35 7913   7.363   2.408   7.108 -0.2079 -0.8500 -0.5197
   40MOL    H36 7914   7.151   2.425   7.298  1.2715 -2.1887 -1.7528
   40MOL    H37 7915   7.290   2.375   7.374 -1.1293 -1.2286 -0.1141
   40MOL    H38 7916   7.282   2.606   7.153  1.7914  0.0033 -0.8537
   40MOL    H39 7917   7.419   2.558   7.236  0.6696  0.2885 -2.5141
   40MOL    H40 7918   7.280   2.371   7.048 -1.5636  0.5459  0.4617
   40MOL    H41 7919   7.391   2.326   7.174 -0.4245 -0.1694  0.4196
   40MOL    O42 7920   7.470   2.446   7.019  0.1783  0.0460 -0.6549
   40MOL    C43 7921   7.550   2.341   6.972  0.4601  0.0541 -0.2482
   40MOL    C44 7922   7.658   2.393   6.881 -0.4963  0.9562  0.1016
   40MOL    C45 7923   7.768   2.464   6.955  0.0473  0.6533 -0.6286
   40MOL    H46 7924   7.480   2.274   6.923 -1.6942  1.4912  0.8024
   40MOL    H47 7925   7.584   2.287   7.061  3.3085  1.8611 -0.1788
   40MOL    H48 7926   7.701   2.312   6.822  0.5432  2.0415 -0.6749
   40MOL    H49 7927   7.623   2.472   6.815  2.2751  1.2584 -1.0801
   40MOL    H50 7928   0.026   2.400   7.031  0.7252  0.7725 -0.9403
   40MOL    H51 7929   7.737   2.557   7.002  1.1027  1.1915 -1.0104
   40MOL    O52 7930   0.084   2.504   6.870 -0.3729 -0.1530  0.4641
   40MOL    C53 7931   0.201   2.525   6.938 -0.8958 -0.1663  0.2361
   40MOL    C54 7932   0.302   2.578   6.831 -0.2094 -0.4319 -0.2979
   40MOL    C55 7933   0.424   2.614   6.909 -0.0013  0.0712 -0.8096
   40MOL    H56 7934   0.239   2.428   6.972 -0.1499  0.6108  1.6795
   40MOL    H57 7935   0.186   2.596   7.020  0.8375  0.3850  0.0984
   40MOL    H58 7936   0.331   2.510   6.751  0.6925 -2.2085  1.5084
   40MOL    H59 7937   0.258   2.666   6.783  2.4134  0.9177 -0.2902
   40MOL    H60 7938   0.469   2.520   6.941  0.8874  1.0148  0.7348
   40MOL    H61 7939   0.405   2.654   7.008 -2.3874 -0.3039 -1.0932
   40MOL    O62 7940   0.497   2.693   6.818 -0.2455  0.1856  0.5522
   40MOL    C63 7941   0.622   2.735   6.870  0.3999  0.1425 -1.0122
   40MOL    C64 7942   0.623   2.881   6.846  0.2376  0.3453  0.2030
   40MOL    C65 7943   0.751   2.952   6.873 -0.2035 -0.0154 -0.3966
   40MOL    H66 7944   0.707   2.683   6.826 -0.5913 -1.0395 -1.5399
   40MOL    H67 7945   0.621   2.710   6.976  0.2556  2.3458 -0.4673
   40MOL    H68 7946   0.612   2.904   6.741  2.4750  1.5691  0.2240
   40MOL    H69 7947   0.535   2.920   6.898  1.2782 -0.3806  2.5862
   40MOL    H70 7948   0.835   2.905   6.822 -0.2329  1.4271 -1.8151
   40MOL    H71 7949   0.768   2.962   6.980  0.0672  0.3255 -0.4705
   40MOL    O72 7950   0.739   3.088   6.836 -0.2702  0.2310 -0.3282
   40MOL    C73 7951   0.850   3.172   6.863 -0.1417 -0.0094 -0.0723
   40MOL    C74 7952   0.827   3.305   6.807 -0.0313  0.5023 -0.2074
   40MOL    C75 7953   0.941   3.406   6.809 -0.1312 -0.1442 -0.3053
   40MOL    H76 7954   0.939   3.128   6.818  0.7949  1.2028  0.5859
   40MOL    H77 7955   0.874   3.171   6.969 -1.6107 -0.2553  0.2713
   40MOL    H78 7956   0.793   3.289   6.704 -0.1771  1.2862 -0.2881
   40MOL    H79 7957   0.751   3.361   6.861 -0.6169  0.2563 -0.7700
   40MOL    H80 7958   0.961   3.433   6.913 -0.2110  0.7520 -0.5210
   40MOL    H81 7959   0.898   3.498   6.768 -0.6864 -0.1176  0.3221
   40MOL    O82 7960   1.057   3.364   6.738  0.2459  0.0865 -0.5378
   40MOL    C83 7961   1.164   3.463   6.746 -0.1158 -0.0319  0.5488
   40MOL    C84 7962   1.266   3.424   6.636  0.1967 -0.6265  0.2757
   40MOL    C85 7963   1.334   3.290   6.683 -0.7434  0.4876  0.0851
   40MOL    H86 7964   1.220   3.469   6.839  1.8074  1.2674 -0.6782
   40MOL    H87 7965   1.116   3.560   6.738 -2.1668 -0.9602  1.1576
   40MOL    H88 7966   1.211   3.412   6.543  0.2921  1.2012 -0.0331
   40MOL    H89 7967   1.347   3.495   6.621 -0.1201 -0.1089  0.9650
   40MOL    H90 7968   1.273   3.203   6.706 -1.6915  1.1739  0.1890
   40MOL    H91 7969   1.406   3.310   6.762  0.0522  0.2175 -0.5637
   40MOL    O92 7970   1.410   3.249   6.569  0.6172  0.0784  1.0922
   40MOL    C93 7971   1.480   3.129   6.593  0.1513  0.0251 -0.1658
   40MOL    C94 7972   1.558   3.096   6.469 -0.3400 -0.3165 -0.5989
   40MOL    C95 7973   1.642   2.966   6.472  0.1840  0.0139 -0.0685
   40MOL    H96 7974   1.408   3.049   6.609 -0.3651  0.4151 -0.5316
   40MOL    H97 7975   1.546   3.152   6.676 -2.0315  4.1741  0.5421
   40MOL    H98 7976   1.489   3.116   6.387 -1.1626 -0.8894 -0.0619
   40MOL    H99 7977   1.638   3.168   6.451  1.4032 -2.4008 -1.3129
   40MOL   H100 7978   1.564   2.890   6.476 -0.3435  0.6252  1.7711
   40MOL   H101 7979   1.702   2.976   6.563 -1.8027  1.2956  1.1230
   40MOL   O102 7980   1.705   2.948   6.347  0.4743  0.2019 -0.0531
   40MOL   C103 7981   1.793   2.835   6.337 -0.1974 -0.7401  0.2466
   40MOL   C104 7982   1.852   2.829   6.200 -0.6521 -0.2396  0.1910
   40MOL   C105 7983   1.947   2.705   6.189  0.5208 -0.0930 -0.4621
   40MOL   H106 7984   1.736   2.745   6.360  1.1121 -1.4685  0.6630
   40MOL   H107 7985   1.868   2.830   6.415  0.0860 -0.4019 -0.0034
   40MOL   H108 7986   1.772   2.827   6.126 -1.3681  0.1313  0.9490
   40MOL   H109 7987   1.912   2.919   6.188 -1.8879  0.4983 -0.5725
   40MOL   H110 7988   1.893   2.610   6.197 -2.1769  1.1603 -2.8818
   40MOL   H111 7989   2.016   2.724   6.271 -1.1310  1.2411  0.6574
   40MOL   O112 7990   2.023   2.702   6.069 -0.0595  0.1785  0.3307
   40MOL   C113 7991   1.948   2.698   5.948  0.9842  0.3116  1.0827
   40MOL   C114 7992   2.047   2.681   5.829 -0.6029 -0.1912 -0.0280
   40MOL   C115 7993   1.995   2.703   5.687  0.8289  0.6602 -0.2003
   40MOL   H116 7994   1.904   2.797   5.938  0.0841  0.0516  2.3327
   40MOL   H117 7995   1.868   2.626   5.964  0.1915  1.0586  0.4942
   40MOL   H118 7996   2.130   2.751   5.836 -2.1048  1.4834  1.3858
   40MOL   H119 7997   2.088   2.582   5.849 -1.6496 -0.7176 -0.4141
   40MOL   H120 7998   2.054   2.775   5.631  0.0762  1.5550  0.1593
   40MOL   H121 7999   1.888   2.719   5.677  0.6459 -1.2696 -1.7999
   40MOL   O122 8000   2.045   2.587   5.621 -0.1546  0.2883 -0.2442
   40MOL   C123 8001   2.010   2.581   5.479  0.7454  0.5041  0.5838
   40MOL   C124 8002   2.116   2.496   5.415 -0.2339  0.3656 -0.0728
   40MOL   C125 8003   2.254   2.552   5.436  0.5566 -0.8247  0.2867
   40MOL   H126 8004   2.013   2.683   5.441  3.9910  1.7830  3.9129
   40MOL   H127 8005   1.914   2.530   5.469  0.4319  0.7711  2.0925
   40MOL   H128 8006   2.113   2.395   5.456  2.0322 -0.0079 -0.7336
   40MOL   H129 8007   2.091   2.494   5.309  0.9940  2.1138 -0.4234
   40MOL   H130 8008   2.314   2.507   5.516  2.4512  0.8231 -0.1647
   40MOL   H131 8009   2.254   2.661   5.442  2.5782 -0.8352  0.8523
   40MOL   O132 8010   2.317   2.508   5.319 -0.3668 -0.1985  0.5340
   40MOL   C133 8011   2.418   2.585   5.264 -0.2703 -0.0137 -0.5862
   40MOL   C134 8012   2.490   2.494   5.158 -0.1421 -0.0071 -0.5578
   40MOL   C135 8013   2.610   2.555   5.085  0.1265 -0.2788 -0.3268
   40MOL   H136 8014   2.494   2.603   5.340  0.3140  0.1864 -1.2059
   40MOL   H137 8015   2.393   2.681   5.219 -1.8005 -0.7983 -1.4182
   40MOL   H138 8016   2.519   2.399   5.203  0.5392  0.5800  0.2523
   40MOL   H139 8017   2.402   2.475   5.097  0.6304  0.5430 -1.8530
   40MOL   H140 8018   2.672   2.481   5.034 -1.0076 -0.4561 -1.5092
   40MOL   H141 8019   2.681   2.603   5.151 -0.5489  0.1404  0.0954
   40MOL   O142 8020   2.553   2.654   5.002  0.3555 -0.1690 -0.2194
   40MOL   C143 8021   2.515   2.618   4.867  0.4406 -0.7208  0.7968
   40MOL   C144 8022   2.433   2.733   4.810 -0.0930  0.0388  0.4375
   40MOL   C145 8023   2.399   2.720   4.662  0.9517 -0.4408 -1.0856
   40MOL   H146 8024   2.453   2.528   4.861 -0.8186  0.2434 -1.0261
   40MOL   H147 8025   2.609   2.606   4.814  0.6189  0.4072  0.8519
   40MOL   H148 8026   2.343   2.744   4.870 -0.0185 -0.2568  0.6041
   40MOL   H149 8027   2.496   2.821   4.824  0.0288  0.2205 -1.1683
   40MOL   H150 8028   2.332   2.801   4.631 -0.3266 -0.7971  0.6426
   40MOL   H151 8029   2.350   2.624   4.645  1.6623 -1.0918  0.4320
   40MOL   O152 8030   2.510   2.729   4.583 -0.2784 -0.1500  0.2582
   40MOL   C153 8031   2.477   2.750   4.447 -0.0376 -0.2651  0.2449
   40MOL   C154 8032   2.591   2.696   4.356 -0.1638 -0.7107  0.0251
   40MOL   C155 8033   2.564   2.697   4.207 -0.8298 -0.0555 -0.0456
   40MOL   H156 8034   2.472   2.857   4.432  1.7883  0.0426  1.6779
   40MOL   H157 8035   2.380   2.707   4.420  0.5179 -1.8126  0.6331
   40MOL   H158 8036   2.680   2.759   4.365  0.2607 -1.0924 -1.4366
   40MOL   H159 8037   2.623   2.600   4.397 -1.6342  0.1192  3.3326
   40MOL   H160 8038   2.556   2.804   4.190 -0.8038  0.0902  0.8606
   40MOL   H161 8039   2.466   2.656   4.184  0.2538 -1.8062 -1.7529
   40MOL   O162 8040   2.662   2.648   4.113 -0.0444 -0.9262  0.2566
   40MOL   C163 8041   2.627   2.661   3.980  0.7394 -0.0388 -0.3034
   40MOL   C164 8042   2.747   2.648   3.883 -0.2121  0.6780 -0.6073
   40MOL   C165 8043   2.699   2.647   3.732 -1.1298 -0.4471 -0.8256
   40MOL   H166 8044   2.560   2.743   3.952 -1.7932 -1.0016  2.7143
   40MOL   H167 8045   2.556   2.580   3.963 -1.1095  0.8437  2.7277
   40MOL   H168 8046   2.818   2.728   3.903  0.4123  0.9854 -3.7039
   40MOL   H169 8047   2.798   2.552   3.886  1.8405  1.6897 -1.6535
   40MOL   H170 8048   2.786   2.629   3.668  1.6330  0.9603  2.3760
   40MOL   H171 8049   2.664   2.743   3.693 -1.5826  0.2884  1.3378
   40MOL   O172 8050   2.623   2.534   3.712  0.3489 -0.1505 -0.2056
   40MOL   C173 8051   2.527   2.540   3.599  0.0174  0.2275 -0.1115
   40MOL   C174 8052   2.473   2.396   3.554 -0.1488 -0.0506  0.2816
   40MOL   C175 8053   2.376   2.397   3.437  0.4633 -0.3242  0.0333
   40MOL   H176 8054   2.581   2.587   3.516  1.0426 -2.4883 -1.0364
   40MOL   H177 8055   2.444   2.600   3.636  0.4922  1.3980 -0.8906
   40MOL   H178 8056   2.561   2.339   3.526  0.3677  1.3883 -1.0563
   40MOL   H179 8057   2.429   2.345   3.640  1.9920  1.4756  2.3381
   40MOL   H180 8058   2.425   2.423   3.343 -0.2733  0.9681 -0.0012
   40MOL   H181 8059   2.300   2.470   3.464  1.0490  0.5787 -0.7599
   40MOL   O182 8060   2.311   2.273   3.429  0.0915  0.1729  0.6639
   40MOL   C183 8061   2.230   2.245   3.322  0.4755 -0.4294 -0.6150
   40MOL   C184 8062   2.145   2.116   3.354  0.2514  0.0667 -0.0045
   40MOL   C185 8063   2.229   1.989   3.393 -0.2806  0.0216  0.0718
   40MOL   H186 8064   2.284   2.236   3.228 -0.7947 -1.9584 -1.1985
   40MOL   H187 8065   2.164   2.331   3.311 -0.4790 -1.2397 -1.2220
   40MOL   H188 8066   2.071   2.139   3.432 -1.9683 -1.9054 -1.4539
   40MOL   H189 8067   2.083   2.088   3.269 -0.2344  1.7055 -0.2095
   40MOL   H190 8068   2.315   2.020   3.453 -0.9294 -0.6715  1.3860
   40MOL   H191 8069   2.275   1.949   3.303 -1.1947 -0.3330 -0.2373
   40MOL   O192 8070   2.146   1.895   3.450 -0.0771  0.3344  0.4660
   40MOL   C193 8071   2.195   1.765   3.428 -0.5212 -0.5486 -0.0767
   40MOL   C194 8072   2.100   1.657   3.480  0.3481  0.4999 -1.2512
   40MOL   C195 8073   1.967   1.639   3.397 -0.0866  0.0520 -0.3599
   40MOL   H196 8074   2.288   1.769   3.484 -1.0332 -0.2884  0.7665
   40MOL   H197 8075   2.219   1.742   3.324  1.9234  0.1006  0.3333
   40MOL   H198 8076   2.153   1.563   3.493 -1.0153 -0.0805  0.2418
   40MOL   H199 8077   2.069   1.690   3.579  0.6074 -1.1044 -0.6288
   40MOL   H200 8078   1.910   1.552   3.430  0.8091 -1.9675 -3.7883
   40MOL   H201 8079   1.995   1.621   3.293  0.6322  1.6250 -0.4556
   40MOL   H202 8080   1.900   1.723   3.414 -1.3040 -0.7639 -1.0803
   41MOL     O1 8081   7.026   5.520   1.042 -0.3434  0.0917 -0.5337
   41MOL     C2 8082   7.062   5.590   1.161  0.2060  0.7937 -0.0720
   41MOL     C3 8083   7.130   5.501   1.265 -0.0772 -0.1103 -0.0956
   41MOL     C4 8084   7.162   5.584   1.386 -0.0886 -0.6587  0.3457
   41MOL     H5 8085   6.967   5.629   1.196  1.2426  1.1456  2.4890
   41MOL     H6 8086   7.126   5.676   1.137  1.6449 -1.2570 -4.0590
   41MOL     H7 8087   7.061   5.419   1.285  0.0458 -0.0927  0.4057
   41MOL     H8 8088   7.219   5.449   1.231  0.4413 -0.0399  1.1346
   41MOL     H9 8089   7.077   5.636   1.431 -0.9920 -1.0889 -0.8325
   41MOL    H10 8090   7.237   5.653   1.348 -1.3138 -0.9542 -2.7555
   41MOL    H11 8091   6.956   5.567   1.000  0.8027  0.1073 -2.5096
   41MOL    O12 8092   7.216   5.511   1.488 -0.9064  0.1069 -0.0400
   41MOL    C13 8093   7.282   5.591   1.591  0.3308 -0.9985  0.3709
   41MOL    C14 8094   7.313   5.507   1.713  0.4889  0.2885 -0.8649
   41MOL    C15 8095   7.402   5.588   1.806 -0.3090 -0.0758  0.0161
   41MOL    H16 8096   7.218   5.679   1.603  0.3527 -0.7611 -1.2348
   41MOL    H17 8097   7.375   5.617   1.541 -1.3866  2.1295 -1.3315
   41MOL    H18 8098   7.214   5.479   1.749  1.2373  0.9224  1.7669
   41MOL    H19 8099   7.359   5.408   1.709 -0.1621 -0.1529  1.8827
   41MOL    H20 8100   7.338   5.670   1.837 -0.2176  0.2586 -0.6562
   41MOL    H21 8101   7.488   5.634   1.757  0.3645 -1.2335  0.1027
   41MOL    O22 8102   7.456   5.510   1.913  0.6807 -1.1071  0.1345
   41MOL    C23 8103   7.521   5.579   2.012  0.3329 -0.2996 -0.1072
   41MOL    C24 8104   7.564   5.475   2.111  0.5169  0.4111  0.0938
   41MOL    C25 8105   7.630   5.523   2.241  0.3681  0.2010 -0.1650
   41MOL    H26 8106   7.443   5.638   2.061  1.2320  0.9572 -0.1709
   41MOL    H27 8107   7.600   5.648   1.984 -1.0506  1.2746 -0.2392
   41MOL    H28 8108   7.472   5.424   2.143  0.6651 -1.5025 -2.3149
   41MOL    H29 8109   7.622   5.397   2.062  0.1750  1.0681 -1.4045
   41MOL    H30 8110   7.558   5.591   2.287 -0.5170 -0.8809  0.0730
   41MOL    H31 8111   7.718   5.586   2.235  0.5303  0.0561  0.6507
   41MOL    O32 8112   7.658   5.402   2.309 -0.5454 -0.7848 -0.9460
   41MOL    C33 8113   7.722   5.421   2.428 -0.0559  0.1925  0.5485
   41MOL    C34 8114   7.769   5.280   2.473 -0.2399  0.7630 -0.0168
   41MOL    C35 8115   0.084   5.279   2.576 -0.2815  0.3372 -0.3469
   41MOL    H36 8116   7.642   5.461   2.490 -1.2760  1.8515 -2.0169
   41MOL    H37 8117   0.012   5.497   2.426 -0.3714  0.6799  3.5376
   41MOL    H38 8118   7.683   5.217   2.495 -1.4566  2.2890 -0.3641
   41MOL    H39 8119   0.026   5.233   2.385  0.8336  0.6858  0.5641
   41MOL    H40 8120   0.049   5.339   2.660  0.6509 -1.6527  1.5092
   41MOL    H41 8121   0.173   5.332   2.543  1.0098  0.3346  2.9458
   41MOL    O42 8122   0.126   5.145   2.609  0.1182  0.9657 -0.0950
   41MOL    C43 8123   0.199   5.127   2.734 -0.4477 -0.0121 -0.0367
   41MOL    C44 8124   0.285   4.998   2.731  0.0116  0.6417  0.1192
   41MOL    C45 8125   0.349   4.943   2.856  0.0612 -0.6524  0.0780
   41MOL    H46 8126   0.127   5.117   2.816 -0.7154  2.7832  0.1070
   41MOL    H47 8127   0.251   5.216   2.770 -0.3359 -0.3086  0.5450
   41MOL    H48 8128   0.219   4.920   2.692  1.3288  0.6947 -2.3102
   41MOL    H49 8129   0.366   4.996   2.658 -0.5497  0.0957 -0.5013
   41MOL    H50 8130   0.424   5.017   2.883 -0.7515  0.4647 -0.7007
   41MOL    H51 8131   0.408   4.853   2.833  2.8886  1.2263 -0.3299
   41MOL    O52 8132   0.271   4.926   2.969 -0.3170 -0.3543  0.2922
   41MOL    C53 8133   0.342   4.917   3.095 -0.2856  0.1389  0.1581
   41MOL    C54 8134   0.240   4.884   3.210  0.6520  0.7026 -0.0056
   41MOL    C55 8135   0.183   5.011   3.259  0.5705 -0.0018  0.1459
   41MOL    H56 8136   0.395   5.010   3.114  0.7191 -0.1048 -1.3196
   41MOL    H57 8137   0.420   4.842   3.078  0.5615  0.6752  1.6085
   41MOL    H58 8138   0.153   4.824   3.186  0.6697  0.9185 -0.6108
   41MOL    H59 8139   0.290   4.837   3.296 -2.5410 -1.2251  0.8917
   41MOL    H60 8140   0.128   5.058   3.178  0.9862  0.3353  0.0606
   41MOL    H61 8141   0.263   5.084   3.273 -0.1380  1.0471 -1.1975
   41MOL    O62 8142   0.114   4.990   3.379  0.1083  0.4184  0.3276
   41MOL    C63 8143   0.025   5.098   3.416  0.4362  0.3355 -0.3941
   41MOL    C64 8144   7.704   5.050   3.509  0.9143 -0.2840  0.7696
   41MOL    C65 8145   7.600   5.164   3.528 -0.2162  0.3021  0.5516
   41MOL    H66 8146   7.763   5.150   3.335 -1.9502 -2.0813 -0.5336
   41MOL    H67 8147   0.087   5.170   3.470  1.0991  0.0620 -0.7796
   41MOL    H68 8148   7.641   4.978   3.459  0.0417  0.7809  0.3046
   41MOL    H69 8149   7.743   5.003   3.600 -0.5475  1.9185  2.6004
   41MOL    H70 8150   7.540   5.164   3.437 -1.0657 -0.4801  1.1038
   41MOL    H71 8151   7.639   5.264   3.548 -1.5089  0.8575  0.3977
   41MOL    O72 8152   7.509   5.126   3.625  0.0420  0.1343 -0.0730
   41MOL    C73 8153   7.548   5.163   3.755 -0.2031 -0.1743  0.1148
   41MOL    C74 8154   7.456   5.091   3.853  0.1784 -0.2086  0.4388
   41MOL    C75 8155   7.487   5.138   3.991  0.1642  0.2957  0.2697
   41MOL    H76 8156   7.539   5.271   3.765  0.1097 -0.0592 -0.7805
   41MOL    H77 8157   7.644   5.115   3.773  0.2941 -0.0814 -2.1889
   41MOL    H78 8158   7.351   5.099   3.825  0.7939  1.9314 -1.3902
   41MOL    H79 8159   7.484   4.986   3.854 -0.8481 -0.4786  0.6381
   41MOL    H80 8160   7.465   5.243   4.013 -0.0947 -0.2832  3.0366
   41MOL    H81 8161   7.592   5.122   4.011 -0.7152 -3.0113  2.7115
   41MOL    O82 8162   7.428   5.074   4.096  0.2206  0.5799 -0.2542
   41MOL    C83 8163   7.289   5.111   4.107  0.2989  0.7142  0.1862
   41MOL    C84 8164   7.228   5.021   4.218  0.1135  0.3289  0.0940
   41MOL    C85 8165   7.275   5.059   4.357 -0.3009  0.4338  0.5273
   41MOL    H86 8166   7.230   5.087   4.019 -0.1985  1.4115  0.3190
   41MOL    H87 8167   7.276   5.218   4.125  1.9107  0.6046  2.1765
   41MOL    H88 8168   7.121   5.037   4.219  0.3230  1.7518  2.0896
   41MOL    H89 8169   7.238   4.913   4.205  0.2959  0.4017 -0.3768
   41MOL    H90 8170   7.270   5.166   4.379  1.8584  0.6308  0.1410
   41MOL    H91 8171   7.378   5.025   4.369 -0.3198  0.1841  0.0175
   41MOL    O92 8172   7.193   4.989   4.445  0.4680  0.2280  0.0240
   41MOL    C93 8173   7.250   4.982   4.573 -0.1126 -0.2049 -0.3965
   41MOL    C94 8174   7.158   4.874   4.640 -0.2487 -0.4768  0.1357
   41MOL    C95 8175   7.193   4.861   4.786  0.2427 -0.7053 -0.6797
   41MOL    H96 8176   7.231   5.070   4.633 -0.4805 -0.1889 -0.5367
   41MOL    H97 8177   7.354   4.950   4.579 -0.4297 -2.0380 -3.5285
   41MOL    H98 8178   7.056   4.908   4.623  0.0409  0.5548  0.3929
   41MOL    H99 8179   7.174   4.779   4.590 -1.1910  0.9592 -3.0205
   41MOL   H100 8180   7.207   4.955   4.838 -2.1319  0.6804 -2.4393
   41MOL   H101 8181   7.285   4.803   4.792 -0.4205 -1.8053 -0.8820
   41MOL   O102 8182   7.112   4.768   4.854 -0.0285 -0.0864 -0.3398
   41MOL   C103 8183   7.002   4.820   4.927 -0.0147 -0.0692  0.1190
   41MOL   C104 8184   6.948   4.715   5.021 -0.3710  0.4515  0.5398
   41MOL   C105 8185   6.821   4.770   5.100 -0.0724  0.5453  0.1257
   41MOL   H106 8186   6.928   4.878   4.871 -0.4688 -1.5621 -0.8671
   41MOL   H107 8187   7.051   4.894   4.990  1.7714 -1.0592 -0.0533
   41MOL   H108 8188   6.924   4.619   4.974  3.4202  0.0706 -0.8635
   41MOL   H109 8189   7.024   4.686   5.094 -0.3236 -1.5061 -0.2506
   41MOL   H110 8190   6.842   4.864   5.149  2.2485  0.9860 -1.6262
   41MOL   H111 8191   6.790   4.693   5.171 -0.3547 -2.2384 -2.8578
   41MOL   O112 8192   6.706   4.791   5.011 -0.5199  0.0859 -0.1152
   41MOL   C113 8193   6.586   4.824   5.080  0.1308  0.9539 -0.1554
   41MOL   C114 8194   6.457   4.810   4.986  0.6561 -0.4087 -0.2045
   41MOL   C115 8195   6.321   4.826   5.057  0.3573 -0.4702 -0.9725
   41MOL   H116 8196   6.591   4.921   5.131  0.5046  0.1055  1.4796
   41MOL   H117 8197   6.574   4.752   5.161  2.0882  0.0506 -0.6354
   41MOL   H118 8198   6.459   4.882   4.904  0.3395 -0.4958 -0.2877
   41MOL   H119 8199   6.457   4.711   4.940 -0.7072 -0.8989  0.8383
   41MOL   H120 8200   6.307   4.928   5.093 -0.8289 -0.2508 -2.0401
   41MOL   H121 8201   6.332   4.757   5.142  3.7247 -0.7451 -1.5558
   41MOL   O122 8202   6.220   4.796   4.964 -0.0628  0.1243  0.0065
   41MOL   C123 8203   6.100   4.752   5.032 -0.5880 -0.7452 -0.2035
   41MOL   C124 8204   6.033   4.871   5.107 -0.6669  0.2419 -0.1033
   41MOL   C125 8205   5.904   4.828   5.168  0.2203 -0.0864 -0.3197
   41MOL   H126 8206   6.106   4.669   5.103  2.0633  1.7912  2.6765
   41MOL   H127 8207   6.038   4.716   4.949 -0.2748  0.2009 -0.8526
   41MOL   H128 8208   6.091   4.912   5.189 -0.7359  2.6213 -1.2195
   41MOL   H129 8209   6.009   4.955   5.042  1.0593  2.3063  1.8502
   41MOL   H130 8210   5.815   4.824   5.105  0.7986 -0.0257 -1.1529
   41MOL   H131 8211   5.869   4.909   5.232 -1.6729 -1.5748  0.5633
   41MOL   O132 8212   5.930   4.707   5.246  0.2741 -0.1164  0.5421
   41MOL   C133 8213   5.882   4.714   5.375 -0.2849 -0.4130 -0.0504
   41MOL   C134 8214   5.954   4.594   5.442  0.1573  1.2073 -0.4882
   41MOL   C135 8215   5.911   4.572   5.589 -0.3265 -0.2118  0.0537
   41MOL   H136 8216   5.774   4.705   5.379 -0.2157 -1.9356 -1.2847
   41MOL   H137 8217   5.915   4.802   5.430 -0.7056  0.8714 -1.7776
   41MOL   H138 8218   5.927   4.508   5.381  0.8910  1.1682 -0.7725
   41MOL   H139 8219   6.063   4.599   5.446  0.1979 -0.2207  1.0215
   41MOL   H140 8220   5.968   4.483   5.614  0.9854  0.2801 -1.1139
   41MOL   H141 8221   5.803   4.559   5.595 -0.2700  0.0435  1.9809
   41MOL   O142 8222   5.951   4.677   5.680  0.4659 -0.5118 -0.1186
   41MOL   C143 8223   5.907   4.669   5.819 -0.3943  0.0284 -0.2884
   41MOL   C144 8224   5.968   4.781   5.900  0.0878 -0.4838 -0.2884
   41MOL   C145 8225   5.911   4.791   6.046 -0.4568 -0.0512 -0.7530
   41MOL   H146 8226   5.924   4.567   5.854 -0.7702  0.4471  1.1396
   41MOL   H147 8227   5.799   4.674   5.822 -0.5991 -3.0419 -1.0071
   41MOL   H148 8228   6.076   4.766   5.907 -0.2749 -3.4907 -0.5896
   41MOL   H149 8229   5.958   4.878   5.851 -0.8561  0.8077  2.3776
   41MOL   H150 8230   5.922   4.695   6.096 -1.5091 -0.7251 -1.7969
   41MOL   H151 8231   5.804   4.812   6.047 -0.8406 -1.8641  1.7062
   41MOL   O152 8232   5.992   4.892   6.105  0.4589 -0.3779 -0.3736
   41MOL   C153 8233   5.942   4.946   6.224 -0.6023 -0.1698 -0.0770
   41MOL   C154 8234   6.037   5.057   6.273 -0.2495  0.0934  0.1519
   41MOL   C155 8235   6.045   5.187   6.185 -0.3634  0.2131 -0.0122
   41MOL   H156 8236   5.931   4.865   6.297  2.9057  2.4486  3.5943
   41MOL   H157 8237   5.843   4.989   6.208 -0.9107 -0.4857  0.9244
   41MOL   H158 8238   6.017   5.090   6.375  2.5092 -0.3550  0.8959
   41MOL   H159 8239   6.142   5.027   6.274 -0.0957  0.5890 -0.7233
   41MOL   H160 8240   5.951   5.242   6.190 -0.2821  0.3443  0.0883
   41MOL   H161 8241   6.063   5.166   6.080  0.4157 -1.7755  0.4842
   41MOL   O162 8242   6.155   5.271   6.233 -0.0641  0.1431 -0.1297
   41MOL   C163 8243   6.169   5.398   6.170  0.0619 -0.5495 -0.0049
   41MOL   C164 8244   6.224   5.381   6.025 -0.1797  0.6870 -0.0130
   41MOL   C165 8245   6.257   5.519   5.955 -0.1232 -0.5465 -0.1185
   41MOL   H166 8246   6.228   5.461   6.236  0.6920 -1.3529  0.2179
   41MOL   H167 8247   6.067   5.437   6.169 -0.2967 -1.4709 -0.5043
   41MOL   H168 8248   6.310   5.315   6.039  1.5747  2.9142 -0.0078
   41MOL   H169 8249   6.159   5.321   5.962  0.2071 -0.5663  0.7658
   41MOL   H170 8250   6.314   5.583   6.022  1.4439 -3.0726  1.0442
   41MOL   H171 8251   6.165   5.565   5.919 -0.0148 -0.7764 -0.7074
   41MOL   O172 8252   6.326   5.492   5.832 -0.8456 -0.3326 -0.2538
   41MOL   C173 8253   6.367   5.613   5.774  0.3935 -0.3395  0.1920
   41MOL   C174 8254   6.254   5.649   5.677  0.0147  0.2440 -0.3494
   41MOL   C175 8255   6.282   5.779   5.602  0.4121 -0.0787 -0.0190
   41MOL   H176 8256   6.455   5.598   5.712  2.0269  2.0295  1.8759
   41MOL   H177 8257   6.381   5.699   5.839 -1.2123 -0.3208  0.5411
   41MOL   H178 8258   6.251   5.572   5.599  0.0320 -1.3891  1.2409
   41MOL   H179 8259   6.160   5.661   5.730  1.4824  0.1011  2.3843
   41MOL   H180 8260   6.380   5.791   5.556  0.8359  0.5263  1.0351
   41MOL   H181 8261   6.269   5.867   5.665  0.2088  1.0052 -1.5264
   41MOL   O182 8262   6.183   5.791   5.497 -0.2383  0.3732  0.2014
   41MOL   C183 8263   6.177   5.922   5.436 -0.3164  0.1419 -0.1087
   41MOL   C184 8264   6.076   6.008   5.525  0.4090  0.0061  0.1035
   41MOL   C185 8265   6.035   6.134   5.445 -0.0032  0.2239 -0.0562
   41MOL   H186 8266   6.127   5.903   5.341 -0.7683 -1.7666  0.4877
   41MOL   H187 8267   6.272   5.972   5.416 -1.6436  2.7536  0.0172
   41MOL   H188 8268   5.983   5.954   5.543 -0.6844  1.1570 -1.8516
   41MOL   H189 8269   6.116   6.042   5.620  2.7564 -0.4465 -0.6724
   41MOL   H190 8270   6.131   6.183   5.432 -0.3196  0.7297 -0.5178
   41MOL   H191 8271   5.966   6.194   5.505 -1.4798 -1.3441 -0.1439
   41MOL   O192 8272   5.965   6.106   5.327 -0.2569  0.0142  0.6129
   41MOL   C193 8273   5.975   6.204   5.228 -0.2109 -0.7271 -0.7589
   41MOL   C194 8274   5.902   6.156   5.100 -0.3104  0.6541 -0.2765
   41MOL   C195 8275   5.761   6.206   5.082 -0.3108  0.0580 -0.2591
   41MOL   H196 8276   6.082   6.212   5.207  0.2557  0.1211  1.7728
   41MOL   H197 8277   5.943   6.305   5.253 -0.5130 -0.7147 -1.2055
   41MOL   H198 8278   5.941   6.213   5.016 -1.0135  2.3278  0.4851
   41MOL   H199 8279   5.925   6.051   5.084 -0.6806  0.5005  0.1767
   41MOL   H200 8280   5.697   6.188   5.169 -0.4777  0.6151 -0.2600
   41MOL   H201 8281   5.712   6.176   4.989 -0.1131  0.0756 -0.3684
   41MOL   H202 8282   5.761   6.315   5.080  1.1305  0.1382  2.1193
   42MOL     O1 8283   1.425   3.714   2.297  0.4713  0.1179 -0.5724
   42MOL     C2 8284   1.495   3.597   2.306 -0.0152  0.3646 -0.3909
   42MOL     C3 8285   1.434   3.480   2.383 -0.1109 -0.1463 -0.0720
   42MOL     C4 8286   1.530   3.367   2.427  0.2305 -0.2558  0.1257
   42MOL     H5 8287   1.598   3.615   2.338  0.4895 -2.0135 -0.5224
   42MOL     H6 8288   1.500   3.559   2.203 -3.7874 -0.1572 -0.4394
   42MOL     H7 8289   1.402   3.529   2.475 -0.6761  1.4164 -1.0740
   42MOL     H8 8290   1.336   3.446   2.348  0.1467 -1.7920  0.7667
   42MOL     H9 8291   1.620   3.411   2.471 -0.6232  0.0156  1.6351
   42MOL    H10 8292   1.565   3.311   2.340  3.0379 -0.6969  1.4771
   42MOL    H11 8293   1.357   3.701   2.233 -0.1884  0.1061  0.1306
   42MOL    O12 8294   1.461   3.274   2.513  0.5507  0.2478 -0.8001
   42MOL    C13 8295   1.541   3.163   2.567 -0.4301  0.3619 -0.2648
   42MOL    C14 8296   1.640   3.213   2.673  0.0577  0.0281  0.7722
   42MOL    C15 8297   1.564   3.288   2.786  0.9061 -0.3121  0.9500
   42MOL    H16 8298   1.586   3.106   2.486  0.2605  1.4085 -0.6193
   42MOL    H17 8299   1.470   3.092   2.609 -0.9297  1.1980  0.3244
   42MOL    H18 8300   1.704   3.132   2.710  2.2898  2.8837  3.5014
   42MOL    H19 8301   1.698   3.291   2.624 -1.6233  1.4232  0.9717
   42MOL    H20 8302   1.473   3.236   2.817  1.1895 -2.0547 -1.0086
   42MOL    H21 8303   1.527   3.382   2.745 -0.0001 -0.4362  1.4578
   42MOL    O22 8304   1.631   3.310   2.913 -0.5247 -0.5647  0.4610
   42MOL    C23 8305   1.648   3.196   2.992 -1.5194  0.3102  0.4048
   42MOL    C24 8306   1.521   3.159   3.069 -0.2978 -0.5446 -0.4823
   42MOL    C25 8307   1.560   3.071   3.186 -0.1198  0.0770 -0.3875
   42MOL    H26 8308   1.728   3.224   3.060 -0.5637 -1.5015  0.0435
   42MOL    H27 8309   1.677   3.109   2.932  1.5899  2.3394 -1.1950
   42MOL    H28 8310   1.473   3.249   3.107  0.5573  0.4986 -1.8742
   42MOL    H29 8311   1.451   3.115   2.998 -0.0982 -1.9530  0.1692
   42MOL    H30 8312   1.629   3.125   3.251  2.4263  0.1150 -3.0243
   42MOL    H31 8313   1.605   2.976   3.157 -1.5037 -1.2682  1.7477
   42MOL    O32 8314   1.445   3.047   3.257 -0.2548 -0.0991 -0.4360
   42MOL    C33 8315   1.459   2.953   3.363 -0.0737  0.0436 -0.5565
   42MOL    C34 8316   1.444   2.812   3.310 -0.3785 -1.0468  0.4657
   42MOL    C35 8317   1.467   2.703   3.417 -0.1256 -0.1862 -0.1278
   42MOL    H36 8318   1.373   2.970   3.427 -0.0715  0.1823 -0.5901
   42MOL    H37 8319   1.558   2.960   3.408 -0.1357 -2.2031 -0.0053
   42MOL    H38 8320   1.350   2.793   3.258  0.5390  0.5927 -1.8700
   42MOL    H39 8321   1.524   2.794   3.238  1.2089  0.1907  1.8713
   42MOL    H40 8322   1.548   2.725   3.486 -0.6275 -0.7070  0.6299
   42MOL    H41 8323   1.494   2.612   3.363  0.2621  0.6269 -1.3412
   42MOL    O42 8324   1.350   2.669   3.486  0.0231 -0.2430  0.1670
   42MOL    C43 8325   1.370   2.562   3.585 -0.1886 -0.6059  0.2204
   42MOL    C44 8326   1.223   2.515   3.630 -0.1121  0.2983 -1.1079
   42MOL    C45 8327   1.227   2.426   3.754 -0.5052 -0.2144  0.3912
   42MOL    H46 8328   1.428   2.598   3.670 -1.2034  1.5996  0.0097
   42MOL    H47 8329   1.430   2.484   3.539  0.8319  0.8296 -0.9643
   42MOL    H48 8330   1.164   2.606   3.643 -1.3320 -0.5828 -0.3708
   42MOL    H49 8331   1.188   2.455   3.546  0.0472  1.1157 -1.7596
   42MOL    H50 8332   1.298   2.343   3.745 -1.9314 -1.1995 -2.2716
   42MOL    H51 8333   1.135   2.369   3.766  0.3983 -1.5480  1.0347
   42MOL    O52 8334   1.255   2.492   3.875  0.0718  0.1680 -0.2480
   42MOL    C53 8335   1.129   2.525   3.933 -0.2237  0.3002 -1.1747
   42MOL    C54 8336   1.159   2.616   4.054 -0.2638  0.0910 -0.2069
   42MOL    C55 8337   1.053   2.601   4.171  0.0934  0.8049  0.5432
   42MOL    H56 8338   1.095   2.429   3.972  0.7797 -0.2709 -1.6846
   42MOL    H57 8339   1.060   2.582   3.871 -1.0847 -0.5701 -1.0276
   42MOL    H58 8340   1.247   2.569   4.098 -0.6601 -2.0134 -1.6181
   42MOL    H59 8341   1.175   2.723   4.039  1.1441  0.0727  1.0476
   42MOL    H60 8342   1.036   2.494   4.181 -0.1751  0.7432 -0.4568
   42MOL    H61 8343   0.963   2.657   4.143  0.5573  1.5196  0.4643
   42MOL    O62 8344   1.106   2.660   4.286 -0.3470  0.5394  0.2449
   42MOL    C63 8345   1.031   2.641   4.409 -0.2276  0.1410  0.2162
   42MOL    C64 8346   0.896   2.722   4.408  0.5817  0.8047 -0.2906
   42MOL    C65 8347   0.812   2.710   4.533  0.6745 -0.6966  0.2480
   42MOL    H66 8348   1.082   2.654   4.504  0.4151 -1.4468  0.1101
   42MOL    H67 8349   0.999   2.537   4.414  0.9702 -0.2300  0.2940
   42MOL    H68 8350   0.911   2.825   4.374 -0.8566  0.6694 -1.3415
   42MOL    H69 8351   0.833   2.690   4.326  1.8373 -0.5726 -0.7313
   42MOL    H70 8352   0.728   2.779   4.520  1.3422 -0.1033 -1.0305
   42MOL    H71 8353   0.863   2.751   4.620  1.2540 -0.5134 -0.1780
   42MOL    O72 8354   0.775   2.574   4.542  0.0666 -0.4417  0.3538
   42MOL    C73 8355   0.705   2.544   4.664  0.0085  0.1534 -0.2540
   42MOL    C74 8356   0.669   2.391   4.678 -0.0594 -1.0502  0.7191
   42MOL    C75 8357   0.588   2.347   4.801  0.3851  0.5920  0.9487
   42MOL    H76 8358   0.613   2.603   4.654  0.6051  0.8928 -1.5147
   42MOL    H77 8359   0.757   2.578   4.754 -0.3644 -0.9103  0.3657
   42MOL    H78 8360   0.606   2.364   4.593  1.0544  1.0568 -0.8021
   42MOL    H79 8361   0.755   2.327   4.662 -0.5661 -1.1918 -1.7082
   42MOL    H80 8362   0.573   2.240   4.795  1.5133  0.4346  0.7264
   42MOL    H81 8363   0.489   2.392   4.809 -0.2672 -0.6935  0.2164
   42MOL    O82 8364   0.677   2.394   4.899 -0.3501 -0.3570  0.2763
   42MOL    C83 8365   0.624   2.398   5.026 -0.1161  0.3530 -0.2076
   42MOL    C84 8366   0.744   2.409   5.112  0.4321  0.0717 -0.1905
   42MOL    C85 8367   0.710   2.390   5.259  0.4592  0.0387  0.0677
   42MOL    H86 8368   0.555   2.318   5.054 -3.1008  1.9639 -2.6003
   42MOL    H87 8369   0.562   2.486   5.040 -2.2159 -1.2318  0.6696
   42MOL    H88 8370   0.805   2.322   5.089 -0.4871 -0.3723 -0.9760
   42MOL    H89 8371   0.805   2.494   5.082  1.2031  0.2628  1.8510
   42MOL    H90 8372   0.639   2.308   5.266  0.9692 -0.3246  1.0854
   42MOL    H91 8373   0.674   2.484   5.301 -0.1368 -0.6605  1.1304
   42MOL    O92 8374   0.828   2.357   5.337 -0.0285 -0.5146 -0.0859
   42MOL    C93 8375   0.798   2.296   5.456  0.4146  0.0274 -0.1023
   42MOL    C94 8376   0.910   2.198   5.479 -0.0875  1.0092 -0.1181
   42MOL    C95 8377   0.909   2.140   5.629 -0.0281  0.2739  0.3815
   42MOL    H96 8378   0.702   2.245   5.468 -0.1557  0.7298 -1.5482
   42MOL    H97 8379   0.805   2.375   5.532 -2.5615  0.9700 -0.7218
   42MOL    H98 8380   0.880   2.105   5.432 -1.2009  1.3616 -0.1279
   42MOL    H99 8381   1.011   2.234   5.460  1.8084 -2.5647  2.5583
   42MOL   H100 8382   0.809   2.108   5.656  0.2005 -1.2364 -0.4993
   42MOL   H101 8383   0.947   2.213   5.700 -0.8622 -1.3621  2.5424
   42MOL   O102 8384   0.996   2.022   5.623  0.5300  0.0814 -0.1266
   42MOL   C103 8385   1.032   1.979   5.752  0.7572 -0.1509 -0.0937
   42MOL   C104 8386   1.178   2.011   5.788  0.1438 -0.5219 -0.3351
   42MOL   C105 8387   1.213   2.157   5.810  0.1040  0.0016  0.2967
   42MOL   H106 8388   1.021   1.871   5.748 -2.3004  0.1528 -0.6569
   42MOL   H107 8389   0.977   2.020   5.837  1.3987 -3.0874  1.7949
   42MOL   H108 8390   1.194   1.956   5.881 -3.3410 -1.2081 -0.0941
   42MOL   H109 8391   1.244   1.969   5.712  0.5923  0.4256 -0.4854
   42MOL   H110 8392   1.145   2.197   5.886 -1.5886 -2.4763  0.1321
   42MOL   H111 8393   1.212   2.211   5.716 -0.3901  0.7524  0.7216
   42MOL   O112 8394   1.347   2.157   5.859  0.0520 -0.2262  0.1237
   42MOL   C113 8395   1.371   2.281   5.917 -0.0729  0.1472  0.0750
   42MOL   C114 8396   1.382   2.403   5.827 -0.5720  0.4599 -0.2718
   42MOL   C115 8397   1.434   2.535   5.890 -0.2114 -0.2884  0.8369
   42MOL   H116 8398   1.472   2.274   5.956 -0.0655 -1.7942 -0.2580
   42MOL   H117 8399   1.320   2.292   6.013  2.9363  1.6489  1.5618
   42MOL   H118 8400   1.444   2.377   5.741  0.1287 -0.2150  0.4268
   42MOL   H119 8401   1.284   2.428   5.786 -0.7323  0.1433 -0.0787
   42MOL   H120 8402   1.523   2.520   5.950  1.2065 -0.8445 -1.3846
   42MOL   H121 8403   1.361   2.580   5.957 -0.1651 -3.0146  2.8038
   42MOL   O122 8404   1.453   2.620   5.779 -0.3660 -0.1251 -0.0870
   42MOL   C123 8405   1.521   2.734   5.825 -0.1223 -0.4614 -0.4620
   42MOL   C124 8406   1.566   2.818   5.716 -0.5533  0.4451  0.6627
   42MOL   C125 8407   1.646   2.927   5.767 -0.2634 -0.1946  0.0156
   42MOL   H126 8408   1.603   2.707   5.892  0.0531 -0.5051 -0.6938
   42MOL   H127 8409   1.456   2.800   5.882  0.7731  0.4261 -0.4590
   42MOL   H128 8410   1.633   2.756   5.657 -2.5491 -2.3506  1.2177
   42MOL   H129 8411   1.486   2.862   5.657  1.5399  2.4751 -0.7001
   42MOL   H130 8412   1.725   2.878   5.824  0.4811  0.1115 -0.7468
   42MOL   H131 8413   1.580   2.998   5.818  1.0885  0.7807  0.4330
   42MOL   O132 8414   1.702   2.986   5.654 -0.2349  0.0533 -0.3606
   42MOL   C133 8415   1.792   3.084   5.694 -0.3025  0.0029  0.1543
   42MOL   C134 8416   1.839   3.147   5.564  0.8433  0.1978 -0.1900
   42MOL   C135 8417   1.732   3.217   5.492 -0.1050 -0.7335  0.2838
   42MOL   H136 8418   1.875   3.040   5.749  1.3720  1.1906 -1.3415
   42MOL   H137 8419   1.736   3.156   5.754  1.5090 -0.4744  2.4640
   42MOL   H138 8420   1.920   3.218   5.581 -0.0370  1.4383 -1.0307
   42MOL   H139 8421   1.892   3.075   5.502  0.9619 -0.6897  0.9289
   42MOL   H140 8422   1.701   3.309   5.543  0.9927 -0.5911  0.7006
   42MOL   H141 8423   1.643   3.159   5.465 -1.1355  1.0478 -0.2594
   42MOL   O142 8424   1.779   3.276   5.375  0.8013 -0.1283 -0.0295
   42MOL   C143 8425   1.672   3.323   5.292 -0.3269  0.5662  0.5478
   42MOL   C144 8426   1.736   3.339   5.155  0.5709  0.4814  0.6189
   42MOL   C145 8427   1.653   3.439   5.066  0.3717 -0.0107  0.1091
   42MOL   H146 8428   1.615   3.414   5.313 -2.2588  0.4190 -3.5114
   42MOL   H147 8429   1.595   3.246   5.282 -0.0668  0.4043 -0.1886
   42MOL   H148 8430   1.835   3.381   5.172  1.4654 -1.2617 -0.1515
   42MOL   H149 8431   1.739   3.243   5.105  2.6803  1.0218 -0.3674
   42MOL   H150 8432   1.683   3.428   4.962  1.9655 -0.9727  0.6569
   42MOL   H151 8433   1.692   3.532   5.108 -0.1512  0.4152 -0.3368
   42MOL   O152 8434   1.511   3.419   5.086 -0.2201  0.0582 -0.2111
   42MOL   C153 8435   1.425   3.520   5.042  0.0914 -0.3972  0.3825
   42MOL   C154 8436   1.414   3.634   5.151  0.1132 -0.7885 -0.2132
   42MOL   C155 8437   1.347   3.578   5.276  0.6194 -0.0558  0.0737
   42MOL   H156 8438   1.324   3.480   5.033  0.1653 -0.5987  0.4626
   42MOL   H157 8439   1.451   3.572   4.949 -0.0902  1.2622  1.2344
   42MOL   H158 8440   1.515   3.665   5.176  0.4009  0.6448 -2.9014
   42MOL   H159 8441   1.372   3.726   5.110  3.8454  1.3734  0.5699
   42MOL   H160 8442   1.396   3.487   5.309  0.5980 -0.1606 -0.1800
   42MOL   H161 8443   1.247   3.541   5.254  0.3301  1.0790 -0.5811
   42MOL   O162 8444   1.327   3.667   5.385 -0.6134 -0.2758 -0.3548
   42MOL   C163 8445   1.281   3.622   5.511 -0.6294  0.2675 -0.3087
   42MOL   C164 8446   1.328   3.709   5.625  0.3541  0.7583  0.8067
   42MOL   C165 8447   1.341   3.639   5.761  0.1108  1.1386  0.8171
   42MOL   H166 8448   1.318   3.520   5.529 -0.0683  0.4443 -0.4396
   42MOL   H167 8449   1.173   3.613   5.506 -0.5485 -0.9874  0.0721
   42MOL   H168 8450   1.427   3.744   5.596 -0.9990  3.1585 -1.0681
   42MOL   H169 8451   1.264   3.798   5.631 -1.4919 -0.6550  3.3659
   42MOL   H170 8452   1.373   3.535   5.763 -0.0597  1.0271 -1.4018
   42MOL   H171 8453   1.244   3.628   5.810 -0.1135 -1.8618 -0.2174
   42MOL   O172 8454   1.415   3.731   5.842 -0.4529 -0.0131  0.0429
   42MOL   C173 8455   1.470   3.681   5.962 -0.0715  0.6719 -0.4487
   42MOL   C174 8456   1.550   3.786   6.042 -0.0319 -0.1759 -0.3943
   42MOL   C175 8457   1.455   3.876   6.126 -1.2338  0.2389  0.0856
   42MOL   H176 8458   1.532   3.595   5.935  1.3822  0.4851  3.1972
   42MOL   H177 8459   1.392   3.640   6.026 -1.5238  1.3288 -1.7520
   42MOL   H178 8460   1.633   3.743   6.098 -1.7392 -0.6810  1.8142
   42MOL   H179 8461   1.602   3.839   5.963 -0.4644  0.3653 -0.3192
   42MOL   H180 8462   1.378   3.821   6.180 -0.6559 -0.6190  0.0419
   42MOL   H181 8463   1.400   3.927   6.047 -0.9983  2.6942  1.4460
   42MOL   O182 8464   1.524   3.964   6.209  0.0425  0.3559  0.2161
   42MOL   C183 8465   1.456   4.089   6.244 -0.2987 -0.2103  0.4415
   42MOL   C184 8466   1.548   4.181   6.338  0.5327 -0.7561  0.3923
   42MOL   C185 8467   1.468   4.312   6.364  0.6609 -0.4401 -0.5209
   42MOL   H186 8468   1.365   4.064   6.296 -0.3221  0.0535  0.5312
   42MOL   H187 8469   1.428   4.151   6.159  0.4569  0.7618  0.8900
   42MOL   H188 8470   1.570   4.126   6.429  1.7165 -2.0196 -0.6477
   42MOL   H189 8471   1.634   4.211   6.279  0.2253  0.9643  0.7880
   42MOL   H190 8472   1.371   4.290   6.408  0.2792  1.0676 -0.5810
   42MOL   H191 8473   1.444   4.343   6.263  0.9214 -1.1008 -0.7883
   42MOL   O192 8474   1.552   4.382   6.457  0.6053 -0.0077 -0.5150
   42MOL   C193 8475   1.496   4.504   6.505 -1.0341  0.4803 -0.6373
   42MOL   C194 8476   1.613   4.571   6.584  0.4811  0.4641 -0.9467
   42MOL   C195 8477   1.709   4.651   6.499 -0.3569  0.4238  0.6957
   42MOL   H196 8478   1.415   4.467   6.568  1.4653  0.7417  2.8809
   42MOL   H197 8479   1.461   4.577   6.432  0.3956  1.4191 -0.4066
   42MOL   H198 8480   1.566   4.642   6.652  0.2152 -1.7763  1.2714
   42MOL   H199 8481   1.656   4.488   6.640  0.9010  0.3114 -1.4957
   42MOL   H200 8482   1.665   4.741   6.456  0.8354 -0.6619 -3.0615
   42MOL   H201 8483   1.732   4.585   6.415 -1.3983  1.1938 -0.2069
   42MOL   H202 8484   1.797   4.685   6.555 -0.9298 -0.4014  2.1179
   43MOL     O1 8485   5.629   1.290   4.223  0.4324  0.3182 -0.3927
   43MOL     C2 8486   5.718   1.191   4.161 -0.3694  0.1781  0.2302
   43MOL     C3 8487   5.864   1.229   4.173 -0.3781 -0.1728  0.3247
   43MOL     C4 8488   5.961   1.139   4.092  0.9369  0.4040 -0.1728
   43MOL     H5 8489   5.686   1.176   4.058 -0.3604  1.1923  0.0767
   43MOL     H6 8490   5.700   1.098   4.214  1.4224 -1.0098 -1.1794
   43MOL     H7 8491   5.886   1.327   4.132 -1.4091  0.0052  0.2044
   43MOL     H8 8492   5.889   1.231   4.279  1.4341  0.4987 -0.1011
   43MOL     H9 8493   5.968   1.036   4.127  2.2460  0.6267  0.2489
   43MOL    H10 8494   6.064   1.174   4.098  1.2084 -0.5610  0.9764
   43MOL    H11 8495   5.540   1.259   4.214  1.4521 -2.0950 -2.7911
   43MOL    O12 8496   5.927   1.151   3.955 -0.0998  0.7140  0.2414
   43MOL    C13 8497   5.999   1.064   3.875 -1.1441  0.3167  0.0408
   43MOL    C14 8498   6.006   1.105   3.722  0.2503 -0.5781 -0.6991
   43MOL    C15 8499   5.870   1.132   3.646 -0.0732 -0.7180  0.0782
   43MOL    H16 8500   5.957   0.964   3.877 -0.1025 -0.2138 -2.8237
   43MOL    H17 8501   6.102   1.055   3.909 -1.5730 -1.5241  0.8807
   43MOL    H18 8502   6.066   1.197   3.721  0.4551 -0.6856  0.6259
   43MOL    H19 8503   6.064   1.038   3.659  1.1276  0.3530 -0.9047
   43MOL    H20 8504   5.900   1.186   3.556 -0.4056 -2.7717 -1.2983
   43MOL    H21 8505   5.815   1.192   3.718  0.8518  2.0396 -1.4427
   43MOL    O22 8506   5.807   1.013   3.629 -0.1055 -0.4309  0.0081
   43MOL    C23 8507   5.675   1.008   3.584  0.2853 -0.6744 -0.1234
   43MOL    C24 8508   5.643   1.059   3.437  0.0978 -0.3974  1.2040
   43MOL    C25 8509   5.725   0.970   3.335  0.4363 -0.3423 -0.2338
   43MOL    H26 8510   5.611   1.074   3.643 -1.3423 -1.6340 -0.7944
   43MOL    H27 8511   5.640   0.905   3.587  0.0177 -0.5664  0.5591
   43MOL    H28 8512   5.537   1.041   3.421  0.0653 -0.8255  1.8614
   43MOL    H29 8513   5.659   1.166   3.430  0.9136 -0.4153  2.5063
   43MOL    H30 8514   5.694   0.866   3.326 -0.3109 -0.2956  1.7223
   43MOL    H31 8515   5.824   0.952   3.375  0.6960  3.7448  1.1658
   43MOL    O32 8516   5.729   1.036   3.211  0.3185 -0.2677  0.4345
   43MOL    C33 8517   5.604   1.033   3.138 -0.4062  0.0927 -0.2565
   43MOL    C34 8518   5.631   1.128   3.013 -0.3299 -0.1077 -0.1507
   43MOL    C35 8519   5.758   1.071   2.931 -0.0996  0.0740 -0.4178
   43MOL    H36 8520   5.514   1.076   3.181 -0.1617  2.9976 -2.4583
   43MOL    H37 8521   5.584   0.930   3.109 -0.4053 -0.0725  0.3235
   43MOL    H38 8522   5.543   1.130   2.949 -1.1345 -0.6698  0.9247
   43MOL    H39 8523   5.643   1.226   3.058  1.3981 -0.2994 -0.1462
   43MOL    H40 8524   5.749   0.964   2.917 -0.2515  0.0018  0.2431
   43MOL    H41 8525   5.848   1.099   2.987 -0.6184  1.1783 -0.1295
   43MOL    O42 8526   5.753   1.142   2.807 -0.3600  0.0281  0.0019
   43MOL    C43 8527   5.869   1.131   2.727  0.8961 -0.6506 -0.3992
   43MOL    C44 8528   5.935   1.269   2.727 -0.2759  0.8071 -0.0250
   43MOL    C45 8529   6.070   1.259   2.649  0.6333 -0.6541  0.0478
   43MOL    H46 8530   5.838   1.102   2.627 -0.5782 -0.1421 -0.0991
   43MOL    H47 8531   5.935   1.050   2.759  0.3536 -0.7156  0.5860
   43MOL    H48 8532   5.879   1.349   2.678  2.1481  1.5914 -1.6068
   43MOL    H49 8533   5.951   1.294   2.832 -3.0449  0.2652  0.5588
   43MOL    H50 8534   6.048   1.227   2.547 -0.8289 -0.2922  0.2272
   43MOL    H51 8535   6.138   1.188   2.696  0.7629  1.2477  2.9270
   43MOL    O52 8536   6.132   1.386   2.654  0.5917  0.1704  0.1660
   43MOL    C53 8537   6.220   1.426   2.545 -0.1155  0.1583  0.0860
   43MOL    C54 8538   6.265   1.564   2.572 -0.5277 -0.2481  0.3840
   43MOL    C55 8539   6.344   1.625   2.454 -0.4561 -0.0632  0.2391
   43MOL    H56 8540   6.165   1.418   2.451  0.8565 -1.1231 -0.3894
   43MOL    H57 8541   6.307   1.361   2.550  1.3330  2.0545 -0.1071
   43MOL    H58 8542   6.185   1.629   2.610 -1.5043 -0.8763 -0.5634
   43MOL    H59 8543   6.335   1.558   2.655  1.2461  0.1094 -1.0640
   43MOL    H60 8544   6.284   1.614   2.364  1.5051  0.0051 -1.1144
   43MOL    H61 8545   6.429   1.559   2.436  0.1273  0.5963  0.5443
   43MOL    O62 8546   6.387   1.757   2.495 -0.0089 -0.0856 -0.6770
   43MOL    C63 8547   6.450   1.818   2.383  0.2719  0.2815  0.0088
   43MOL    C64 8548   6.487   1.956   2.433  0.6168  0.0773 -0.7146
   43MOL    C65 8549   6.551   2.058   2.344  0.2073  0.1688 -0.4912
   43MOL    H66 8550   6.381   1.834   2.300  0.3303 -3.0628 -0.7657
   43MOL    H67 8551   6.542   1.767   2.353 -0.1969 -0.8802  0.5539
   43MOL    H68 8552   6.390   1.999   2.459  0.7470  0.6072 -1.1018
   43MOL    H69 8553   6.546   1.957   2.525 -0.7361 -0.3107  0.1733
   43MOL    H70 8554   6.489   2.088   2.259 -1.3847 -1.5423  0.0513
   43MOL    H71 8555   6.640   2.013   2.300 -0.0612 -1.4627  0.5818
   43MOL    O72 8556   6.584   2.177   2.415  0.0162 -0.5764 -0.2289
   43MOL    C73 8557   6.662   2.278   2.348 -0.7162 -0.2258  0.0410
   43MOL    C74 8558   6.583   2.360   2.241  0.1310  0.1373  0.2204
   43MOL    C75 8559   6.648   2.489   2.186  0.8545 -0.5559  0.0184
   43MOL    H76 8560   6.752   2.232   2.306 -0.0893 -0.3880  1.5468
   43MOL    H77 8561   6.712   2.346   2.416  1.6846  0.0277 -1.9261
   43MOL    H78 8562   6.562   2.292   2.159 -3.4037 -0.5757  1.5809
   43MOL    H79 8563   6.488   2.389   2.287  0.6008  0.5474  0.9373
   43MOL    H80 8564   6.664   2.554   2.273 -1.8159 -2.2350  1.8323
   43MOL    H81 8565   6.580   2.538   2.116  0.4195  0.6966  1.2790
   43MOL    O82 8566   6.767   2.446   2.120 -0.0431  0.4030  0.2198
   43MOL    C83 8567   6.850   2.556   2.082 -0.0817  0.0798  0.6312
   43MOL    C84 8568   6.996   2.515   2.087 -0.2270  0.4283 -0.0088
   43MOL    C85 8569   7.093   2.607   2.007  0.1358  0.5174 -1.1027
   43MOL    H86 8570   6.836   2.652   2.131  1.0926  1.5236 -1.7721
   43MOL    H87 8571   6.824   2.567   1.976 -0.3669 -1.4933  0.5252
   43MOL    H88 8572   7.034   2.522   2.189 -0.1580 -0.5433  0.0435
   43MOL    H89 8573   7.006   2.410   2.059 -1.5908  0.2220  0.2235
   43MOL    H90 8574   7.068   2.710   2.030 -2.4425 -0.2516 -0.3064
   43MOL    H91 8575   7.070   2.602   1.900  0.4956 -1.3698 -1.1152
   43MOL    O92 8576   7.230   2.575   2.026  0.0899 -0.2728 -0.7616
   43MOL    C93 8577   7.321   2.672   1.983 -0.2858  0.1579 -0.0312
   43MOL    C94 8578   7.469   2.647   2.018  0.2993 -0.5916  0.1492
   43MOL    C95 8579   7.494   2.637   2.169  0.3113 -0.3373 -0.0716
   43MOL    H96 8580   7.287   2.774   2.001 -2.0293 -0.5576  0.9808
   43MOL    H97 8581   7.311   2.673   1.875 -0.8796  2.3724  0.0230
   43MOL    H98 8582   7.501   2.553   1.973  0.8405 -2.1385  3.5429
   43MOL    H99 8583   7.526   2.728   1.973 -0.1434 -0.7076 -0.6124
   43MOL   H100 8584   7.585   2.578   2.179  1.3061  1.0157 -1.0290
   43MOL   H101 8585   7.416   2.569   2.203  0.0935  1.0378  2.3109
   43MOL   O102 8586   7.499   2.765   2.231 -0.0598 -0.1846  0.1345
   43MOL   C103 8587   7.490   2.747   2.371 -0.2918 -0.7107  0.2423
   43MOL   C104 8588   7.474   2.890   2.429 -0.6963  0.3186  0.4525
   43MOL   C105 8589   7.441   2.887   2.583 -0.7777 -0.0704 -0.0556
   43MOL   H106 8590   7.575   2.694   2.413  1.2809  0.2823 -1.6549
   43MOL   H107 8591   7.397   2.701   2.406 -1.0524  0.8171  0.2872
   43MOL   H108 8592   7.568   2.938   2.403 -0.8050  0.9017  1.1329
   43MOL   H109 8593   7.392   2.939   2.377 -2.3417 -0.0712  2.6480
   43MOL   H110 8594   7.519   2.845   2.646  0.8842  0.8784 -1.4192
   43MOL   H111 8595   7.347   2.835   2.602  0.4705 -1.9465  1.1462
   43MOL   O112 8596   7.418   3.026   2.616 -0.4391 -0.3196 -0.4108
   43MOL   C113 8597   7.394   3.050   2.753 -0.8209 -0.0102  0.2487
   43MOL   C114 8598   7.249   2.999   2.792  0.3309 -0.1928  0.6876
   43MOL   C115 8599   7.206   3.019   2.931  0.1593  0.4554  0.1463
   43MOL   H116 8600   7.425   3.153   2.767  0.2664 -0.6088  2.5568
   43MOL   H117 8601   7.472   2.997   2.808 -0.5014 -0.8144 -0.9606
   43MOL   H118 8602   7.173   3.050   2.733  0.2452 -0.5772  0.4651
   43MOL   H119 8603   7.241   2.893   2.769  1.7747 -0.2019  0.1856
   43MOL   H120 8604   7.283   2.979   2.997 -0.7820  1.3974  1.8373
   43MOL   H121 8605   7.107   2.978   2.949  0.7635 -0.5333  1.3246
   43MOL   O122 8606   7.196   3.162   2.943 -0.2552  0.1194 -0.4218
   43MOL   C123 8607   7.158   3.199   3.078 -0.2411 -0.0116 -0.3090
   43MOL   C124 8608   7.118   3.346   3.083 -0.1101  0.4824  0.7803
   43MOL   C125 8609   7.074   3.384   3.226 -0.1449 -0.0859  0.5612
   43MOL   H126 8610   7.249   3.190   3.136  0.6661 -1.4394 -1.8784
   43MOL   H127 8611   7.093   3.129   3.131  2.2179 -1.8435  0.3733
   43MOL   H128 8612   7.200   3.410   3.051  0.1160  0.0729  0.5305
   43MOL   H129 8613   7.031   3.365   3.020 -0.7967  0.4553  1.7011
   43MOL   H130 8614   6.999   3.319   3.270 -0.4451  0.0995  0.3200
   43MOL   H131 8615   7.022   3.480   3.229  0.7781  0.4144  0.8874
   43MOL   O132 8616   7.193   3.384   3.298  0.0364  0.1852  0.8579
   43MOL   C133 8617   7.188   3.399   3.438  0.5406  0.2579  0.7565
   43MOL   C134 8618   7.328   3.398   3.494 -0.0002 -0.4958 -0.2892
   43MOL   C135 8619   7.318   3.401   3.645 -0.2771 -0.2370 -0.0560
   43MOL   H136 8620   7.134   3.311   3.473  0.6503 -0.3941 -0.6887
   43MOL   H137 8621   7.125   3.479   3.476  0.3433  0.0559  0.8518
   43MOL   H138 8622   7.376   3.309   3.453 -3.5555 -3.1899  1.0541
   43MOL   H139 8623   7.391   3.476   3.453 -1.9494  1.5949  0.6139
   43MOL   H140 8624   7.241   3.331   3.679 -2.0326  0.4839 -2.3893
   43MOL   H141 8625   7.287   3.500   3.676 -1.5309 -0.4011 -0.7550
   43MOL   O142 8626   7.447   3.376   3.692  0.1324  0.0669  0.3180
   43MOL   C143 8627   7.461   3.398   3.834  0.1051 -0.2291  1.0141
   43MOL   C144 8628   7.595   3.348   3.880 -0.3239 -0.1125  0.4952
   43MOL   C145 8629   7.705   3.451   3.845 -0.4245 -0.2221 -0.0556
   43MOL   H146 8630   7.382   3.342   3.884 -0.6147 -0.8395 -0.7810
   43MOL   H147 8631   7.446   3.505   3.851 -0.5252 -0.5821  2.8116
   43MOL   H148 8632   7.590   3.337   3.988  0.0515  0.4324  0.5727
   43MOL   H149 8633   7.612   3.243   3.857 -1.3016 -0.3347  0.7708
   43MOL   H150 8634   7.693   3.547   3.896  0.1162 -0.3623  0.3466
   43MOL   H151 8635   7.712   3.451   3.736  2.1517  2.6985  0.0432
   43MOL   O152 8636   0.045   3.399   3.889  0.2665  0.2582 -0.7785
   43MOL   C153 8637   0.150   3.462   3.815 -0.4917 -0.3999  0.5576
   43MOL   C154 8638   0.284   3.401   3.853 -0.4879  0.3030 -0.4057
   43MOL   C155 8639   0.407   3.486   3.816 -0.0237  0.6658 -0.0899
   43MOL   H156 8640   0.149   3.559   3.866  1.4828  0.5736 -1.1631
   43MOL   H157 8641   0.134   3.469   3.707 -1.6123 -1.3806  0.6542
   43MOL   H158 8642   0.291   3.372   3.957 -0.1702  0.0362 -0.5005
   43MOL   H159 8643   0.288   3.305   3.802  1.1599 -1.5440  2.9936
   43MOL   H160 8644   0.400   3.591   3.845 -1.8442  0.2770  0.9016
   43MOL   H161 8645   0.404   3.480   3.707  0.5494  3.4094 -0.2920
   43MOL   O162 8646   0.532   3.430   3.848  0.2075  0.7404  0.3428
   43MOL   C163 8647   0.644   3.513   3.806  0.1712  0.2536 -0.3370
   43MOL   C164 8648   0.781   3.449   3.837 -0.4297  0.1627 -0.2243
   43MOL   C165 8649   0.895   3.535   3.796  0.3525  0.5240  0.6480
   43MOL   H166 8650   0.627   3.607   3.859  3.5973  2.5467 -3.0724
   43MOL   H167 8651   0.639   3.537   3.700  0.5521  0.1449 -0.3805
   43MOL   H168 8652   0.782   3.419   3.942  1.9181  2.5880  0.4884
   43MOL   H169 8653   0.768   3.356   3.781 -0.7043  1.2959 -2.0927
   43MOL   H170 8654   0.902   3.622   3.862  2.5282  0.5974  0.3670
   43MOL   H171 8655   0.883   3.565   3.692  1.2209 -2.4271 -0.3561
   43MOL   O172 8656   1.017   3.459   3.807 -0.2439 -0.6547  0.0791
   43MOL   C173 8657   1.136   3.537   3.788 -0.3861 -0.0338  0.2718
   43MOL   C174 8658   1.251   3.441   3.825  0.0245 -0.6109 -0.3428
   43MOL   C175 8659   1.273   3.427   3.970  0.1934 -0.3053 -0.1858
   43MOL   H176 8660   1.139   3.623   3.854  0.5052  0.6723 -0.6711
   43MOL   H177 8661   1.147   3.573   3.686  1.0113  0.5902  0.6296
   43MOL   H178 8662   1.234   3.349   3.768 -2.9326  1.3878 -2.9054
   43MOL   H179 8663   1.344   3.489   3.794 -2.2846  3.3479 -1.4546
   43MOL   H180 8664   1.177   3.404   4.017 -0.2118 -0.1669 -0.9405
   43MOL   H181 8665   1.304   3.523   4.012  0.2344 -0.6147  0.4940
   43MOL   O182 8666   1.370   3.325   3.983 -0.4623  0.0275 -0.0066
   43MOL   C183 8667   1.374   3.266   4.114 -0.4939  0.3970  0.5238
   43MOL   C184 8668   1.471   3.343   4.210 -0.2065  0.8063 -0.0975
   43MOL   C185 8669   1.474   3.271   4.347  0.8698  0.4307  0.0070
   43MOL   H186 8670   1.405   3.162   4.106  2.4097  1.2997 -0.7314
   43MOL   H187 8671   1.273   3.273   4.154 -0.3610  1.3834  0.6994
   43MOL   H188 8672   1.573   3.356   4.173 -1.4459  0.7632 -3.7265
   43MOL   H189 8673   1.442   3.446   4.230  0.7773  0.6888  2.1437
   43MOL   H190 8674   1.522   3.174   4.336 -1.8575 -1.2304  1.9509
   43MOL   H191 8675   1.371   3.243   4.372 -1.0776  3.5803 -3.8306
   43MOL   O192 8676   1.529   3.352   4.448  0.0434 -0.4098  0.4147
   43MOL   C193 8677   1.528   3.272   4.569  0.6186  0.3885 -0.3164
   43MOL   C194 8678   1.592   3.345   4.689  0.4885  0.0843 -1.2853
   43MOL   C195 8679   1.734   3.396   4.644 -0.4422  0.1557 -0.4440
   43MOL   H196 8680   1.595   3.186   4.561  0.9596  0.5871  0.3591
   43MOL   H197 8681   1.429   3.240   4.600  0.3650  0.9756 -0.5138
   43MOL   H198 8682   1.522   3.425   4.714  0.4138  0.8628 -3.9093
   43MOL   H199 8683   1.589   3.272   4.770  1.6354  0.9345 -0.4580
   43MOL   H200 8684   1.800   3.309   4.648 -1.5310 -0.6676 -0.0787
   43MOL   H201 8685   1.786   3.467   4.709 -0.7331  1.1750 -1.3160
   43MOL   H202 8686   1.740   3.436   4.543  0.3752 -0.4499 -0.6346
   44MOL     O1 8687   7.177   1.659   5.314 -0.1937  0.1569 -0.3587
   44MOL     C2 8688   7.248   1.744   5.232  0.0925  0.6482 -0.5239
   44MOL     C3 8689   7.196   1.756   5.084  0.5643  0.2733  0.0567
   44MOL     C4 8690   7.277   1.841   4.993 -0.0723 -0.0796  0.5369
   44MOL     H5 8691   7.342   1.690   5.231  0.0577  0.5526  0.5153
   44MOL     H6 8692   7.259   1.845   5.270  0.0555  0.4773 -0.0563
   44MOL     H7 8693   7.190   1.658   5.036 -1.2583 -0.7130  2.1993
   44MOL     H8 8694   7.093   1.790   5.076  0.2162 -1.1956 -2.2427
   44MOL     H9 8695   7.371   1.799   4.957  0.6111  0.6311  1.4730
   44MOL    H10 8696   7.304   1.933   5.045  2.2165 -1.1284  1.2902
   44MOL    H11 8697   7.221   1.663   5.398 -1.4670 -0.1096  0.3365
   44MOL    O12 8698   7.189   1.869   4.879 -0.4307 -0.4549 -0.3828
   44MOL    C13 8699   7.258   1.936   4.779  0.3410  0.0178 -0.0519
   44MOL    C14 8700   7.152   1.976   4.680 -0.4175  0.0170 -0.6424
   44MOL    C15 8701   7.062   1.865   4.624  0.4884  0.2784  0.1762
   44MOL    H16 8702   7.325   1.862   4.735 -0.1565 -1.3786  1.4981
   44MOL    H17 8703   7.312   2.023   4.816 -0.5288  1.1662 -1.4067
   44MOL    H18 8704   7.087   2.041   4.738  0.8457 -1.0829  2.1007
   44MOL    H19 8705   7.201   2.038   4.604  1.8785  0.9682  1.5408
   44MOL    H20 8706   7.020   1.811   4.709 -0.3858  1.4483  0.5073
   44MOL    H21 8707   7.131   1.796   4.576  0.7946  0.9301 -0.3231
   44MOL    O22 8708   6.967   1.911   4.532  0.5396 -0.2367  1.0986
   44MOL    C23 8709   6.934   1.814   4.434  0.6388 -0.6748 -0.8048
   44MOL    C24 8710   7.049   1.772   4.343  0.0521  0.7033 -0.1477
   44MOL    C25 8711   7.106   1.886   4.255 -0.5725 -0.3175 -0.4346
   44MOL    H26 8712   6.850   1.864   4.385  1.0162 -0.6592 -1.4459
   44MOL    H27 8713   6.900   1.717   4.471  2.1380 -0.8149  0.2312
   44MOL    H28 8714   7.128   1.718   4.395 -0.7758  0.6299  1.0513
   44MOL    H29 8715   7.014   1.700   4.269  1.2500  0.4650 -0.4971
   44MOL    H30 8716   7.172   1.946   4.316 -0.5454 -3.0707  2.3734
   44MOL    H31 8717   7.026   1.948   4.214 -1.9212  0.4104  3.1226
   44MOL    O32 8718   7.201   1.829   4.164  0.4581  0.2749  1.0627
   44MOL    C33 8719   7.263   1.909   4.066  0.0410  0.6863 -0.3052
   44MOL    C34 8720   7.347   2.024   4.116  0.0748  0.0877  0.3363
   44MOL    C35 8721   7.448   2.082   4.019  0.7719  0.2048 -0.7883
   44MOL    H36 8722   7.188   1.959   4.006 -0.6018 -1.4839 -1.3659
   44MOL    H37 8723   7.325   1.849   4.000  0.3415 -1.5423  1.9216
   44MOL    H38 8724   7.275   2.099   4.148  0.9707  0.8511  0.5874
   44MOL    H39 8725   7.407   1.999   4.204  0.3604 -1.1457 -0.2004
   44MOL    H40 8726   7.407   2.120   3.925 -1.1929  0.2375  0.0600
   44MOL    H41 8727   7.514   1.998   3.999 -1.9999 -2.9441  2.7001
   44MOL    O42 8728   7.512   2.192   4.089  0.2572  0.0674 -0.1930
   44MOL    C43 8729   7.626   2.230   4.027 -0.0011  0.0200 -0.1109
   44MOL    C44 8730   7.713   2.326   4.107 -0.0512  0.1822 -0.1418
   44MOL    C45 8731   0.068   2.338   4.062  0.3423  0.7154  0.3544
   44MOL    H46 8732   7.608   2.262   3.924 -1.4970  0.8163  0.3837
   44MOL    H47 8733   7.688   2.140   4.025 -0.5459 -0.3665  0.5423
   44MOL    H48 8734   7.664   2.421   4.132  0.4782  0.3031  0.4467
   44MOL    H49 8735   7.717   2.277   4.204 -0.0305 -1.3698 -0.9162
   44MOL    H50 8736   0.107   2.417   4.125  2.4333  0.9694 -1.2097
   44MOL    H51 8737   0.053   2.369   3.959 -1.6407  0.5284  0.5766
   44MOL    O52 8738   0.140   2.214   4.080  0.0651 -0.4125 -0.4848
   44MOL    C53 8739   0.276   2.231   4.106 -0.2176  0.7798 -0.3921
   44MOL    C54 8740   0.343   2.091   4.106  0.6683 -0.3424 -0.6363
   44MOL    C55 8741   0.488   2.070   4.160 -0.2695 -0.1097 -0.3416
   44MOL    H56 8742   0.283   2.272   4.207 -1.7992 -2.2569  1.0168
   44MOL    H57 8743   0.322   2.305   4.040 -1.6938  1.2959 -0.8729
   44MOL    H58 8744   0.282   2.021   4.164  4.2791 -3.0817  0.0130
   44MOL    H59 8745   0.367   2.062   4.004  2.3116 -1.9031  0.1619
   44MOL    H60 8746   0.488   2.096   4.266 -1.3341  2.7238 -0.9847
   44MOL    H61 8747   0.571   2.128   4.119  0.4316  0.6917  2.1010
   44MOL    O62 8748   0.529   1.932   4.135 -0.2715 -0.5267 -0.0480
   44MOL    C63 8749   0.668   1.910   4.162  0.3591 -0.3188 -0.0719
   44MOL    C64 8750   0.695   1.772   4.103 -0.2162 -0.2859 -0.2806
   44MOL    C65 8751   0.835   1.722   4.118 -0.0612 -0.0800 -0.3767
   44MOL    H66 8752   0.696   1.922   4.267  0.5915  1.1423 -0.2889
   44MOL    H67 8753   0.732   1.986   4.117  2.7517 -2.3483 -0.1957
   44MOL    H68 8754   0.625   1.694   4.132 -0.8991 -0.4841 -2.4367
   44MOL    H69 8755   0.672   1.794   3.999 -2.4162  0.6228  0.3744
   44MOL    H70 8756   0.858   1.634   4.059  1.8601 -1.0633  1.7700
   44MOL    H71 8757   0.868   1.699   4.219  3.6846  1.0327 -1.2871
   44MOL    O72 8758   0.915   1.828   4.062 -0.8873 -0.5140 -0.1075
   44MOL    C73 8759   1.058   1.786   4.058 -0.5763  0.0424  0.2703
   44MOL    C74 8760   1.132   1.919   4.018  0.3382 -0.1908  0.2458
   44MOL    C75 8761   1.155   2.027   4.124 -0.5048 -0.7193  0.5279
   44MOL    H76 8762   1.079   1.721   3.973  3.9121 -0.9952  2.0364
   44MOL    H77 8763   1.107   1.757   4.151 -0.8854  1.5497  0.9220
   44MOL    H78 8764   1.230   1.886   3.983 -0.1623 -1.0412 -0.3762
   44MOL    H79 8765   1.078   1.966   3.936 -1.8063 -0.0192  1.6974
   44MOL    H80 8766   1.182   1.979   4.219  1.2058  0.4191  0.6395
   44MOL    H81 8767   1.059   2.069   4.153 -1.1963 -2.7581  1.3217
   44MOL    O82 8768   1.248   2.120   4.087  0.4251 -0.2763  0.2362
   44MOL    C83 8769   1.304   2.180   4.200  0.4027 -0.2592 -0.1981
   44MOL    C84 8770   1.398   2.287   4.149 -0.5682  0.0609 -0.2782
   44MOL    C85 8771   1.474   2.369   4.253 -0.0511  1.1698  0.2918
   44MOL    H86 8772   1.345   2.101   4.263 -2.1835 -1.6577 -0.1749
   44MOL    H87 8773   1.231   2.231   4.264  2.0691  2.0460 -0.0805
   44MOL    H88 8774   1.475   2.249   4.081  0.2118  0.5605  0.3182
   44MOL    H89 8775   1.350   2.357   4.079 -2.0763  0.5715  1.2321
   44MOL    H90 8776   1.410   2.414   4.329 -2.0091 -3.0068  1.2414
   44MOL    H91 8777   1.539   2.441   4.203  1.2517 -1.3712 -1.7853
   44MOL    O92 8778   1.551   2.267   4.316  0.3268 -0.5029 -0.7312
   44MOL    C93 8779   1.604   2.310   4.440  0.2877 -0.6419 -0.2218
   44MOL    C94 8780   1.678   2.196   4.513  0.6900 -0.2405 -0.8392
   44MOL    C95 8781   1.590   2.099   4.604 -0.2682  0.6675 -0.1097
   44MOL    H96 8782   1.528   2.355   4.504  0.4737  0.2226 -0.6037
   44MOL    H97 8783   1.676   2.391   4.426  3.1656 -2.9329  0.7854
   44MOL    H98 8784   1.712   2.125   4.437  1.1174  0.6925 -1.5255
   44MOL    H99 8785   1.763   2.234   4.570 -1.1956 -0.1607  2.0654
   44MOL   H100 8786   1.638   2.002   4.617 -0.3288  0.9187  2.2288
   44MOL   H101 8787   1.491   2.087   4.561 -0.2237 -4.2965  0.9571
   44MOL   O102 8788   1.578   2.166   4.729  1.0504  0.1039 -0.0070
   44MOL   C103 8789   1.479   2.100   4.814 -0.0438 -0.0049 -0.6843
   44MOL   C104 8790   1.531   1.976   4.886 -0.7170 -0.1100 -0.4838
   44MOL   C105 8791   1.424   1.883   4.945  0.3274  1.1841 -0.7022
   44MOL   H106 8792   1.393   2.076   4.752 -0.0246 -0.7364 -0.4377
   44MOL   H107 8793   1.439   2.172   4.885  1.0686 -0.2224  0.1786
   44MOL   H108 8794   1.597   1.921   4.820 -0.1672 -0.1602  0.0964
   44MOL   H109 8795   1.594   2.010   4.969 -0.0326 -0.0331 -1.0363
   44MOL   H110 8796   1.389   1.930   5.037 -1.1518  0.0350 -0.6608
   44MOL   H111 8797   1.452   1.781   4.972 -0.5744  1.0499 -0.2726
   44MOL   O112 8798   1.317   1.867   4.856 -0.4792  0.4046 -0.1891
   44MOL   C113 8799   1.349   1.813   4.729 -0.0231  0.4849  0.2462
   44MOL   C114 8800   1.237   1.845   4.621 -0.4079  0.2152  0.1636
   44MOL   C115 8801   1.273   1.786   4.483 -0.1773  0.1588  0.4265
   44MOL   H116 8802   1.358   1.706   4.748  2.9586  0.8526  1.0480
   44MOL   H117 8803   1.442   1.850   4.686 -0.1263 -0.5102 -0.8693
   44MOL   H118 8804   1.144   1.798   4.653  0.7197 -1.3636  1.2131
   44MOL   H119 8805   1.218   1.952   4.613 -1.2050  0.1604  1.2582
   44MOL   H120 8806   1.198   1.818   4.411  1.0236 -0.9926 -1.3563
   44MOL   H121 8807   1.288   1.679   4.493 -0.4909  0.1299  0.6265
   44MOL   O122 8808   1.396   1.843   4.437 -0.5003 -0.0277 -0.0114
   44MOL   C123 8809   1.422   1.801   4.302  0.0700 -0.0891  0.2236
   44MOL   C124 8810   1.561   1.855   4.263 -0.3548  0.3030  0.5483
   44MOL   C125 8811   1.586   1.887   4.114  0.3921  0.0083 -0.4710
   44MOL   H126 8812   1.345   1.821   4.227  2.2047 -0.0508 -2.0003
   44MOL   H127 8813   1.416   1.692   4.297 -1.5637 -0.0068 -0.0202
   44MOL   H128 8814   1.577   1.953   4.308 -1.1480  0.9759 -0.6011
   44MOL   H129 8815   1.632   1.789   4.312 -1.1139  1.0731  2.7769
   44MOL   H130 8816   1.683   1.935   4.102 -0.0660  0.8822 -0.6531
   44MOL   H131 8817   1.510   1.960   4.088 -1.3420 -0.7196  2.3442
   44MOL   O132 8818   1.572   1.766   4.040  0.2251 -0.0265 -1.1354
   44MOL   C133 8819   1.546   1.774   3.902 -0.2427  0.4881  0.7689
   44MOL   C134 8820   1.589   1.641   3.822  0.3115 -0.7755 -0.9578
   44MOL   C135 8821   1.569   1.651   3.673 -0.4046  0.2818 -0.6613
   44MOL   H136 8822   1.596   1.862   3.863 -2.0873  1.4901  0.5907
   44MOL   H137 8823   1.438   1.780   3.883 -0.3472  0.3792  1.3161
   44MOL   H138 8824   1.694   1.617   3.839  0.3255 -0.7816 -1.0503
   44MOL   H139 8825   1.534   1.559   3.869 -0.6423  0.9991  1.0984
   44MOL   H140 8826   1.612   1.562   3.627  0.4528  0.4292 -0.1627
   44MOL   H141 8827   1.616   1.736   3.624 -3.2753  1.2348 -1.8150
   44MOL   O142 8828   1.424   1.661   3.659  0.1175  0.3804  0.0050
   44MOL   C143 8829   1.384   1.666   3.526 -0.1418  0.5466  0.3109
   44MOL   C144 8830   1.232   1.689   3.512  0.3121  0.2337  0.7437
   44MOL   C145 8831   1.194   1.832   3.547 -0.3447  0.0099  0.7169
   44MOL   H146 8832   1.405   1.575   3.468  2.8553  1.8346 -0.7673
   44MOL   H147 8833   1.441   1.735   3.463  0.5308  0.1711  0.4993
   44MOL   H148 8834   1.194   1.655   3.415  3.5798  0.6089 -0.7290
   44MOL   H149 8835   1.183   1.620   3.580  1.0419 -0.1315  0.8972
   44MOL   H150 8836   1.257   1.900   3.490 -2.0915  1.0750  0.0196
   44MOL   H151 8837   1.215   1.846   3.653 -4.1905  1.2466  1.4017
   44MOL   O152 8838   1.061   1.876   3.526 -0.1802 -0.1700 -0.1628
   44MOL   C153 8839   1.049   2.012   3.560 -0.4455 -0.2018 -0.0834
   44MOL   C154 8840   0.915   2.044   3.505  0.5615  0.3715  0.7074
   44MOL   C155 8841   0.899   2.190   3.477 -0.6493 -0.3338 -1.0994
   44MOL   H156 8842   1.128   2.074   3.518 -0.6308  0.6829  0.8519
   44MOL   H157 8843   1.036   2.025   3.668  0.6472  0.7875 -0.0680
   44MOL   H158 8844   0.883   1.982   3.421 -0.2970  2.3123 -0.4245
   44MOL   H159 8845   0.837   2.010   3.573 -2.1310 -0.5937 -2.7222
   44MOL   H160 8846   0.953   2.214   3.385  0.6832  1.7442  0.1797
   44MOL   H161 8847   0.934   2.242   3.566 -0.5409 -2.0216 -0.1360
   44MOL   O162 8848   0.766   2.217   3.457  0.2800 -0.5508  0.3087
   44MOL   C163 8849   0.747   2.358   3.426  0.4591  0.2438 -0.9804
   44MOL   C164 8850   0.598   2.394   3.427  0.9333  0.1871  0.5189
   44MOL   C165 8851   0.565   2.538   3.416  0.1477 -0.3964  0.2467
   44MOL   H166 8852   0.779   2.396   3.329  2.9260  2.5792  0.6722
   44MOL   H167 8853   0.801   2.417   3.500  1.2056 -1.8909  0.2495
   44MOL   H168 8854   0.548   2.336   3.349  0.1620  2.1812 -0.5060
   44MOL   H169 8855   0.554   2.349   3.516 -1.0895  0.2261 -0.4303
   44MOL   H170 8856   0.615   2.582   3.502 -0.5833  0.9032  0.0188
   44MOL   H171 8857   0.460   2.549   3.442  1.0128  1.8396  3.0908
   44MOL   O172 8858   0.586   2.597   3.293 -0.1415 -0.4094 -0.2016
   44MOL   C173 8859   0.577   2.740   3.276 -0.0175  0.5801  0.3944
   44MOL   C174 8860   0.643   2.790   3.146  0.8805  0.9979  0.1123
   44MOL   C175 8861   0.640   2.935   3.120  0.3842  0.2641 -0.0810
   44MOL   H176 8862   0.624   2.790   3.360  0.8996  2.7061 -1.3351
   44MOL   H177 8863   0.471   2.767   3.278 -0.7075 -1.8913 -0.6205
   44MOL   H178 8864   0.745   2.754   3.143  0.2018 -1.1004  1.4999
   44MOL   H179 8865   0.579   2.744   3.070 -1.2521  0.0994  2.3863
   44MOL   H180 8866   0.684   2.981   3.208  0.4831 -1.2892  0.6953
   44MOL   H181 8867   0.536   2.963   3.104 -0.1104 -2.1316 -1.2548
   44MOL   O182 8868   0.714   2.964   3.004  0.1982 -0.0632 -0.0766
   44MOL   C183 8869   0.717   3.104   2.980 -0.2219  0.6889  0.3637
   44MOL   C184 8870   0.780   3.129   2.844 -0.4148  0.2174 -0.0120
   44MOL   C185 8871   0.766   3.275   2.801 -0.6631  0.3712  0.5135
   44MOL   H186 8872   0.779   3.150   3.058  1.5689  0.6612 -1.0224
   44MOL   H187 8873   0.615   3.141   2.988 -0.1358  0.9857  0.1136
   44MOL   H188 8874   0.887   3.107   2.854 -0.5386  0.3182  1.7043
   44MOL   H189 8875   0.727   3.069   2.770 -2.0881 -0.0033  1.3597
   44MOL   H190 8876   0.804   3.335   2.883  4.0656 -1.4305 -0.2284
   44MOL   H191 8877   0.664   3.307   2.777 -0.9098 -1.2420 -0.6862
   44MOL   O192 8878   0.842   3.303   2.682 -0.1349 -0.3660  0.1216
   44MOL   C193 8879   0.885   3.436   2.670  0.0138  0.0583 -0.2374
   44MOL   C194 8880   1.003   3.442   2.572  0.4739  0.8788 -0.3711
   44MOL   C195 8881   1.058   3.582   2.554 -0.2769 -0.7056 -0.2480
   44MOL   H196 8882   0.920   3.470   2.768 -2.3464  3.3168 -0.4249
   44MOL   H197 8883   0.804   3.502   2.637 -0.9266 -1.0923 -0.2647
   44MOL   H198 8884   1.084   3.371   2.591  0.7098  0.9080 -1.2529
   44MOL   H199 8885   0.961   3.419   2.474  0.5278 -1.4376  0.1233
   44MOL   H200 8886   0.981   3.647   2.511  1.1830  0.7125 -0.7629
   44MOL   H201 8887   1.137   3.587   2.479 -0.8656  0.8130 -0.7823
   44MOL   H202 8888   1.098   3.636   2.640  2.5185 -1.3515 -1.0813
   45MOL     O1 8889   5.820   5.984   0.420 -0.2265  0.5103  0.4487
   45MOL     C2 8890   5.818   5.960   0.558  0.0166  0.5343  1.0593
   45MOL     C3 8891   5.962   6.007   0.607  0.8468 -0.8446 -0.6341
   45MOL     C4 8892   5.997   5.938   0.743  1.1397  0.1036 -0.0956
   45MOL     H5 8893   5.811   5.854   0.581  0.1890  0.2870 -0.0022
   45MOL     H6 8894   5.732   6.011   0.602  0.6761  1.6878  1.0199
   45MOL     H7 8895   6.039   5.981   0.534  0.3347 -1.8638 -0.8288
   45MOL     H8 8896   5.961   6.115   0.623 -0.5364 -1.1347  1.5269
   45MOL     H9 8897   6.002   5.830   0.731 -1.7734 -0.1805  0.7992
   45MOL    H10 8898   5.922   5.951   0.822 -0.0192 -1.7753 -0.8479
   45MOL    H11 8899   5.735   5.961   0.385  0.0635  2.0634 -1.3902
   45MOL    O12 8900   6.121   5.985   0.773 -0.0416 -0.5919  0.6207
   45MOL    C13 8901   6.196   5.922   0.883  0.1170  0.3667 -0.1964
   45MOL    C14 8902   6.340   5.974   0.895  0.1858 -0.2958 -0.3670
   45MOL    C15 8903   6.344   6.121   0.933 -0.5546  0.3035 -0.6256
   45MOL    H16 8904   6.198   5.815   0.860  0.3972  0.9416 -3.0357
   45MOL    H17 8905   6.135   5.921   0.973  0.5193  0.0298  0.0754
   45MOL    H18 8906   6.397   5.907   0.960  0.5968  0.0399 -0.3777
   45MOL    H19 8907   6.401   5.977   0.805 -0.9236 -0.5443 -1.1332
   45MOL    H20 8908   6.285   6.156   1.017 -0.8564 -0.2598 -0.6014
   45MOL    H21 8909   6.284   6.175   0.861 -1.1999  2.3082  1.3616
   45MOL    O22 8910   6.482   6.164   0.936 -0.5566  0.1979 -0.0757
   45MOL    C23 8911   6.506   6.302   0.936  0.2831  0.0328  0.1263
   45MOL    C24 8912   6.647   6.333   0.893  0.1218  0.0295 -0.1562
   45MOL    C25 8913   6.659   6.481   0.890 -0.4174 -0.2445 -0.0349
   45MOL    H26 8914   6.497   6.354   1.032 -1.8976  0.6909 -0.4115
   45MOL    H27 8915   6.438   6.355   0.869 -0.7777  0.6461  1.6703
   45MOL    H28 8916   6.717   6.296   0.967  0.6831  1.0083 -0.1942
   45MOL    H29 8917   6.660   6.289   0.794 -4.0585 -0.3235 -0.6436
   45MOL    H30 8918   6.658   6.514   0.994  2.1919 -0.0847 -0.0104
   45MOL    H31 8919   6.576   6.525   0.835 -0.2828  1.2195  0.8978
   45MOL    O32 8920   6.786   6.506   0.822  0.3499  0.4001  0.1217
   45MOL    C33 8921   6.820   6.644   0.816  0.0600  0.0599 -0.0008
   45MOL    C34 8922   6.952   6.678   0.732  0.7424  0.7495 -0.4916
   45MOL    C35 8923   6.928   6.697   0.586 -0.0912  0.4165  0.6506
   45MOL    H36 8924   6.847   6.672   0.918  0.6528  0.6515 -0.3194
   45MOL    H37 8925   6.737   6.705   0.782  0.9518  0.5293 -1.3553
   45MOL    H38 8926   6.992   6.773   0.766  1.5171  0.5451 -0.8339
   45MOL    H39 8927   7.022   6.597   0.751  0.4626  0.7793  0.7026
   45MOL    H40 8928   6.861   6.780   0.562 -0.3908  0.1113  0.4408
   45MOL    H41 8929   6.900   6.605   0.535  2.9579 -0.0218 -0.3018
   45MOL    O42 8930   7.047   6.751   0.528  0.8745 -0.0904 -0.3382
   45MOL    C43 8931   7.041   6.757   0.379 -0.0537 -0.0400 -0.7501
   45MOL    C44 8932   7.177   6.805   0.331  0.7323  0.3785  0.4056
   45MOL    C45 8933   7.198   6.750   0.186 -0.1675  0.0075  0.1970
   45MOL    H46 8934   6.955   6.808   0.336 -0.1948 -0.5277 -1.0468
   45MOL    H47 8935   7.024   6.652   0.357  0.0181 -0.2920  0.3336
   45MOL    H48 8936   7.170   6.913   0.338 -0.9008  0.3549 -0.7060
   45MOL    H49 8937   7.260   6.779   0.397 -0.1674 -0.6084  1.1656
   45MOL    H50 8938   7.106   6.773   0.131 -0.8475  0.2795  1.4199
   45MOL    H51 8939   7.222   6.644   0.190  0.1123  0.1023  1.1673
   45MOL    O52 8940   7.312   6.820   0.127  0.4855  0.5738 -0.2441
   45MOL    C53 8941   7.360   6.765   0.003  0.5111  0.4016 -0.1963
   45MOL    C54 8942   7.474   6.845   7.734  0.2307  0.0854  0.1760
   45MOL    C55 8943   7.604   6.781   7.781 -0.0603  0.3169  0.0268
   45MOL    H56 8944   7.278   6.748   7.721 -0.5528  2.9706  0.3494
   45MOL    H57 8945   7.393   6.663   0.019 -0.2958  0.0238 -0.8825
   45MOL    H58 8946   7.458   6.841   7.627 -0.4564 -1.9260  0.3414
   45MOL    H59 8947   7.452   6.949   7.762  1.0799  0.4051 -0.3495
   45MOL    H60 8948   7.636   6.687   7.736  1.6794  0.6375  0.5826
   45MOL    H61 8949   7.604   6.755   0.098  3.1158 -1.0295 -0.2832
   45MOL    O62 8950   7.687   6.888   7.749 -0.0054 -0.1997  0.1206
   45MOL    C63 8951   0.032   6.886   0.017 -0.1655  0.1157  0.2526
   45MOL    C64 8952   0.076   7.040   0.025  0.4095 -0.0144 -0.3556
   45MOL    C65 8953   0.224   7.056   0.052  0.4055  0.7433  0.0692
   45MOL    H66 8954   0.100   6.829   7.742  1.9151  3.7231 -0.9237
   45MOL    H67 8955   0.027   6.847   0.118 -2.0877 -2.9022 -0.9255
   45MOL    H68 8956   0.057   7.088   7.718  1.0870 -0.4818 -0.7287
   45MOL    H69 8957   0.013   7.095   0.095 -0.6641  1.0851 -2.1569
   45MOL    H70 8958   0.290   7.008   7.768 -0.3081 -0.1368 -0.0115
   45MOL    H71 8959   0.260   7.019   0.148 -1.1484  1.0880  0.8053
   45MOL    O72 8960   0.253   7.198   0.034  0.3467  0.0611 -0.5206
   45MOL    C73 8961   0.391   7.239   0.020 -0.3928 -0.5668  0.3822
   45MOL    C74 8962   0.437   7.314   0.149 -0.3599  0.2515  0.5146
   45MOL    C75 8963   0.405   7.459   0.150 -0.0303  0.2148  0.0958
   45MOL    H76 8964   0.398   7.309   7.725  0.2396 -0.9842  0.0751
   45MOL    H77 8965   0.449   7.149   0.000 -0.3452 -0.4022 -0.2470
   45MOL    H78 8966   0.390   7.260   0.231 -0.2859 -0.9374 -0.2157
   45MOL    H79 8967   0.544   7.296   0.145 -0.6593 -1.1116 -2.3983
   45MOL    H80 8968   0.301   7.457   0.182 -0.5006 -0.1052 -1.4145
   45MOL    H81 8969   0.415   7.514   0.056 -0.6306  0.9049  0.4284
   45MOL    O82 8970   0.502   7.518   0.242 -0.1631  0.0755  0.4245
   45MOL    C83 8971   0.478   7.653   0.286  0.8297 -0.0059 -0.3724
   45MOL    C84 8972   0.576   7.671   0.405 -0.6067  0.3835 -0.5134
   45MOL    C85 8973   0.530   7.782   0.494  0.6790  0.4012  0.2989
   45MOL    H86 8974   0.374   7.654   0.317  1.1467 -1.0635  0.7653
   45MOL    H87 8975   0.483   7.723   0.202 -1.8543  0.7086  0.0190
   45MOL    H88 8976   0.597   7.580   0.462  1.8341  1.9902  1.2336
   45MOL    H89 8977   0.673   7.703   0.368  0.4683 -0.2034  1.6837
   45MOL    H90 8978   0.432   7.764   0.538  0.5511 -1.5303 -0.7136
   45MOL    H91 8979   0.507   0.081   0.433 -0.2980 -0.1886 -0.1862
   45MOL    O92 8980   0.621   0.016   0.598  0.0315  0.6144  0.2688
   45MOL    C93 8981   0.602   0.138   0.660 -0.5713  0.4571  0.2594
   45MOL    C94 8982   0.713   0.145   0.768  0.5308 -0.9425  0.0567
   45MOL    C95 8983   0.690   0.260   0.867 -0.5192 -1.0443  0.6771
   45MOL    H96 8984   0.499   0.161   0.685 -0.6244 -1.3501  1.7771
   45MOL    H97 8985   0.610   0.229   0.601  0.2743 -0.2769 -0.7681
   45MOL    H98 8986   0.720   0.049   0.819  3.0532 -0.6235  0.3888
   45MOL    H99 8987   0.808   0.150   0.715  0.8005 -0.1158  0.6073
   45MOL   H100 8988   0.777   0.271   0.932  1.0413  0.8167 -1.6762
   45MOL   H101 8989   0.604   0.237   0.930 -0.7491 -0.7727  0.4644
   45MOL   O102 8990   0.673   0.382   0.794 -0.2476 -0.0702  0.1137
   45MOL   C103 8991   0.555   0.453   0.814  0.0222  0.3813  0.1065
   45MOL   C104 8992   0.551   0.572   0.717 -0.4331 -0.7977 -0.5573
   45MOL   C105 8993   0.430   0.663   0.745 -0.7195 -0.0535 -0.5292
   45MOL   H106 8994   0.546   0.489   0.917 -0.4861 -2.4812  1.1055
   45MOL   H107 8995   0.468   0.391   0.794 -0.5206  0.5493  1.8634
   45MOL   H108 8996   0.639   0.636   0.727  0.2449 -1.9360  0.8917
   45MOL   H109 8997   0.544   0.550   0.610 -1.6181 -0.0044 -0.6610
   45MOL   H110 8998   0.442   0.704   0.845  1.7628 -1.0159 -0.3857
   45MOL   H111 8999   0.344   0.598   0.739 -0.1788 -0.8745  0.5335
   45MOL   O112 9000   0.424   0.764   0.649  0.3129  0.6106 -0.2017
   45MOL   C113 9001   0.282   0.801   0.635  0.1503  0.0078 -0.3113
   45MOL   C114 9002   0.271   0.916   0.530 -0.2374  0.4526 -0.6967
   45MOL   C115 9003   0.127   0.959   0.519  0.1804 -0.4563  0.7683
   45MOL   H116 9004   0.259   0.839   0.735 -0.7480 -0.4682 -0.3336
   45MOL   H117 9005   0.228   0.712   0.606  0.1786 -0.1328  0.0647
   45MOL   H118 9006   0.338   0.999   0.549  1.1663 -0.2795 -2.2885
   45MOL   H119 9007   0.304   0.876   0.434 -0.0798  1.0743 -0.9038
   45MOL   H120 9008   0.082   0.969   0.618 -0.7793 -0.7753  0.3735
   45MOL   H121 9009   0.062   0.879   0.482 -0.3086 -0.0178  0.6648
   45MOL   O122 9010   0.104   1.056   0.429 -0.4996  0.0737  1.2010
   45MOL   C123 9011   7.760   1.114   0.442 -0.6660  0.5633  0.2015
   45MOL   C124 9012   7.773   1.240   0.532  0.1676  0.2635  0.6610
   45MOL   C125 9013   7.637   1.297   0.567 -0.2234  0.1167  0.1268
   45MOL   H126 9014   7.686   1.037   0.464  2.3622 -2.2233  1.0484
   45MOL   H127 9015   7.741   1.151   0.341 -0.8706  1.1717  0.4616
   45MOL   H128 9016   0.038   1.221   0.625 -1.7339  0.7018  1.8674
   45MOL   H129 9017   0.045   1.311   0.476  1.0702 -1.8634 -1.1212
   45MOL   H130 9018   7.574   1.224   0.617 -0.7165 -0.5040 -1.4112
   45MOL   H131 9019   7.577   1.314   0.478 -1.7129 -0.0797  1.0793
   45MOL   O132 9020   7.643   1.415   0.645  0.4202  0.2321 -0.2017
   45MOL   C133 9021   7.667   1.536   0.579 -0.0577  0.2495 -0.4143
   45MOL   C134 9022   7.673   1.645   0.697  0.2044 -0.5801 -0.1866
   45MOL   C135 9023   7.685   1.787   0.639 -0.3896 -0.3071 -0.4889
   45MOL   H136 9024   7.578   1.551   0.517 -1.0851  1.1406  1.2291
   45MOL   H137 9025   7.766   1.539   0.535 -0.0063  0.0443 -0.3122
   45MOL   H138 9026   7.569   1.646   0.730  0.0171 -0.2174 -0.7665
   45MOL   H139 9027   7.742   1.614   0.775 -1.0551 -1.2570  0.6690
   45MOL   H140 9028   7.780   1.810   0.592  1.3011 -2.9151  1.4987
   45MOL   H141 9029   7.685   1.844   0.732 -1.6085 -1.7015  0.3845
   45MOL   O142 9030   7.574   1.809   0.548  0.0865  0.6259  0.5811
   45MOL   C143 9031   7.598   1.919   0.457 -0.2246  0.2128 -0.6215
   45MOL   C144 9032   7.601   2.052   0.534  0.1347 -0.3807  0.1502
   45MOL   C145 9033   7.603   2.184   0.457  0.0260  0.1215 -0.3663
   45MOL   H146 9034   7.514   1.927   0.388  0.2193 -1.0802 -1.3230
   45MOL   H147 9035   7.688   1.908   0.396 -1.2545  0.8136 -2.2848
   45MOL   H148 9036   7.508   2.039   0.589  0.4643 -3.2780  0.0721
   45MOL   H149 9037   7.672   2.047   0.616 -1.6175 -0.8220  1.6545
   45MOL   H150 9038   7.584   2.257   0.536  1.6561 -0.7820  0.8777
   45MOL   H151 9039   7.531   2.190   0.375  1.7352 -1.3595 -2.0106
   45MOL   O152 9040   7.726   2.198   0.389 -0.2058 -0.4309 -0.0475
   45MOL   C153 9041   7.752   2.321   0.340 -0.6192 -0.4406 -0.1840
   45MOL   C154 9042   0.123   2.313   0.318  0.1694 -0.1128 -0.1047
   45MOL   C155 9043   0.209   2.331   0.447 -0.7482 -0.3791  0.3103
   45MOL   H156 9044   7.731   2.399   0.414 -0.5691  0.2417 -0.8759
   45MOL   H157 9045   7.703   2.333   0.243  0.4245 -1.8649 -0.8896
   45MOL   H158 9046   0.165   2.227   0.265  1.4380 -0.7848  1.9631
   45MOL   H159 9047   0.143   2.387   0.240 -1.4744  0.1330 -0.3210
   45MOL   H160 9048   0.197   2.241   0.507 -1.2180  0.4589  1.5048
   45MOL   H161 9049   0.181   2.421   0.502 -0.1300  0.2438 -0.3944
   45MOL   O162 9050   0.345   2.345   0.400 -0.0336 -0.2019  0.3837
   45MOL   C163 9051   0.435   2.263   0.469  0.8176  0.1435  0.8207
   45MOL   C164 9052   0.562   2.272   0.387 -0.4397  0.3502 -0.2625
   45MOL   C165 9053   0.679   2.204   0.453  0.5408 -0.0172 -0.3452
   45MOL   H166 9054   0.397   2.161   0.467 -1.7034  1.0672 -2.9751
   45MOL   H167 9055   0.461   2.306   0.566  3.4518  3.8946 -1.4165
   45MOL   H168 9056   0.540   2.228   0.290 -2.5191  1.8508 -0.4909
   45MOL   H169 9057   0.574   2.377   0.361 -1.0919  0.6745  0.7248
   45MOL   H170 9058   0.642   2.103   0.471 -1.0063  0.2140 -2.0829
   45MOL   H171 9059   0.698   2.260   0.544 -2.1569 -0.3745  0.4910
   45MOL   O172 9060   0.793   2.198   0.376  0.1817 -1.0516  0.1519
   45MOL   C173 9061   0.867   2.078   0.402  0.5289  0.1358  0.3870
   45MOL   C174 9062   0.943   2.086   0.536  0.0309 -0.0218 -0.3016
   45MOL   C175 9063   1.038   2.200   0.554 -0.5125  0.4899 -0.1388
   45MOL   H176 9064   0.927   2.042   0.319  1.3082 -1.8551  1.7726
   45MOL   H177 9065   0.804   1.990   0.413  0.7038 -0.0340  0.0552
   45MOL   H178 9066   0.878   2.100   0.622  1.9660  1.1022  1.0265
   45MOL   H179 9067   0.997   1.991   0.542  0.7652  0.3934 -0.2377
   45MOL   H180 9068   0.984   2.291   0.528 -0.8895  0.9231  2.1349
   45MOL   H181 9069   1.120   2.177   0.485 -1.1376 -2.3184 -0.0260
   45MOL   O182 9070   1.096   2.217   0.681  0.3172  0.1695 -0.1513
   45MOL   C183 9071   1.194   2.323   0.701  0.2696  0.4706  0.1725
   45MOL   C184 9072   1.231   2.307   0.851  0.5386  0.3545  0.1185
   45MOL   C185 9073   1.308   2.431   0.895 -0.2381  0.5296  0.0899
   45MOL   H186 9074   1.157   2.424   0.685  2.1752  1.2745  0.6339
   45MOL   H187 9075   1.280   2.299   0.638 -1.3662 -0.6244 -1.6852
   45MOL   H188 9076   1.139   2.305   0.910  0.2815 -1.0783 -0.3096
   45MOL   H189 9077   1.291   2.226   0.892 -0.1759  0.1905  0.8464
   45MOL   H190 9078   1.265   2.522   0.853  1.5520  1.6414  0.6196
   45MOL   H191 9079   1.406   2.433   0.847 -0.5756  0.4723 -0.6100
   45MOL   O192 9080   1.328   2.431   1.030  0.3869  0.6454 -0.9558
   45MOL   C193 9081   1.218   2.493   1.093  0.1035  0.2084  0.0390
   45MOL   C194 9082   1.228   2.461   1.245  0.6807 -0.3524  0.0651
   45MOL   C195 9083   1.115   2.500   1.334  0.2915 -0.1429 -0.6545
   45MOL   H196 9084   1.117   2.475   1.056  0.2701  0.8410 -0.7316
   45MOL   H197 9085   1.237   2.600   1.084  3.0010 -0.2621 -0.1513
   45MOL   H198 9086   1.233   2.352   1.248 -1.2393 -0.4402  0.3633
   45MOL   H199 9087   1.326   2.492   1.283 -0.2288 -0.7799  2.9066
   45MOL   H200 9088   1.124   2.456   1.433 -2.0130  2.6775  0.8998
   45MOL   H201 9089   1.018   2.465   1.299 -0.7034  3.6671 -1.9017
   45MOL   H202 9090   1.103   2.608   1.339 -0.3609 -0.2783  1.0544
   46MOL     O1 9091   6.463   0.379   2.052 -0.4295  0.0706  0.2774
   46MOL     C2 9092   6.404   0.289   1.966  0.0282  0.2336  0.0775
   46MOL     C3 9093   6.513   0.207   1.890 -0.3062  0.1545  0.7296
   46MOL     C4 9094   6.451   0.128   1.787 -0.1818  0.1554  0.2039
   46MOL     H5 9095   6.357   0.352   1.890  0.0304 -0.6127 -0.6248
   46MOL     H6 9096   6.320   0.232   2.005  0.9256 -1.7419 -0.8054
   46MOL     H7 9097   6.583   0.271   1.836  0.0265 -1.5962 -0.9389
   46MOL     H8 9098   6.564   0.140   1.959 -1.2154 -1.0155  0.2802
   46MOL     H9 9099   6.389   0.191   1.723  1.1013 -1.1025 -2.3433
   46MOL    H10 9100   6.389   0.054   1.838  0.8473  0.8019  2.4653
   46MOL    H11 9101   6.397   0.437   2.086  0.6873  2.1085 -0.9045
   46MOL    O12 9102   6.555   0.064   1.712  0.0889  0.0428 -0.5063
   46MOL    C13 9103   6.511   7.748   1.626  0.0451  0.0439  0.5117
   46MOL    C14 9104   6.633   7.664   1.592 -0.0113  0.5287 -0.0753
   46MOL    C15 9105   6.620   7.564   1.473  0.6454  0.1457  0.4186
   46MOL    H16 9106   6.467   0.011   1.540 -0.2267  0.3285  0.8218
   46MOL    H17 9107   6.432   7.684   1.664 -0.9727  0.3547 -1.0516
   46MOL    H18 9108   6.715   7.733   1.574  0.5449  0.1430  0.9938
   46MOL    H19 9109   6.666   7.601   1.674 -3.3296 -1.1085  0.0944
   46MOL    H20 9110   6.589   7.616   1.383  0.4352 -0.2133  0.2861
   46MOL    H21 9111   6.531   7.506   1.498  1.9855 -1.7094  1.0064
   46MOL    O22 9112   6.744   7.492   1.449 -0.3414  0.0949  0.1907
   46MOL    C23 9113   6.739   7.408   1.340  0.0055 -0.3763  0.4388
   46MOL    C24 9114   6.882   7.344   1.323  0.3412 -0.3406 -0.5326
   46MOL    C25 9115   6.894   7.254   1.197  0.3397  0.2713 -0.4521
   46MOL    H26 9116   6.710   7.478   1.262 -0.3244 -0.1909  0.7213
   46MOL    H27 9117   6.659   7.335   1.328 -0.2721  0.0489 -0.2932
   46MOL    H28 9118   6.947   7.430   1.313  1.0747 -1.0937 -2.4650
   46MOL    H29 9119   6.899   7.279   1.409  0.1146 -0.9008 -0.9065
   46MOL    H30 9120   6.878   7.308   1.104 -0.4899  1.8724  0.5948
   46MOL    H31 9121   6.813   7.180   1.196 -0.5996  1.2849 -0.4463
   46MOL    O32 9122   7.021   7.188   1.197 -0.5611 -0.0724  0.5545
   46MOL    C33 9123   7.065   7.150   1.073 -0.6211 -0.2725 -0.5004
   46MOL    C34 9124   7.195   7.088   1.105 -0.0067  0.3246  0.5675
   46MOL    C35 9125   7.270   7.050   0.975  0.6660 -0.1547  0.3196
   46MOL    H36 9126   7.069   7.229   0.998 -1.1085 -0.2471 -0.5019
   46MOL    H37 9127   7.005   7.069   1.032 -1.1204 -0.0998 -0.1176
   46MOL    H38 9128   7.247   7.168   1.157  0.2970  0.9192 -0.6364
   46MOL    H39 9129   7.198   6.998   1.166  1.6616 -0.7502 -1.0672
   46MOL    H40 9130   7.270   7.130   0.900  1.1167  0.3260  0.8293
   46MOL    H41 9131   7.215   6.972   0.923 -0.6029  1.0708 -0.2164
   46MOL    O42 9132   7.399   7.007   1.019  0.6217  0.3109 -0.3972
   46MOL    C43 9133   7.460   6.955   0.902 -0.1425 -0.1735 -0.0555
   46MOL    C44 9134   7.608   6.932   0.922  0.0102 -0.5304 -0.3396
   46MOL    C45 9135   7.696   7.056   0.928  0.0708  0.3819  0.3666
   46MOL    H46 9136   7.436   7.002   0.806  1.9130 -1.6391 -1.3413
   46MOL    H47 9137   7.407   6.859   0.900 -1.3154  0.4134  1.5550
   46MOL    H48 9138   7.621   6.894   1.023  0.4178  1.1081  0.2252
   46MOL    H49 9139   7.652   6.867   0.846  1.0189 -2.0597  1.5217
   46MOL    H50 9140   7.652   7.135   0.989 -0.5213 -0.2738  0.8059
   46MOL    H51 9141   7.710   7.098   0.829 -2.3498 -1.1428 -0.6843
   46MOL    O52 9142   0.026   7.026   0.999  0.3448  0.6097  0.2487
   46MOL    C53 9143   0.128   7.100   0.940 -0.1714 -0.0252 -0.4041
   46MOL    C54 9144   0.248   7.103   1.029  0.5131  0.3224  0.8041
   46MOL    C55 9145   0.353   7.195   0.965 -0.6913  0.4421  0.0923
   46MOL    H56 9146   0.095   7.203   0.935  0.8762  0.2313 -2.7831
   46MOL    H57 9147   0.158   7.061   0.843  0.7391  1.6721 -0.8212
   46MOL    H58 9148   0.218   7.156   1.119  3.2853 -0.0138  1.9725
   46MOL    H59 9149   0.286   7.001   1.035  0.3320  0.1339 -0.8223
   46MOL    H60 9150   0.307   7.294   0.956 -0.1204  0.8777  1.7730
   46MOL    H61 9151   0.374   7.151   0.867 -0.6730 -0.4551  0.4957
   46MOL    O62 9152   0.470   7.196   1.051 -0.4778 -0.1397  0.4008
   46MOL    C63 9153   0.593   7.263   1.007 -0.2617 -0.2747 -0.1372
   46MOL    C64 9154   0.709   7.223   1.113 -0.1613  0.2906 -0.1888
   46MOL    C65 9155   0.698   7.302   1.247 -0.6328 -0.1896 -0.2608
   46MOL    H66 9156   0.589   7.372   1.006  2.4381 -0.1664 -3.1117
   46MOL    H67 9157   0.625   7.223   0.911  1.4381 -1.6887  1.0029
   46MOL    H68 9158   0.719   7.115   1.124 -0.5869  0.0331 -2.1514
   46MOL    H69 9159   0.805   7.256   1.074  1.7247 -1.5259  2.6986
   46MOL    H70 9160   0.596   7.289   1.283 -0.6005 -2.3076 -0.8396
   46MOL    H71 9161   0.726   7.407   1.237  0.8265 -0.0981  3.7794
   46MOL    O72 9162   0.793   7.240   1.337  0.0135  0.4078 -0.2061
   46MOL    C73 9163   0.770   7.294   1.463 -0.3606  0.2207  0.4339
   46MOL    C74 9164   0.883   7.251   1.562  0.3369 -0.4662  0.4451
   46MOL    C75 9165   0.874   7.307   1.711  0.6836 -0.0169 -0.1412
   46MOL    H76 9166   0.671   7.267   1.501 -1.0991  2.0714 -0.0912
   46MOL    H77 9167   0.765   7.402   1.448  0.2065  0.1740 -0.1039
   46MOL    H78 9168   0.899   7.143   1.572 -1.4626 -0.5864  2.3620
   46MOL    H79 9169   0.975   7.292   1.519  0.0702 -0.4975 -0.1729
   46MOL    H80 9170   0.946   7.259   1.777  0.6589  1.0595  0.6885
   46MOL    H81 9171   0.783   7.293   1.768  0.6833  1.1774  0.1632
   46MOL    O82 9172   0.909   7.447   1.709 -0.5174  0.0953 -0.4276
   46MOL    C83 9173   0.908   7.506   1.839 -0.1253 -0.1349  0.2511
   46MOL    C84 9174   0.959   7.652   1.815 -0.5079 -0.3830  0.1801
   46MOL    C85 9175   0.847   7.742   1.756 -0.1264 -0.0730 -0.4916
   46MOL    H86 9176   0.970   7.451   1.910 -1.2364  0.8970  2.0413
   46MOL    H87 9177   0.809   7.503   1.884 -0.9719  0.7112 -1.4884
   46MOL    H88 9178   0.998   7.701   1.904  1.2011  0.7352 -1.1555
   46MOL    H89 9179   1.040   7.655   1.743 -0.4776  3.8961  0.2433
   46MOL    H90 9180   0.770   7.734   1.833  0.1236  0.1426 -0.2176
   46MOL    H91 9181   0.800   7.693   1.671  0.2636  0.8263 -1.2322
   46MOL    O92 9182   0.893   0.085   1.732  0.2983  0.3007  0.5958
   46MOL    C93 9183   0.797   0.169   1.672 -0.1860 -0.2549  0.4840
   46MOL    C94 9184   0.820   0.324   1.684  0.3871  0.3731  0.4675
   46MOL    C95 9185   0.692   0.398   1.644  0.0399 -0.3159 -0.2258
   46MOL    H96 9186   0.701   0.155   1.722 -1.2846  2.0432 -0.8890
   46MOL    H97 9187   0.799   0.135   1.569  0.8093 -1.2833  0.8286
   46MOL    H98 9188   0.841   0.355   1.786 -0.8861 -0.0920  0.8863
   46MOL    H99 9189   0.905   0.343   1.619 -1.4516  0.8480 -1.8854
   46MOL   H100 9190   0.603   0.361   1.695  0.2104 -0.7897 -0.2622
   46MOL   H101 9191   0.667   0.389   1.538 -0.3380  1.7773 -0.3402
   46MOL   O102 9192   0.708   0.537   1.653  0.1794  0.5010  0.3846
   46MOL   C103 9193   0.602   0.613   1.601  0.4106 -0.5808 -0.0810
   46MOL   C104 9194   0.630   0.760   1.622 -0.3393 -0.2169 -0.2136
   46MOL   C105 9195   0.643   0.807   1.769 -0.4917  0.5225  0.5178
   46MOL   H106 9196   0.514   0.593   1.662 -0.1721  0.4102 -0.5857
   46MOL   H107 9197   0.571   0.582   1.502 -3.2458 -2.7864  1.6191
   46MOL   H108 9198   0.723   0.776   1.568 -0.2554  2.6391  0.7198
   46MOL   H109 9199   0.555   0.810   1.561  0.7240  2.2936  0.4959
   46MOL   H110 9200   0.700   0.728   1.819  0.3328  0.1118 -1.0483
   46MOL   H111 9201   0.544   0.807   1.814 -0.1623  1.1746  1.2673
   46MOL   O112 9202   0.690   0.944   1.777  0.4798  0.3561  0.2374
   46MOL   C113 9203   0.705   0.968   1.919  0.1195  0.2348 -0.5815
   46MOL   C114 9204   0.744   1.116   1.914 -0.2696  0.8903 -0.6724
   46MOL   C115 9205   0.776   1.169   2.052  0.6899 -0.2338  0.6060
   46MOL   H116 9206   0.781   0.901   1.961 -0.9819 -0.2587  0.6830
   46MOL   H117 9207   0.611   0.955   1.973  0.3481 -0.2538 -0.2956
   46MOL   H118 9208   0.835   1.126   1.855  0.8377  0.7343  0.9748
   46MOL   H119 9209   0.662   1.167   1.865 -2.8376  0.1324  2.6478
   46MOL   H120 9210   0.689   1.177   2.116  1.4114  0.7398  1.4881
   46MOL   H121 9211   0.810   1.273   2.056 -0.6325  0.2548 -0.5332
   46MOL   O122 9212   0.873   1.090   2.127  0.1016  0.6713 -0.1380
   46MOL   C123 9213   1.002   1.074   2.072 -0.4460  0.3950  0.1822
   46MOL   C124 9214   1.071   0.992   2.176  0.4015  0.5937 -0.0019
   46MOL   C125 9215   1.208   0.959   2.138  0.2165  0.2903  0.2683
   46MOL   H126 9216   1.036   1.177   2.068 -0.4360  0.4254  0.9282
   46MOL   H127 9217   1.004   1.040   1.969 -0.1121 -1.8085  0.8895
   46MOL   H128 9218   1.085   1.055   2.264 -0.9348  0.1676  0.5246
   46MOL   H129 9219   1.012   0.906   2.206  1.1461  0.5412  1.3358
   46MOL   H130 9220   1.270   1.049   2.134  1.8361 -0.7804  0.6158
   46MOL   H131 9221   1.218   0.919   2.037  2.5193  1.4388 -0.0070
   46MOL   O132 9222   1.269   0.871   2.229 -0.1468 -0.0424  0.2572
   46MOL   C133 9223   1.404   0.837   2.202  0.7945 -0.3049  0.0663
   46MOL   C134 9224   1.467   0.756   2.314 -0.4302  0.9386  0.4965
   46MOL   C135 9225   1.417   0.610   2.312  0.0237 -0.4589 -0.2178
   46MOL   H136 9226   1.460   0.928   2.181 -0.9400  0.6691 -0.4754
   46MOL   H137 9227   1.408   0.778   2.110  1.0823 -1.2719  0.6933
   46MOL   H138 9228   1.574   0.743   2.297 -0.8411 -1.9622 -0.0871
   46MOL   H139 9229   1.440   0.804   2.408 -0.0938  0.0400  1.0540
   46MOL   H140 9230   1.453   0.558   2.224  0.5372 -0.1368 -0.1961
   46MOL   H141 9231   1.309   0.614   2.298  0.1690  1.4516 -0.8970
   46MOL   O142 9232   1.449   0.556   2.435 -0.6628  0.4180  0.5095
   46MOL   C143 9233   1.358   0.460   2.475 -0.3381 -0.1921 -0.6099
   46MOL   C144 9234   1.417   0.386   2.604  0.1421 -0.6726  0.8877
   46MOL   C145 9235   1.320   0.273   2.652 -0.8120  0.4521 -0.4778
   46MOL   H146 9236   1.336   0.386   2.398  1.1237 -2.5441  1.1717
   46MOL   H147 9237   1.267   0.513   2.504 -0.0647 -0.7861  1.4223
   46MOL   H148 9238   1.511   0.345   2.569 -0.1271  1.1411 -2.1153
   46MOL   H149 9239   1.431   0.462   2.681  0.1447 -1.3584  1.5673
   46MOL   H150 9240   1.223   0.310   2.687 -1.0567  0.0414 -0.7267
   46MOL   H151 9241   1.360   0.218   2.737  0.0840  0.2165 -1.0478
   46MOL   O152 9242   1.303   0.186   2.536  0.2469 -0.6207 -0.8664
   46MOL   C153 9243   1.191   0.100   2.540  0.6892 -0.2434  0.4905
   46MOL   C154 9244   1.209   7.782   2.653  0.0308  0.1755 -0.6355
   46MOL   C155 9245   1.092   7.677   2.653 -0.2756  0.2092 -0.2714
   46MOL   H156 9246   1.178   0.045   2.447  0.8847  1.3938 -0.5238
   46MOL   H157 9247   1.101   0.158   2.561 -0.5719 -3.0324  3.1519
   46MOL   H158 9248   1.298   7.721   2.643 -1.0287 -1.3545 -1.0214
   46MOL   H159 9249   1.219   0.043   2.749  0.7602 -0.2448 -0.5021
   46MOL   H160 9250   0.998   7.730   2.641  0.2945  0.5671 -3.4768
   46MOL   H161 9251   1.101   7.626   2.750 -1.7397 -0.6362 -0.5620
   46MOL   O162 9252   1.105   7.600   2.536  0.2887 -0.2229  0.4307
   46MOL   C163 9253   0.992   7.519   2.501  0.0858 -0.4820  0.2124
   46MOL   C164 9254   1.001   7.477   2.357  0.1314  0.5421  0.2555
   46MOL   C165 9255   1.066   7.342   2.335 -0.1185 -0.1440  0.0443
   46MOL   H166 9256   0.910   7.591   2.500  1.8767  1.6241  0.3484
   46MOL   H167 9257   0.977   7.433   2.567 -0.2718 -1.0899 -0.6629
   46MOL   H168 9258   0.895   7.466   2.337 -0.0869 -1.8695  2.4353
   46MOL   H169 9259   1.046   7.549   2.289  1.1157 -0.8120 -0.5486
   46MOL   H170 9260   1.020   7.274   2.406 -1.1965  1.2558  0.7145
   46MOL   H171 9261   1.174   7.357   2.334  0.0505 -1.3516 -0.7966
   46MOL   O172 9262   1.020   7.305   2.205  0.1340 -0.2137  0.6434
   46MOL   C173 9263   1.061   7.175   2.174  0.3523  0.5515  0.5774
   46MOL   C174 9264   0.993   7.133   2.046  0.0947 -0.1545 -0.4538
   46MOL   C175 9265   0.838   7.137   2.074  0.1542  0.5263 -0.4006
   46MOL   H176 9266   1.028   7.104   2.249 -3.0418  0.1365 -1.1624
   46MOL   H177 9267   1.168   7.167   2.160  0.3142 -0.8532  1.0681
   46MOL   H178 9268   1.012   7.195   1.959  1.4762  1.6816  1.1154
   46MOL   H179 9269   1.035   7.032   2.036  0.9178  0.3753 -2.6760
   46MOL   H180 9270   0.796   7.237   2.087  0.5684  0.7762 -0.9692
   46MOL   H181 9271   0.812   7.081   2.164 -0.1716 -1.9693 -2.0021
   46MOL   O182 9272   0.773   7.070   1.965 -0.1222  0.0354 -0.7333
   46MOL   C183 9273   0.634   7.103   1.952 -0.5863  0.0644 -0.3292
   46MOL   C184 9274   0.578   7.028   1.830  0.2624  0.2232 -0.0109
   46MOL   C185 9275   0.430   7.072   1.795  0.1221 -0.1489  0.2531
   46MOL   H186 9276   0.624   7.211   1.938 -0.0802  0.2547  0.7390
   46MOL   H187 9277   0.587   7.072   2.045  1.5826  2.4908  1.6552
   46MOL   H188 9278   0.647   7.044   1.747 -0.2457  0.1377 -0.4535
   46MOL   H189 9279   0.586   6.920   1.846  1.7239  0.1329 -1.1921
   46MOL   H190 9280   0.380   7.075   1.891 -1.2496  1.0908 -0.4784
   46MOL   H191 9281   0.376   6.999   1.734 -1.3411  1.8697 -0.9415
   46MOL   O192 9282   0.433   7.206   1.740  0.0543  0.4039  0.1590
   46MOL   C193 9283   0.307   7.276   1.740  0.0342 -0.2389 -0.2563
   46MOL   C194 9284   0.243   7.244   1.607  0.0827  0.0959 -0.2269
   46MOL   C195 9285   0.331   7.288   1.488 -0.9025  0.5975  0.3357
   46MOL   H196 9286   0.322   7.384   1.736 -2.4676  0.1132 -0.3882
   46MOL   H197 9287   0.247   7.268   1.831 -1.6996  0.9804 -1.2710
   46MOL   H198 9288   0.203   7.144   1.593  2.0721 -0.5718 -1.3946
   46MOL   H199 9289   0.147   7.295   1.601 -1.0330 -1.6865  1.5219
   46MOL   H200 9290   0.363   7.391   1.507  1.5409 -0.2376  0.9055
   46MOL   H201 9291   0.267   7.272   1.401  0.3823  0.0872 -0.5292
   46MOL   H202 9292   0.424   7.232   1.478  1.0664  3.6777  0.7683
   47MOL     O1 9293   5.893   3.927   0.293  0.3371 -0.1829  0.5449
   47MOL     C2 9294   5.805   3.949   0.180  0.2984  0.3526  0.2760
   47MOL     C3 9295   5.832   4.087   0.122  0.2480  0.3882 -0.1517
   47MOL     C4 9296   5.733   4.112   0.009 -0.3979  0.1703  0.0805
   47MOL     H5 9297   5.699   3.946   0.204  0.5104  2.0128  1.5687
   47MOL     H6 9298   5.823   3.867   0.111 -1.3628  2.0009 -2.2360
   47MOL     H7 9299   5.822   4.149   0.211  1.9332 -1.7809  1.6142
   47MOL     H8 9300   5.931   4.104   0.080  0.7771  0.6752  1.1939
   47MOL     H9 9301   5.630   4.093   0.040 -0.4038  1.8600  1.1866
   47MOL    H10 9302   5.745   4.044   7.713  0.3102  0.2350  0.1299
   47MOL    H11 9303   5.841   3.903   0.369  2.0855  3.2542  2.9423
   47MOL    O12 9304   5.744   4.244   7.748  0.0514  1.2877  0.5611
   47MOL    C13 9305   5.659   4.286   7.643 -0.2101 -0.2309  0.2648
   47MOL    C14 9306   5.692   4.429   7.590 -0.0664  0.1212 -0.7781
   47MOL    C15 9307   5.649   4.531   7.695  0.9099  0.7244  0.0098
   47MOL    H16 9308   5.551   4.284   7.651 -0.3097  1.6657 -0.3453
   47MOL    H17 9309   5.670   4.219   7.558 -1.9676  0.1611 -0.2927
   47MOL    H18 9310   5.800   4.439   7.574 -0.0413 -0.4608 -0.9779
   47MOL    H19 9311   5.639   4.437   7.495 -2.7682  0.0263  0.6994
   47MOL    H20 9312   5.711   4.515   7.784  0.1016 -0.5385  0.3630
   47MOL    H21 9313   5.548   4.512   7.729 -0.1632  0.7656 -3.0024
   47MOL    O22 9314   5.673   4.658   7.638 -0.0134  0.0177 -0.2441
   47MOL    C23 9315   5.683   4.751   7.743 -0.1238  0.0638 -0.2340
   47MOL    C24 9316   5.696   4.890   7.696  0.0579  1.1831 -0.2655
   47MOL    C25 9317   5.652   4.984   0.021 -1.0503  0.6209 -0.9954
   47MOL    H26 9318   5.769   4.729   0.018  0.8633 -0.5090 -1.7401
   47MOL    H27 9319   5.589   4.738   0.008  0.2904 -1.3831  0.1864
   47MOL    H28 9320   5.797   4.906   7.659  0.5434 -0.0032  0.5381
   47MOL    H29 9321   5.625   4.912   7.615  1.0846 -0.3537 -1.6250
   47MOL    H30 9322   5.690   4.969   0.122 -0.6954 -0.9720 -1.3586
   47MOL    H31 9323   5.545   4.964   0.028 -0.9165  0.1984 -0.0875
   47MOL    O32 9324   5.662   5.114   7.762  0.0030  0.3101 -0.4286
   47MOL    C33 9325   5.786   5.176   0.024  0.3404 -0.5184 -0.0173
   47MOL    C34 9326   5.835   5.292   7.719 -0.3381 -0.3241 -0.5878
   47MOL    C35 9327   5.840   5.246   7.571 -0.2250 -0.4369 -0.3470
   47MOL    H36 9328   5.872   5.108   0.020  2.4064  1.9260  1.1934
   47MOL    H37 9329   5.771   5.218   0.124  0.4128 -1.5158  0.4237
   47MOL    H38 9330   5.769   5.379   7.722  1.2829  0.9142  0.0199
   47MOL    H39 9331   5.936   5.317   7.752 -0.4360  0.4498 -0.8632
   47MOL    H40 9332   5.843   5.340   7.516 -1.2223  0.3430  0.8908
   47MOL    H41 9333   5.745   5.197   7.549 -1.2601  0.7791  1.2852
   47MOL    O42 9334   5.951   5.154   7.571 -0.5736  0.0109  0.4249
   47MOL    C43 9335   5.981   5.113   7.437  0.8061  1.1691 -0.1934
   47MOL    C44 9336   6.044   4.975   7.455 -0.3551  0.3222  0.2375
   47MOL    C45 9337   6.128   4.922   7.333  0.6291  0.5259 -0.2442
   47MOL    H46 9338   6.053   5.186   7.400  0.1767  1.5880 -0.6051
   47MOL    H47 9339   5.891   5.114   7.375 -0.3825  1.7978  1.5196
   47MOL    H48 9340   6.093   4.961   7.551 -0.3538 -1.4518  0.0060
   47MOL    H49 9341   5.975   4.898   7.491 -2.8361  1.6067 -1.5828
   47MOL    H50 9342   6.209   4.994   7.324  1.2524 -0.1688 -0.2544
   47MOL    H51 9343   6.069   4.926   7.242 -0.4836  0.5684  0.4700
   47MOL    O52 9344   6.167   4.789   7.360 -0.3500  0.2404 -0.5453
   47MOL    C53 9345   6.298   4.782   7.407  0.0290  0.0795 -0.1803
   47MOL    C54 9346   6.319   4.635   7.407 -0.0122  0.4456  0.2695
   47MOL    C55 9347   6.461   4.597   7.438 -0.4425  0.4137  0.2981
   47MOL    H56 9348   6.312   4.810   7.512  0.7660  1.0481 -0.5287
   47MOL    H57 9349   6.370   4.838   7.348 -0.1582  0.6503  0.1250
   47MOL    H58 9350   6.245   4.586   7.471  0.0016  2.1928  1.6519
   47MOL    H59 9351   6.307   4.611   7.301  1.6438  0.0694  0.1592
   47MOL    H60 9352   6.525   4.651   7.368  0.2160 -0.1409  0.4669
   47MOL    H61 9353   6.478   4.491   7.415 -1.1049  0.4771 -0.5085
   47MOL    O62 9354   6.502   4.629   7.571  0.2229 -0.3928 -0.1463
   47MOL    C63 9355   6.624   4.559   7.614 -0.1495 -0.1330 -0.5626
   47MOL    C64 9356   6.659   4.597   7.755 -0.5191 -0.1392 -0.7439
   47MOL    C65 9357   6.695   4.746   7.771 -0.3022  0.6617  0.5293
   47MOL    H66 9358   6.709   4.565   7.546 -0.2344 -0.0355 -0.6591
   47MOL    H67 9359   6.602   4.452   7.618  1.9282 -0.5254  1.1165
   47MOL    H68 9360   6.571   4.575   0.027 -0.6318  1.0990 -0.4602
   47MOL    H69 9361   6.737   4.533   0.009 -0.8312  1.0791  1.7558
   47MOL    H70 9362   6.617   4.806   7.723 -0.2674 -0.0049 -0.3836
   47MOL    H71 9363   6.780   4.776   7.710  0.3264 -1.8254  0.1083
   47MOL    O72 9364   6.723   4.789   0.110 -0.0149 -0.2162 -0.6993
   47MOL    C73 9365   6.776   4.919   0.104  0.4757 -0.2897  0.4044
   47MOL    C74 9366   6.792   4.994   0.238 -0.4146  0.5383 -0.2819
   47MOL    C75 9367   6.903   4.917   0.320 -0.0726 -0.3430 -0.1694
   47MOL    H76 9368   6.712   4.985   0.044  0.4157 -0.5700  0.1574
   47MOL    H77 9369   6.873   4.923   0.054 -0.3994  0.8165 -1.2670
   47MOL    H78 9370   6.820   5.097   0.217  2.2145  0.2888  1.7449
   47MOL    H79 9371   6.703   4.994   0.300 -1.5564  0.2697 -1.8944
   47MOL    H80 9372   6.982   4.889   0.250  1.7778  2.4517  0.7175
   47MOL    H81 9373   6.864   4.822   0.355  0.5573 -0.1928  0.9529
   47MOL    O82 9374   6.969   4.993   0.419 -0.3682  0.3477  0.5853
   47MOL    C83 9375   6.915   4.967   0.547  0.1621  0.5026 -0.1357
   47MOL    C84 9376   6.978   5.052   0.658  0.5561  0.3806 -0.4736
   47MOL    C85 9377   6.916   5.017   0.801  0.3571 -0.5996  0.7955
   47MOL    H86 9378   6.916   4.858   0.560  0.3501  0.6098  0.7934
   47MOL    H87 9379   6.806   4.976   0.549  0.0823 -0.3125 -0.2658
   47MOL    H88 9380   7.087   5.046   0.662  0.5717  1.0541  0.2315
   47MOL    H89 9381   6.965   5.156   0.630  2.5499  0.4682 -1.1087
   47MOL    H90 9382   6.946   4.914   0.819  2.9394  0.2744  1.7809
   47MOL    H91 9383   6.807   5.020   0.803  0.3672  0.1896  0.4617
   47MOL    O92 9384   6.955   5.107   0.907 -0.1622 -0.1193  0.2809
   47MOL    C93 9385   6.924   5.063   1.036  0.1579  0.3200 -0.5394
   47MOL    C94 9386   6.922   5.180   1.136  0.0605 -0.0455 -0.1831
   47MOL    C95 9387   6.861   5.147   1.268 -0.7885 -0.3824 -0.8400
   47MOL    H96 9388   6.982   4.976   1.068 -1.6735 -0.3257  1.1144
   47MOL    H97 9389   6.819   5.034   1.049  0.1103 -0.1175 -1.8596
   47MOL    H98 9390   7.026   5.207   1.151 -0.0747 -0.7192  2.1446
   47MOL    H99 9391   6.875   5.266   1.089 -1.6403  0.4967  2.4409
   47MOL   H100 9392   6.758   5.113   1.256  0.3140 -4.0796 -0.5929
   47MOL   H101 9393   6.862   5.232   1.336  2.2830  1.4140 -3.0259
   47MOL   O102 9394   6.922   5.031   1.329 -0.0171 -0.1485  0.0021
   47MOL   C103 9395   7.048   5.048   1.382 -0.0940  0.1854  0.2769
   47MOL   C104 9396   7.094   4.918   1.442  0.3253  0.1581  0.0410
   47MOL   C105 9397   7.066   4.800   1.346 -0.0989  0.7134 -0.5569
   47MOL   H106 9398   7.039   5.134   1.448 -0.3270  0.7017 -0.4239
   47MOL   H107 9399   7.113   5.078   1.300 -0.7736 -1.4566 -0.8795
   47MOL   H108 9400   7.201   4.932   1.455  0.0151  1.5420  1.2083
   47MOL   H109 9401   7.035   4.909   1.533 -1.1755  1.4484 -0.7799
   47MOL   H110 9402   7.104   4.838   1.251 -0.5830  0.2011 -0.9621
   47MOL   H111 9403   6.960   4.778   1.333  0.3702 -2.6385  0.9159
   47MOL   O112 9404   7.148   4.686   1.376 -0.1903 -0.4992 -0.6461
   47MOL   C113 9405   7.141   4.636   1.512  0.4194  0.2398 -0.7279
   47MOL   C114 9406   7.168   4.488   1.515 -0.1711  0.1135 -0.5613
   47MOL   C115 9407   7.161   4.426   1.651 -0.3160 -0.2742  0.0450
   47MOL   H116 9408   7.043   4.647   1.557 -0.1534 -0.3156 -1.8151
   47MOL   H117 9409   7.221   4.669   1.578 -0.3098 -0.9812  0.7984
   47MOL   H118 9410   7.091   4.438   1.457 -0.4550  0.5432 -0.5580
   47MOL   H119 9411   7.266   4.467   1.471  0.2235  0.8247 -0.0361
   47MOL   H120 9412   7.065   4.451   1.696 -0.3377 -0.8130  0.2939
   47MOL   H121 9413   7.238   4.472   1.713 -2.0052  1.2694  1.0395
   47MOL   O122 9414   7.186   4.296   1.633 -0.2949  0.4157  0.0305
   47MOL   C123 9415   7.196   4.220   1.747 -0.9700  0.3255  0.4229
   47MOL   C124 9416   7.214   4.071   1.719  0.7166 -0.0111  0.1289
   47MOL   C125 9417   7.164   3.976   1.827 -0.0245  0.1225  0.3304
   47MOL   H126 9418   7.109   4.237   1.811 -0.1844  0.3936  1.4928
   47MOL   H127 9419   7.273   4.252   1.817 -0.6323 -0.6968  0.5304
   47MOL   H128 9420   7.153   4.058   1.629  0.3445 -1.9431  0.6486
   47MOL   H129 9421   7.318   4.056   1.687 -0.3015 -2.0017 -2.4429
   47MOL   H130 9422   7.074   4.019   1.871 -0.6338  2.5747 -3.2162
   47MOL   H131 9423   7.236   3.968   1.909 -0.4712 -0.7040  0.6565
   47MOL   O132 9424   7.128   3.849   1.768 -0.4191 -0.6758  0.0336
   47MOL   C133 9425   7.237   3.773   1.712 -0.0583  0.2106 -0.6695
   47MOL   C134 9426   7.190   3.667   1.615 -0.0675  0.8248  0.1357
   47MOL   C135 9427   7.298   3.586   1.540  0.3838 -0.7613 -0.0200
   47MOL   H136 9428   7.288   3.724   1.795  1.7046 -0.4074 -2.1024
   47MOL   H137 9429   7.314   3.833   1.665 -0.4223 -0.3436 -1.9928
   47MOL   H138 9430   7.130   3.589   1.662  0.0680 -0.6191 -2.0323
   47MOL   H139 9431   7.133   3.720   1.538  0.9241  0.0837 -1.1315
   47MOL   H140 9432   7.326   3.643   1.451 -0.7054 -0.9179 -0.4702
   47MOL   H141 9433   7.262   3.490   1.504 -0.5531 -1.6281  3.0855
   47MOL   O142 9434   7.402   3.567   1.645  0.5311  0.2897  0.3985
   47MOL   C143 9435   7.515   3.492   1.613 -0.2001 -0.3530 -0.1778
   47MOL   C144 9436   7.602   3.493   1.736 -0.5595  0.0270  0.1204
   47MOL   C145 9437   7.713   3.381   1.732  0.0854 -1.0001 -0.2961
   47MOL   H146 9438   7.568   3.529   1.525  1.9178  0.4926  1.4115
   47MOL   H147 9439   7.485   3.392   1.580 -0.2233 -0.5898  0.5605
   47MOL   H148 9440   7.645   3.592   1.750 -2.4056  0.8952 -0.1105
   47MOL   H149 9441   7.536   3.477   1.821 -1.0314  2.7792  0.3310
   47MOL   H150 9442   0.017   3.414   1.683  1.3306 -2.0154  1.2817
   47MOL   H151 9443   7.677   3.296   1.675  0.1941 -1.3291  0.1258
   47MOL   O152 9444   7.752   3.330   1.858  0.2909 -0.3871 -0.2750
   47MOL   C153 9445   0.048   3.414   1.935 -0.5480 -0.1902  0.7683
   47MOL   C154 9446   0.084   3.336   2.061  0.6075  0.0291  0.3365
   47MOL   C155 9447   0.161   3.410   2.165  0.3294 -0.1844 -0.6023
   47MOL   H156 9448   0.004   3.507   1.969  0.1198  0.1436  0.7371
   47MOL   H157 9449   0.135   3.448   1.879 -0.3642 -1.3305  0.3303
   47MOL   H158 9450   7.781   3.298   2.109  1.3500 -0.7993  1.1083
   47MOL   H159 9451   0.146   3.250   2.038  3.3976  2.0075  0.1925
   47MOL   H160 9452   0.249   3.454   2.119  2.5291 -1.3736  2.2793
   47MOL   H161 9453   0.202   3.342   2.240  1.2301 -0.6968 -1.5558
   47MOL   O162 9454   0.072   3.505   2.232  0.0142 -0.5846 -0.0132
   47MOL   C163 9455   0.134   3.561   2.343 -0.8516  0.2251 -0.4650
   47MOL   C164 9456   0.145   3.711   2.333 -0.1275  0.5752  0.0269
   47MOL   C165 9457   0.245   3.763   2.235  0.0946 -0.4639 -0.5763
   47MOL   H166 9458   0.229   3.514   2.367 -1.8143 -1.1056  0.8628
   47MOL   H167 9459   0.080   3.535   2.434  1.1450 -0.8301  0.4617
   47MOL   H168 9460   0.043   3.742   2.309 -0.5723 -1.3599 -0.6826
   47MOL   H169 9461   0.169   3.754   2.431  0.6297  1.8451 -0.7096
   47MOL   H170 9462   0.241   3.871   2.222  4.0683 -0.1473  0.3489
   47MOL   H171 9463   0.230   3.715   2.138  1.4432 -0.2860 -0.8876
   47MOL   O172 9464   0.369   3.730   2.291 -0.2542 -0.4533 -0.5464
   47MOL   C173 9465   0.478   3.816   2.251  0.0666 -0.1617  0.5437
   47MOL   C174 9466   0.614   3.761   2.288  0.6203 -0.0248  0.0061
   47MOL   C175 9467   0.731   3.841   2.223  0.1100  0.7655  0.3392
   47MOL   H176 9468   0.462   3.901   2.317 -2.0733  1.6554 -2.2265
   47MOL   H177 9469   0.484   3.838   2.145 -0.4303 -0.1787  0.5106
   47MOL   H178 9470   0.623   3.761   2.396 -0.7367 -0.8752  0.1264
   47MOL   H179 9471   0.630   3.657   2.259 -4.5139 -0.8504 -0.3605
   47MOL   H180 9472   0.706   3.947   2.218 -1.4747  0.4202  0.7882
   47MOL   H181 9473   0.744   3.806   2.121 -1.3611  0.3618  0.2767
   47MOL   O182 9474   0.846   3.809   2.298  0.6510  0.0089 -0.4794
   47MOL   C183 9475   0.957   3.882   2.271  0.2021 -0.1697  0.2074
   47MOL   C184 9476   1.047   3.840   2.151  0.0884 -0.1214  0.0724
   47MOL   C185 9477   1.076   3.689   2.152  0.1933  0.1407  0.5652
   47MOL   H186 9478   1.009   3.875   2.367  0.0663 -0.5493  0.2532
   47MOL   H187 9479   0.933   3.987   2.254  2.3456 -0.0702 -2.5206
   47MOL   H188 9480   0.991   3.857   2.059 -0.7719  0.3773  0.6698
   47MOL   H189 9481   1.140   3.897   2.149  0.6778 -1.1123 -2.4612
   47MOL   H190 9482   0.995   3.624   2.120  0.3085  0.6895 -0.8728
   47MOL   H191 9483   1.096   3.652   2.253  2.4586  2.4840  1.0556
   47MOL   O192 9484   1.187   3.653   2.075  0.0076  0.1233  0.2174
   47MOL   C193 9485   1.149   3.649   1.936 -0.3366  0.0892 -0.2813
   47MOL   C194 9486   1.283   3.638   1.868  0.0065 -0.7888  0.0957
   47MOL   C195 9487   1.349   3.510   1.914 -0.4767 -0.1837  0.2120
   47MOL   H196 9488   1.091   3.739   1.916 -0.5141  0.3754  1.4914
   47MOL   H197 9489   1.081   3.571   1.902  0.4631 -0.9047  0.3674
   47MOL   H198 9490   1.279   3.645   1.759 -1.0083  1.9431  0.2730
   47MOL   H199 9491   1.337   3.726   1.902 -1.0251  0.0085 -0.3017
   47MOL   H200 9492   1.334   3.485   2.018 -0.0837  0.9640  0.5541
   47MOL   H201 9493   1.454   3.521   1.884 -0.0221  0.3230  1.9626
   47MOL   H202 9494   1.314   3.419   1.865  0.0700 -0.8622  1.0694
   48MOL     O1 9495   6.375   7.741   0.471 -0.2311  0.0602  0.0285
   48MOL     C2 9496   6.241   7.691   0.484 -0.1085 -0.3978 -0.0881
   48MOL     C3 9497   6.222   7.543   0.448 -0.5310 -0.4790 -0.8349
   48MOL     C4 9498   6.222   7.443   0.570  0.4015 -0.4296  0.1140
   48MOL     H5 9499   6.167   7.745   0.425  2.2864  2.6538 -0.4011
   48MOL     H6 9500   6.212   7.706   0.588  1.4695  3.9394 -0.1945
   48MOL     H7 9501   6.131   7.530   0.389 -0.9460 -0.0474 -0.2850
   48MOL     H8 9502   6.311   7.515   0.392  1.9282  0.6110  2.3976
   48MOL     H9 9503   6.137   7.447   0.638 -1.6584 -0.7154 -2.3695
   48MOL    H10 9504   6.307   7.463   0.635  0.1423 -0.2851  0.4092
   48MOL    H11 9505   6.400   7.730   0.380 -0.7747  0.6659 -0.2002
   48MOL    O12 9506   6.232   7.310   0.523  0.2882 -0.5230 -0.0417
   48MOL    C13 9507   6.308   7.218   0.589  1.0394 -0.0800  0.2864
   48MOL    C14 9508   6.307   7.093   0.496  0.1614  0.4187 -0.0522
   48MOL    C15 9509   6.395   7.121   0.377  0.1138  0.7883 -0.0295
   48MOL    H16 9510   6.265   7.200   0.688 -0.6181 -2.2293 -0.7713
   48MOL    H17 9511   6.410   7.255   0.593  0.6418  1.3234 -1.9214
   48MOL    H18 9512   6.350   7.013   0.557  0.2264  0.1351 -0.4640
   48MOL    H19 9513   6.203   7.067   0.476  0.5617 -0.0284 -1.6174
   48MOL    H20 9514   6.364   7.217   0.336 -0.3579  0.9587  0.7203
   48MOL    H21 9515   6.387   7.039   0.304  1.1346  1.4892 -0.9447
   48MOL    O22 9516   6.530   7.119   0.414  0.1389  0.0309  0.0342
   48MOL    C23 9517   6.615   7.150   0.303 -0.8477  0.2152 -0.1001
   48MOL    C24 9518   6.751   7.163   0.360 -0.3781 -0.0691  0.8395
   48MOL    C25 9519   6.859   7.209   0.266 -0.4493  0.3705  0.3197
   48MOL    H26 9520   6.585   7.240   0.248  0.8753  0.8790  0.0057
   48MOL    H27 9521   6.609   7.065   0.235 -0.9352  0.6868 -0.6822
   48MOL    H28 9522   6.749   7.232   0.445  2.0845 -0.0868  0.9552
   48MOL    H29 9523   6.767   7.060   0.391 -2.3782 -0.3984  0.8256
   48MOL    H30 9524   6.858   7.317   0.248  2.0124  0.6012  1.3942
   48MOL    H31 9525   6.837   7.165   0.168 -1.0351 -1.1160  1.1072
   48MOL    O32 9526   6.989   7.169   0.305  0.1871  0.5133 -0.1348
   48MOL    C33 9527   7.087   7.208   0.216  0.4693  0.6503 -0.0988
   48MOL    C34 9528   7.096   7.125   0.094  0.3403 -0.1574  0.3178
   48MOL    C35 9529   7.232   7.116   0.027  0.2046 -0.2627 -0.3544
   48MOL    H36 9530   7.175   7.195   0.279  1.0353  0.0585 -0.9995
   48MOL    H37 9531   7.084   7.317   0.210 -1.5105  0.6346  0.3711
   48MOL    H38 9532   7.069   7.025   0.128 -2.6950 -0.3083 -2.2525
   48MOL    H39 9533   7.025   7.164   0.021  0.1795  0.2447  0.6836
   48MOL    H40 9534   7.224   7.073   7.715 -0.6201  0.7519 -0.7334
   48MOL    H41 9535   7.297   7.049   0.083  1.8386 -1.5504 -3.6504
   48MOL    O42 9536   7.285   7.249   0.025 -0.5118 -0.0326  0.3623
   48MOL    C43 9537   7.421   7.237   7.776 -0.5756 -0.0364  0.7293
   48MOL    C44 9538   7.472   7.378   7.751 -0.0479 -0.7113  0.0858
   48MOL    C45 9539   7.477   7.456   0.091  1.0510  0.3868 -0.1569
   48MOL    H46 9540   7.428   7.185   7.680 -2.1270  1.8220 -0.4376
   48MOL    H47 9541   7.485   7.196   0.065  2.0402 -1.5598 -2.1187
   48MOL    H48 9542   7.571   7.371   7.706  0.0038  0.9165 -0.0810
   48MOL    H49 9543   7.412   7.418   7.670  1.5819  2.2520  0.2668
   48MOL    H50 9544   7.523   7.397   0.170 -0.0632  0.4496  0.5384
   48MOL    H51 9545   7.375   7.471   0.126  0.3150 -2.2907 -1.0092
   48MOL    O52 9546   7.565   7.566   0.063  0.6709  0.0337  0.0093
   48MOL    C53 9547   7.512   7.675   0.140  0.1110 -0.4163  0.1131
   48MOL    C54 9548   7.584   0.011   0.099  0.3391 -0.0197 -0.9045
   48MOL    C55 9549   7.552   0.071   7.749 -0.1249 -0.1060 -0.7620
   48MOL    H56 9550   7.538   7.674   0.246 -0.0602  1.6643  0.2048
   48MOL    H57 9551   7.405   7.697   0.145 -0.0656 -0.8154 -1.6039
   48MOL    H58 9552   7.574   0.094   0.169  0.9427 -1.7363  1.2596
   48MOL    H59 9553   7.689   7.768   0.096  0.2309 -0.4780  0.0785
   48MOL    H60 9554   7.443   0.071   7.738 -0.3904 -1.7371  1.3536
   48MOL    H61 9555   7.590   0.003   7.673  1.3590  0.7410 -0.7803
   48MOL    O62 9556   7.621   0.191   7.728  0.5075 -0.3660  0.5576
   48MOL    C63 9557   7.568   0.280   7.631  0.9827  0.5526 -1.0002
   48MOL    C64 9558   7.662   0.408   7.625  0.8027  0.5009  0.3137
   48MOL    C65 9559   7.590   0.518   7.540  0.5351 -0.1144 -0.0969
   48MOL    H66 9560   7.468   0.315   7.657  1.7023  1.9993 -0.1499
   48MOL    H67 9561   7.547   0.226   7.538  1.0094 -0.1106 -0.6192
   48MOL    H68 9562   7.684   0.441   7.726 -0.2919 -0.0290  0.7306
   48MOL    H69 9563   7.756   0.383   7.576  0.1592  1.5064 -1.4698
   48MOL    H70 9564   7.484   0.523   7.567  0.3790  2.0331 -0.9952
   48MOL    H71 9565   7.588   0.476   7.439 -0.0650  0.7933 -0.4793
   48MOL    O72 9566   7.662   0.642   7.548 -0.2588 -0.4937 -0.1400
   48MOL    C73 9567   7.622   0.752   7.460 -1.0108  0.1835 -0.0473
   48MOL    C74 9568   7.710   0.878   7.491 -0.7434 -0.0355 -0.8608
   48MOL    C75 9569   7.668   0.951   7.625  0.4760  0.2222  0.3886
   48MOL    H76 9570   7.514   0.758   7.470 -1.2510 -2.0550 -0.7926
   48MOL    H77 9571   7.639   0.725   7.355  0.7141  2.7299 -0.4604
   48MOL    H78 9572   0.026   0.849   7.502 -1.1320 -0.4613  2.0603
   48MOL    H79 9573   7.698   0.949   7.409 -2.1670  0.5333 -0.1854
   48MOL    H80 9574   7.684   0.879   7.705  0.1509  0.6369  0.8279
   48MOL    H81 9575   7.559   0.961   7.625  0.0677 -3.3150  0.1874
   48MOL    O82 9576   7.751   1.064   7.645 -0.1162  0.0602  0.4473
   48MOL    C83 9577   7.758   1.111   7.779  0.5910 -0.4155  0.5537
   48MOL    C84 9578   0.115   1.142   0.029  0.0418 -0.1633  0.4428
   48MOL    C85 9579   0.203   1.017   0.018 -0.1740 -0.2768  0.1128
   48MOL    H86 9580   7.721   1.043   0.068  0.6075 -0.8702  0.1644
   48MOL    H87 9581   7.697   1.201   7.786  1.3857  0.2262 -0.5741
   48MOL    H88 9582   0.152   1.219   7.750  0.3967 -0.2067  0.5852
   48MOL    H89 9583   0.123   1.189   0.127 -1.3396 -1.3261  1.1435
   48MOL    H90 9584   0.170   0.952   7.725  2.1168  0.0663 -1.1255
   48MOL    H91 9585   0.204   0.956   0.108 -0.2748 -0.6120 -0.1127
   48MOL    O92 9586   0.343   1.055   0.002 -0.2799  0.2656 -0.2841
   48MOL    C93 9587   0.433   0.949   0.047  0.0726 -0.1210  0.4690
   48MOL    C94 9588   0.570   0.955   7.763 -0.4802  0.2324  0.0405
   48MOL    C95 9589   0.636   0.814   7.764  0.2270 -0.3236 -0.3863
   48MOL    H96 9590   0.387   0.850   0.044  1.1401 -0.6561  1.3860
   48MOL    H97 9591   0.441   0.965   0.154  2.2933  1.8740  0.0367
   48MOL    H98 9592   0.556   0.975   7.657  0.5171  0.6516 -0.0118
   48MOL    H99 9593   0.639   1.036   0.002 -0.9367  0.2460  1.2141
   48MOL   H100 9594   0.643   0.780   0.079 -0.6010 -1.4316 -0.6856
   48MOL   H101 9595   0.741   0.813   7.735  0.1560  0.7713 -0.7067
   48MOL   O102 9596   0.562   0.727   7.690  0.4700  0.0602 -0.2997
   48MOL   C103 9597   0.611   0.596   7.666  0.3084  0.1388 -0.3269
   48MOL   C104 9598   0.521   0.494   7.596 -0.3308 -0.2607 -0.4057
   48MOL   C105 9599   0.596   0.363   7.572  0.1615  0.1602 -0.1413
   48MOL   H106 9600   0.650   0.567   7.763 -3.2616  1.4931  1.6043
   48MOL   H107 9601   0.692   0.601   7.593  1.7736  0.4860  1.3018
   48MOL   H108 9602   0.422   0.486   7.641 -0.2424  0.7353 -0.0167
   48MOL   H109 9603   0.513   0.533   7.494  2.4799  1.2134 -0.1180
   48MOL   H110 9604   0.596   0.313   7.669  1.3423  0.1628 -0.1382
   48MOL   H111 9605   0.698   0.374   7.537 -0.0092  0.5838 -0.5076
   48MOL   O112 9606   0.527   0.271   7.482 -0.0415 -0.1341  0.2195
   48MOL   C113 9607   0.580   0.139   7.492 -0.4363  0.4459  0.2802
   48MOL   C114 9608   0.495   0.052   7.392 -0.0918 -0.9317 -0.1732
   48MOL   C115 9609   0.514   7.694   7.413  0.1967 -0.7502 -0.1648
   48MOL   H116 9610   0.579   0.101   7.595 -1.6695  1.0975  0.5169
   48MOL   H117 9611   0.684   0.153   7.465 -0.7742  3.3829  0.4053
   48MOL   H118 9612   0.389   0.072   7.408 -0.2732 -2.4508  0.6119
   48MOL   H119 9613   0.523   0.060   7.287  2.1633 -2.0234  0.3214
   48MOL   H120 9614   0.461   7.679   7.507 -0.3344 -1.6485 -0.6057
   48MOL   H121 9615   0.619   7.663   7.413  0.2099 -0.7048  0.1085
   48MOL   O122 9616   0.448   7.619   7.307 -0.4931 -0.3179 -0.3885
   48MOL   C123 9617   0.454   7.481   7.322  0.0378  0.1716  0.7384
   48MOL   C124 9618   0.421   7.400   7.199  0.5614 -0.4330  0.3185
   48MOL   C125 9619   0.527   7.433   7.086 -0.0856 -0.1393  0.9043
   48MOL   H126 9620   0.382   7.456   7.400  1.0701 -0.5236  1.4880
   48MOL   H127 9621   0.551   7.443   7.357 -0.0145  0.1196  0.8285
   48MOL   H128 9622   0.427   7.296   7.230 -0.3159  0.0053  2.0790
   48MOL   H129 9623   0.318   7.414   7.166  0.8368 -1.4024 -0.9956
   48MOL   H130 9624   0.541   7.541   7.079  0.7303 -0.3457 -0.8641
   48MOL   H131 9625   0.492   7.395   6.990  0.6761 -0.3076  0.6903
   48MOL   O132 9626   0.650   7.367   7.113 -0.6839 -0.6274 -0.2522
   48MOL   C133 9627   0.755   7.400   7.016 -0.6989  0.9393  1.1523
   48MOL   C134 9628   0.886   7.377   7.090 -0.2890 -0.0599 -0.6204
   48MOL   C135 9629   0.919   7.466   7.207  0.1213  0.4038  0.3181
   48MOL   H136 9630   0.760   7.506   6.989  1.5815  0.8392  1.0943
   48MOL   H137 9631   0.747   7.347   6.921  0.2264 -1.9272  2.6308
   48MOL   H138 9632   0.893   7.273   7.124  3.3078 -0.6461 -2.8645
   48MOL   H139 9633   0.976   7.382   7.028  1.2825  0.0876  1.6192
   48MOL   H140 9634   0.993   7.425   7.277 -1.9535 -0.4816  2.0451
   48MOL   H141 9635   0.834   7.486   7.272 -0.4703 -1.0089 -0.0137
   48MOL   O142 9636   0.984   7.590   7.165  0.1409  0.1199  0.3788
   48MOL   C143 9637   1.002   7.677   7.275 -0.0549  1.1433 -0.6282
   48MOL   C144 9638   0.883   7.760   7.283  0.1139 -0.2250 -0.2947
   48MOL   C145 9639   0.887   0.110   7.212 -0.9847 -0.1271  0.8380
   48MOL   H146 9640   1.086   7.745   7.268 -0.7325  2.1275  0.5938
   48MOL   H147 9641   1.003   7.622   7.369  2.0699 -0.3044 -1.4621
   48MOL   H148 9642   0.797   7.706   7.244 -1.0823  3.0769 -2.4136
   48MOL   H149 9643   0.872   7.781   7.390  0.4755 -0.6541 -0.1718
   48MOL   H150 9644   0.918   0.099   7.108 -0.4996  0.0143  0.9660
   48MOL   H151 9645   0.944   0.183   7.269  3.3974 -1.5237 -1.5101
   48MOL   O152 9646   0.754   0.161   7.207 -0.5934  0.0514 -0.5739
   48MOL   C153 9647   0.731   0.303   7.188  0.3791  0.1530  0.2574
   48MOL   C154 9648   0.579   0.314   7.149  0.5422  0.1195  0.1428
   48MOL   C155 9649   0.520   0.450   7.127  0.1218  1.2903 -0.4166
   48MOL   H156 9650   0.804   0.340   7.116 -0.5156 -1.4705 -1.5573
   48MOL   H157 9651   0.747   0.350   7.285  0.7222  1.9240 -0.6378
   48MOL   H158 9652   0.575   0.257   7.056  1.6902 -0.8844  0.6962
   48MOL   H159 9653   0.520   0.248   7.213  0.1792  0.0776 -0.2290
   48MOL   H160 9654   0.522   0.503   7.222 -0.6256  1.3999 -0.4526
   48MOL   H161 9655   0.412   0.436   7.113  0.5388 -2.0707 -0.6595
   48MOL   O162 9656   0.575   0.519   7.015  0.4990  0.1724 -0.5671
   48MOL   C163 9657   0.502   0.639   6.984 -0.5043  0.1943 -0.3065
   48MOL   C164 9658   0.602   0.737   6.913 -0.2328  0.4135 -0.3590
   48MOL   C165 9659   0.539   0.874   6.888  0.3314 -0.2219  0.6579
   48MOL   H166 9660   0.478   0.688   7.079  0.0940 -1.4865  0.7408
   48MOL   H167 9661   0.411   0.626   6.926 -0.6496 -2.4173  0.4380
   48MOL   H168 9662   0.698   0.758   6.961 -0.7916  1.0656  0.4829
   48MOL   H169 9663   0.610   0.687   6.817 -1.0000  0.6657 -0.5542
   48MOL   H170 9664   0.524   0.919   6.986 -0.4834 -1.2325  1.0007
   48MOL   H171 9665   0.440   0.860   6.846  0.8650  0.7417 -0.9477
   48MOL   O172 9666   0.611   0.964   6.803 -0.1531  0.1161  0.3817
   48MOL   C173 9667   0.531   1.072   6.742 -0.5605  0.4998 -0.1056
   48MOL   C174 9668   0.611   1.144   6.631  0.1714 -0.2346 -0.1616
   48MOL   C175 9669   0.554   1.288   6.616  0.2551 -0.2364  0.7408
   48MOL   H176 9670   0.500   1.150   6.812 -0.7436 -0.9462  1.4600
   48MOL   H177 9671   0.440   1.031   6.699 -0.5961  0.7486 -0.2731
   48MOL   H178 9672   0.719   1.149   6.647  0.3029  4.3182 -1.7003
   48MOL   H179 9673   0.586   1.084   6.543 -0.2302 -0.1275 -0.1191
   48MOL   H180 9674   0.561   1.345   6.708  0.1622 -1.9230  1.8184
   48MOL   H181 9675   0.451   1.267   6.587 -0.2515 -0.1497  2.4511
   48MOL   O182 9676   0.622   1.352   6.504  0.0949  0.3360  0.0679
   48MOL   C183 9677   0.574   1.487   6.468  0.0754 -0.2030 -0.5710
   48MOL   C184 9678   0.646   1.538   6.344  0.1141 -0.3087  0.9542
   48MOL   C185 9679   0.592   1.669   6.284 -0.6504  0.1245 -0.4611
   48MOL   H186 9680   0.586   1.554   6.553 -1.5876 -0.9437  0.2803
   48MOL   H187 9681   0.467   1.480   6.446 -0.1559 -1.6410  0.9456
   48MOL   H188 9682   0.753   1.546   6.367  0.0525  2.2181  0.5187
   48MOL   H189 9683   0.647   1.461   6.266  1.0709  0.9367 -0.2951
   48MOL   H190 9684   0.613   1.743   6.361  1.8268 -0.4882 -0.5177
   48MOL   H191 9685   0.483   1.673   6.271 -0.8932  0.3183  1.5296
   48MOL   O192 9686   0.677   1.693   6.168 -0.1228 -0.0110  0.2668
   48MOL   C193 9687   0.668   1.821   6.105  0.0994 -0.1575 -0.2526
   48MOL   C194 9688   0.704   1.809   5.958 -0.0702 -0.9047 -0.0127
   48MOL   C195 9689   0.593   1.749   5.875  0.4327  0.7714 -0.6521
   48MOL   H196 9690   0.741   1.887   6.152 -0.8754  1.2554 -0.6759
   48MOL   H197 9691   0.572   1.873   6.111  0.5535  0.5405  1.3807
   48MOL   H198 9692   0.716   1.909   5.917 -1.3745 -1.4219 -1.7190
   48MOL   H199 9693   0.798   1.753   5.955 -0.2724 -1.2260 -0.5322
   48MOL   H200 9694   0.577   1.644   5.898 -0.6900  0.8799 -0.9268
   48MOL   H201 9695   0.622   1.767   5.771  1.1007  1.4668 -0.3504
   48MOL   H202 9696   0.494   1.794   5.885 -0.6455 -1.8298  0.9046
   49MOL     O1 9697   6.813   2.089   1.430  0.3723  0.1706 -0.1788
   49MOL     C2 9698   6.676   2.111   1.445  0.4758  0.3996  0.3154
   49MOL     C3 9699   6.636   2.229   1.349  0.1556  0.1761 -0.0300
   49MOL     C4 9700   6.490   2.219   1.306  0.1923 -0.2503 -0.5280
   49MOL     H5 9701   6.654   2.140   1.548  0.3466 -1.1534  0.7502
   49MOL     H6 9702   6.621   2.019   1.421 -1.7406  1.3562  1.5474
   49MOL     H7 9703   6.666   2.330   1.377  0.0495  0.3270 -0.4569
   49MOL     H8 9704   6.685   2.213   1.253  0.7882  0.2232  0.2818
   49MOL     H9 9705   6.424   2.249   1.387 -1.6863  1.0989 -2.4925
   49MOL    H10 9706   6.466   2.119   1.269 -2.3565 -0.4941  1.5787
   49MOL    H11 9707   6.836   2.009   1.474 -2.4052  0.0267  1.1372
   49MOL    O12 9708   6.465   2.315   1.210 -0.0011 -0.6316 -0.1239
   49MOL    C13 9709   6.332   2.332   1.157 -0.3032 -0.6892  0.0259
   49MOL    C14 9710   6.343   2.461   1.067  0.3060 -0.3562  0.3812
   49MOL    C15 9711   6.373   2.584   1.146 -0.1291  0.5994 -0.4651
   49MOL    H16 9712   6.255   2.343   1.233 -1.2426  0.6782 -1.1089
   49MOL    H17 9713   6.295   2.247   1.098  0.6758 -0.1956 -1.3229
   49MOL    H18 9714   6.424   2.445   0.995  1.7427 -2.7629  2.4501
   49MOL    H19 9715   6.249   2.475   1.015  0.1816  1.4886  1.0486
   49MOL    H20 9716   6.470   2.568   1.193 -0.6091 -2.2940 -0.4172
   49MOL    H21 9717   6.307   2.604   1.231  0.7424 -0.6855  0.5201
   49MOL    O22 9718   6.370   2.703   1.063 -0.5691 -0.2584  0.2367
   49MOL    C23 9719   6.395   2.816   1.141 -0.6666 -0.3517  0.1736
   49MOL    C24 9720   6.337   2.927   1.057 -0.0683 -0.6079 -0.2901
   49MOL    C25 9721   6.371   3.064   1.129  0.0996 -0.0262 -0.2758
   49MOL    H26 9722   6.502   2.831   1.132 -0.8462  0.4149 -0.7426
   49MOL    H27 9723   6.358   2.800   1.243 -1.6264  0.9295  0.0345
   49MOL    H28 9724   6.373   2.932   0.954 -2.6263  0.6303 -1.1523
   49MOL    H29 9725   6.229   2.914   1.048 -0.4709  0.9655  1.9625
   49MOL    H30 9726   6.472   3.077   1.167 -0.0961 -1.5397  0.8266
   49MOL    H31 9727   6.309   3.038   1.215 -1.0090 -0.2949 -1.1387
   49MOL    O32 9728   6.318   3.174   1.051  0.1442  0.1314 -0.0317
   49MOL    C33 9729   6.356   3.294   1.111 -0.0215 -0.5276 -0.4794
   49MOL    C34 9730   6.274   3.407   1.036 -0.3272  0.2610  0.0999
   49MOL    C35 9731   6.320   3.547   1.087  0.3775 -0.6224 -0.1889
   49MOL    H36 9732   6.463   3.309   1.098 -0.1516  1.0335  0.1371
   49MOL    H37 9733   6.351   3.285   1.219  0.4564 -3.2987 -0.6488
   49MOL    H38 9734   6.294   3.399   0.929  1.2563 -1.9710  0.5224
   49MOL    H39 9735   6.165   3.401   1.044 -0.4290  1.2860 -0.4420
   49MOL    H40 9736   6.425   3.571   1.069 -0.0613 -0.1782 -2.3018
   49MOL    H41 9737   6.319   3.536   1.196 -3.3369  0.4811 -0.0506
   49MOL    O42 9738   6.251   3.664   1.039 -0.1735 -0.1994  0.3409
   49MOL    C43 9739   6.285   3.780   1.112 -0.1651  0.1317 -0.0253
   49MOL    C44 9740   6.212   3.891   1.031 -0.3961 -0.6121 -0.4838
   49MOL    C45 9741   6.266   3.907   0.886  0.4851 -0.9162  0.4554
   49MOL    H46 9742   6.392   3.804   1.107 -0.5144  1.9365  0.7142
   49MOL    H47 9743   6.252   3.776   1.216  0.2078 -2.7699  0.0069
   49MOL    H48 9744   6.104   3.878   1.028 -0.7700  1.9504  0.4774
   49MOL    H49 9745   6.237   3.987   1.076 -1.8364 -0.7488  0.6367
   49MOL    H50 9746   6.208   3.984   0.835  0.7802 -0.2674  1.0821
   49MOL    H51 9747   6.254   3.815   0.829 -1.2087 -0.9469  0.8383
   49MOL    O52 9748   6.399   3.954   0.887  0.2449  0.3820 -0.0487
   49MOL    C53 9749   6.472   3.969   0.771  0.0469 -0.1718  0.6299
   49MOL    C54 9750   6.482   3.837   0.689  0.6082 -0.2381  1.0802
   49MOL    C55 9751   6.568   3.854   0.555 -0.1738 -0.1393  0.1598
   49MOL    H56 9752   6.577   3.986   0.791 -0.6396  2.4827  2.1492
   49MOL    H57 9753   6.440   4.053   0.710 -0.6301 -0.7946  0.1127
   49MOL    H58 9754   6.525   3.772   0.764  0.4856 -2.0548 -0.3795
   49MOL    H59 9755   6.387   3.786   0.672  1.2164 -0.5114 -1.7365
   49MOL    H60 9756   6.634   3.772   0.528  0.7653  0.4668  0.5934
   49MOL    H61 9757   6.625   3.944   0.579  0.3428 -0.3394 -0.2886
   49MOL    O62 9758   6.471   3.888   0.456 -0.4045  0.3737 -0.5682
   49MOL    C63 9759   6.409   3.779   0.392 -0.0483 -0.6115 -0.8479
   49MOL    C64 9760   6.296   3.835   0.310 -0.5163 -0.0230 -0.5193
   49MOL    C65 9761   6.207   3.742   0.237  0.3996  0.8255 -0.0897
   49MOL    H66 9762   6.379   3.707   0.469  0.5101  1.5092  1.4457
   49MOL    H67 9763   6.489   3.733   0.334  0.1000 -0.1568 -1.0026
   49MOL    H68 9764   6.228   3.877   0.384  0.8501  0.7066  0.3362
   49MOL    H69 9765   6.325   3.911   0.237  0.9734 -0.7347 -0.6936
   49MOL    H70 9766   6.116   3.793   0.208 -0.5475 -1.3888 -1.1424
   49MOL    H71 9767   6.181   3.661   0.305  0.4063  0.9333  0.0414
   49MOL    O72 9768   6.262   3.687   0.119 -0.5494  0.1711 -0.0391
   49MOL    C73 9769   6.166   3.643   0.025  0.3444 -0.2629 -0.4744
   49MOL    C74 9770   6.093   3.750   7.729  0.5379 -0.0970  0.2263
   49MOL    C75 9771   6.040   3.693   7.599 -0.3742  0.0140 -0.8692
   49MOL    H76 9772   6.102   3.574   0.079  1.0614 -2.2425 -2.1195
   49MOL    H77 9773   6.225   3.581   7.747  0.8456  0.2504 -0.5188
   49MOL    H78 9774   6.013   3.792   0.001  0.3977 -0.3279  0.2039
   49MOL    H79 9775   6.171   3.824   7.707  0.4452  0.2202  0.9523
   49MOL    H80 9776   6.123   3.666   7.533 -1.2551  0.8122 -2.3173
   49MOL    H81 9777   5.977   3.764   7.545 -2.0938 -2.7633 -2.6778
   49MOL    O82 9778   5.973   3.569   7.622 -0.1500  0.0683 -0.2485
   49MOL    C83 9779   5.834   3.582   7.637 -0.6675 -0.6587 -0.5328
   49MOL    C84 9780   5.772   3.441   7.666 -0.2035 -0.0849 -0.3264
   49MOL    C85 9781   5.847   3.353   7.762  0.4481  0.3546  0.3939
   49MOL    H86 9782   5.771   3.635   7.565 -0.6642  0.5624  0.3526
   49MOL    H87 9783   5.835   3.647   7.725  1.4315  0.1148 -1.0991
   49MOL    H88 9784   5.665   3.448   7.689 -0.1337  2.7359 -0.6521
   49MOL    H89 9785   5.773   3.378   7.577  0.5791 -4.9259  2.9187
   49MOL    H90 9786   5.855   3.399   0.073 -0.1560  1.2218  0.0485
   49MOL    H91 9787   5.945   3.318   7.730  0.5029  1.3112 -0.5404
   49MOL    O92 9788   5.754   3.242   7.782  0.3011  0.0891  0.8545
   49MOL    C93 9789   5.816   3.155   0.084 -0.7795  0.7548  0.5130
   49MOL    C94 9790   5.727   3.026   0.112  0.3110 -0.2177 -0.6903
   49MOL    C95 9791   5.765   2.967   0.249  0.3423 -0.1827  0.4013
   49MOL    H96 9792   5.824   3.204   0.181  0.2946 -0.5370  1.0924
   49MOL    H97 9793   5.915   3.118   0.056 -0.1803  1.3548  1.8104
   49MOL    H98 9794   5.625   3.063   0.120 -0.0174 -0.7766 -2.0428
   49MOL    H99 9795   5.716   2.949   0.035 -1.5060 -0.2051 -0.4691
   49MOL   H100 9796   5.798   3.034   0.329  1.4757 -1.8515  1.3808
   49MOL   H101 9797   5.847   2.895   0.239  0.4621  0.0782 -0.5194
   49MOL   O102 9798   5.652   2.884   0.295 -0.1832  0.3643  0.1221
   49MOL   C103 9799   5.657   2.859   0.437  0.2725  0.4037  0.1825
   49MOL   C104 9800   5.548   2.750   0.454  0.0482 -0.1215 -0.2537
   49MOL   C105 9801   5.543   2.706   0.601  0.0145 -1.0307 -0.2347
   49MOL   H106 9802   5.633   2.944   0.501 -1.9156  0.5950 -0.8256
   49MOL   H107 9803   5.756   2.820   0.458 -0.1596 -1.3797 -0.8934
   49MOL   H108 9804   5.450   2.784   0.422 -0.2994 -1.3549 -0.5332
   49MOL   H109 9805   5.563   2.663   0.391 -2.1366 -0.3813 -0.4648
   49MOL   H110 9806   5.449   2.655   0.624 -0.9640 -0.2330 -2.3483
   49MOL   H111 9807   5.548   2.796   0.662  1.9589  1.4009 -3.7902
   49MOL   O112 9808   5.655   2.617   0.626 -0.5038 -0.1414 -0.2903
   49MOL   C113 9809   5.674   2.596   0.769  0.1735 -0.0554 -0.2205
   49MOL   C114 9810   5.781   2.487   0.784 -0.3617 -0.9292 -0.5981
   49MOL   C115 9811   5.829   2.466   0.922  0.2229  0.0140  0.2607
   49MOL   H116 9812   5.580   2.574   0.820 -1.0261  1.7454 -1.5813
   49MOL   H117 9813   5.709   2.692   0.808 -1.4422 -0.1962  1.6427
   49MOL   H118 9814   5.753   2.396   0.732  3.4471 -2.3137 -0.3344
   49MOL   H119 9815   5.872   2.530   0.743 -0.0967 -0.1051  0.8135
   49MOL   H120 9816   5.907   2.393   0.897 -0.0425  0.4460 -1.9902
   49MOL   H121 9817   5.754   2.422   0.987 -1.0362  0.6583 -0.7458
   49MOL   O122 9818   5.861   2.589   0.986 -0.0881  0.3403 -0.0980
   49MOL   C123 9819   5.935   2.568   1.107 -0.3359  0.4620 -0.2415
   49MOL   C124 9820   6.010   2.701   1.136 -0.5535  0.1504  0.4543
   49MOL   C125 9821   5.925   2.824   1.167 -1.2324 -0.4203  0.2592
   49MOL   H126 9822   6.014   2.494   1.101 -1.5457 -0.7670 -1.0844
   49MOL   H127 9823   5.863   2.527   1.178  1.0844 -0.9970  0.3723
   49MOL   H128 9824   6.073   2.698   1.225 -1.7036 -2.0122  1.2279
   49MOL   H129 9825   6.075   2.715   1.049 -0.6663 -1.5471  0.0837
   49MOL   H130 9826   5.863   2.805   1.255  1.4629  0.9470  2.5693
   49MOL   H131 9827   5.854   2.851   1.090 -0.4399  1.6944  0.2488
   49MOL   O132 9828   5.996   2.940   1.174 -0.3910 -0.4322 -0.4531
   49MOL   C133 9829   5.922   3.053   1.226  0.0479  0.5014 -0.2522
   49MOL   C134 9830   6.002   3.179   1.206  0.1447 -0.1026 -0.0117
   49MOL   C135 9831   5.988   3.263   1.330  0.4383 -0.3254  0.0084
   49MOL   H136 9832   5.910   3.043   1.334  0.0865  2.0317 -0.0940
   49MOL   H137 9833   5.827   3.066   1.175  0.4289  0.2739 -1.0292
   49MOL   H138 9834   6.104   3.149   1.184  0.7595  1.1221  1.1468
   49MOL   H139 9835   5.963   3.249   1.132 -1.4916 -0.2280  0.7136
   49MOL   H140 9836   6.037   3.212   1.413  0.7041 -1.6913 -0.9824
   49MOL   H141 9837   5.880   3.277   1.339  0.5323  1.0120 -0.8257
   49MOL   O142 9838   6.052   3.380   1.306 -0.0619  0.1829 -0.5807
   49MOL   C143 9839   6.058   3.468   1.421  0.1458 -1.1378 -0.1130
   49MOL   C144 9840   5.989   3.604   1.394  0.2268  0.2681  0.0129
   49MOL   C145 9841   6.034   3.717   1.491 -0.1430  0.3002  0.4484
   49MOL   H146 9842   6.165   3.473   1.444 -0.2842  2.6103  1.4438
   49MOL   H147 9843   6.015   3.424   1.511 -1.2574 -0.6254 -0.5174
   49MOL   H148 9844   6.022   3.643   1.298  3.4228 -2.5539 -0.1457
   49MOL   H149 9845   5.880   3.604   1.397  0.2747 -0.6747  2.1900
   49MOL   H150 9846   6.138   3.733   1.462  0.3179  0.5162  2.1245
   49MOL   H151 9847   6.037   3.679   1.594  1.1273  0.1033  0.3549
   49MOL   O152 9848   5.962   3.838   1.470  0.0096  0.3345 -0.0459
   49MOL   C153 9849   6.016   3.949   1.542  0.2197  0.2018  0.1216
   49MOL   C154 9850   5.907   4.056   1.552 -0.5757  0.1897  0.5076
   49MOL   C155 9851   5.979   4.189   1.571  0.2738 -0.5509 -0.6304
   49MOL   H156 9852   6.095   3.992   1.480 -0.6543  1.3781 -0.1994
   49MOL   H157 9853   6.052   3.917   1.640 -0.6282 -2.0785 -0.2857
   49MOL   H158 9854   5.841   4.056   1.465  0.8105 -1.0292 -0.5727
   49MOL   H159 9855   5.849   4.037   1.642 -1.7440 -0.5783 -0.3834
   49MOL   H160 9856   6.043   4.224   1.489 -0.0692 -1.5268 -1.3246
   49MOL   H161 9857   6.031   4.185   1.666 -0.2706  2.1176 -0.1855
   49MOL   O162 9858   5.877   4.290   1.579 -0.3218  0.6045 -0.1815
   49MOL   C163 9859   5.933   4.415   1.600 -0.2916  0.0959 -0.2278
   49MOL   C164 9860   5.820   4.522   1.617 -0.0057  0.3367  0.2162
   49MOL   C165 9861   5.872   4.667   1.625  0.1439 -0.0502 -1.0172
   49MOL   H166 9862   6.002   4.441   1.521  1.2603 -1.5018  0.5775
   49MOL   H167 9863   5.987   4.426   1.694 -0.4023 -0.8418 -0.0518
   49MOL   H168 9864   5.761   4.502   1.527  0.1457  2.4092 -0.3550
   49MOL   H169 9865   5.750   4.499   1.698  1.4931  1.6934  1.9316
   49MOL   H170 9866   5.948   4.680   1.548 -0.5843  1.3320 -1.5250
   49MOL   H171 9867   5.924   4.673   1.721  1.2967  2.5513 -1.7461
   49MOL   O172 9868   5.772   4.767   1.618 -0.2704  0.2123 -0.7497
   49MOL   C173 9869   5.813   4.903   1.631  0.1059  0.1834 -0.0288
   49MOL   C174 9870   5.765   4.977   1.510 -0.0302 -0.1765 -0.3651
   49MOL   C175 9871   5.611   5.012   1.525 -0.2130  0.0559  0.4495
   49MOL   H176 9872   5.920   4.912   1.649  0.0068  1.1772  0.0595
   49MOL   H177 9873   5.787   4.949   1.726 -0.0186 -0.1533  0.0994
   49MOL   H178 9874   5.810   5.075   1.491  0.8234 -0.7154 -1.1596
   49MOL   H179 9875   5.795   4.918   1.423  0.2544 -1.7083  0.7574
   49MOL   H180 9876   5.551   4.921   1.514 -0.2940 -0.2700  3.2145
   49MOL   H181 9877   5.600   5.076   1.438  1.2758 -1.5063 -0.9317
   49MOL   O182 9878   5.575   5.075   1.651  0.4369 -0.2659 -0.5615
   49MOL   C183 9879   5.593   5.220   1.654 -0.2363  0.1132  0.3758
   49MOL   C184 9880   5.562   5.286   1.788  0.3111 -0.8235 -0.1215
   49MOL   C185 9881   5.577   5.438   1.783  0.3365 -0.3149  0.0076
   49MOL   H186 9882   5.523   5.261   1.581 -0.9344 -2.2474 -0.3314
   49MOL   H187 9883   5.696   5.248   1.633 -1.8076  3.6040 -3.3022
   49MOL   H188 9884   5.461   5.265   1.822  0.4194  0.6308  1.1525
   49MOL   H189 9885   5.639   5.257   1.859 -0.2862 -0.0138  0.8732
   49MOL   H190 9886   5.673   5.466   1.740 -0.6817  0.4697 -1.8372
   49MOL   H191 9887   5.566   5.455   1.890 -3.7683  1.0823 -0.5668
   49MOL   O192 9888   5.475   5.495   1.704  0.0752 -0.1425 -0.3396
   49MOL   C193 9889   5.453   5.633   1.751 -0.2404  0.0992 -0.8635
   49MOL   C194 9890   5.313   5.695   1.710  0.3017 -0.1354  0.1717
   49MOL   C195 9891   5.323   5.837   1.658 -0.3814  0.5066 -0.3484
   49MOL   H196 9892   5.535   5.695   1.716  1.7868 -1.0483  1.6936
   49MOL   H197 9893   5.449   5.638   1.860 -0.5015  0.3244 -0.8819
   49MOL   H198 9894   5.286   5.624   1.631 -1.6151 -0.9563  1.5215
   49MOL   H199 9895   5.241   5.692   1.792 -1.0354  1.8847 -0.8705
   49MOL   H200 9896   5.348   5.900   1.743 -1.5106  0.4328  0.0442
   49MOL   H201 9897   5.228   5.883   1.632 -0.7691  0.4517  0.9324
   49MOL   H202 9898   5.394   5.857   1.578  0.0794  0.5869  0.0793
   50MOL     O1 9899   3.647   2.967   3.039  0.2602 -0.5224 -0.2153
   50MOL     C2 9900   3.614   2.844   2.981 -0.8886  0.1526 -0.3816
   50MOL     C3 9901   3.645   2.855   2.835  0.6422  0.2221  0.4538
   50MOL     C4 9902   3.588   2.736   2.746 -0.5791 -0.2269  0.0397
   50MOL     H5 9903   3.507   2.836   2.999 -0.4748 -5.2913  0.4118
   50MOL     H6 9904   3.666   2.760   3.027  0.1274 -0.4033 -2.4796
   50MOL     H7 9905   3.601   2.947   2.797  0.4896 -0.9091 -2.2836
   50MOL     H8 9906   3.751   2.878   2.821  0.5491 -0.3197 -1.3004
   50MOL     H9 9907   3.625   2.641   2.784 -0.6393 -0.8162 -1.3373
   50MOL    H10 9908   3.630   2.746   2.646  1.7039  3.3346  1.2557
   50MOL    H11 9909   3.727   3.003   3.005  0.8948 -0.5786  1.1864
   50MOL    O12 9910   3.443   2.727   2.747 -0.3259  0.0836  0.1609
   50MOL    C13 9911   3.402   2.621   2.662  0.1885  0.0932  0.7877
   50MOL    C14 9912   3.423   2.477   2.719  0.3598  0.3109 -0.5894
   50MOL    C15 9913   3.311   2.369   2.691 -0.1696 -0.2904 -0.0995
   50MOL    H16 9914   3.446   2.630   2.563 -2.0394  2.2544 -0.0481
   50MOL    H17 9915   3.294   2.638   2.654  0.4526  1.3148 -0.4492
   50MOL    H18 9916   3.521   2.441   2.686  0.0562 -1.8892  0.8075
   50MOL    H19 9917   3.425   2.492   2.827 -0.3076 -0.9640 -0.3937
   50MOL    H20 9918   3.312   2.360   2.582  2.5247 -0.0110 -0.1320
   50MOL    H21 9919   3.216   2.396   2.736 -0.7021  0.7505 -1.7886
   50MOL    O22 9920   3.352   2.241   2.736 -0.2611  0.0843  0.2501
   50MOL    C23 9921   3.344   2.230   2.879  1.2587  0.0770  0.2206
   50MOL    C24 9922   3.413   2.104   2.919  0.0904 -0.2374 -0.2882
   50MOL    C25 9923   3.413   2.087   3.072 -0.1218  0.4471  1.1196
   50MOL    H26 9924   3.238   2.227   2.903  1.0549  1.6610 -0.4517
   50MOL    H27 9925   3.392   2.308   2.939  1.2572 -0.7088  1.2647
   50MOL    H28 9926   3.361   2.024   2.868 -1.1019  0.5235 -0.2849
   50MOL    H29 9927   3.514   2.092   2.879  0.4171 -0.3463  0.5416
   50MOL    H30 9928   3.320   2.116   3.121  0.0270  2.6315  0.1732
   50MOL    H31 9929   3.487   2.157   3.112  1.0168 -0.0321 -0.0885
   50MOL    O32 9930   3.472   1.959   3.105 -0.4556 -0.6702  0.2737
   50MOL    C33 9931   3.383   1.848   3.094 -0.3883 -0.0306  0.4528
   50MOL    C34 9932   3.460   1.715   3.109  0.1439 -0.2006 -0.5519
   50MOL    C35 9933   3.397   1.591   3.042 -0.7636  1.1984 -0.2327
   50MOL    H36 9934   3.326   1.851   3.001  1.3617  1.6783 -0.5995
   50MOL    H37 9935   3.313   1.868   3.174 -2.2661  1.7425 -1.5644
   50MOL    H38 9936   3.559   1.730   3.067  0.4719 -0.8530 -0.0143
   50MOL    H39 9937   3.478   1.697   3.215 -4.0401  1.4461  0.5784
   50MOL    H40 9938   3.393   1.614   2.936 -3.5605 -1.7891 -0.8537
   50MOL    H41 9939   3.296   1.567   3.077  0.5878 -0.0533  2.9535
   50MOL    O42 9940   3.490   1.487   3.051 -0.3876  0.2223 -0.2822
   50MOL    C43 9941   3.444   1.364   3.006 -0.4162  0.5384  0.0937
   50MOL    C44 9942   3.558   1.254   3.024  0.0540  0.0593  1.4780
   50MOL    C45 9943   3.679   1.271   2.932 -0.5256 -0.2876  0.3374
   50MOL    H46 9944   3.408   1.367   2.903  0.2101  1.5801 -0.0976
   50MOL    H47 9945   3.360   1.343   3.073 -0.6194  1.3798  0.1089
   50MOL    H48 9946   3.580   1.247   3.130 -2.9595  0.1995  2.1464
   50MOL    H49 9947   3.514   1.157   3.001 -1.7209  1.5183 -1.4518
   50MOL    H50 9948   3.768   1.212   2.954  0.5902  1.2964  0.1862
   50MOL    H51 9949   3.705   1.376   2.950 -1.0183 -0.3557  1.4937
   50MOL    O52 9950   3.647   1.237   2.799 -0.1172  0.4066 -0.1195
   50MOL    C53 9951   3.750   1.280   2.706 -0.2569 -0.3836  0.4131
   50MOL    C54 9952   3.722   1.264   2.555  0.0525 -0.5155  0.2222
   50MOL    C55 9953   3.838   1.309   2.461  0.3697  0.4918  0.0497
   50MOL    H56 9954   3.845   1.231   2.725  0.0920 -0.8155 -2.2891
   50MOL    H57 9955   3.772   1.382   2.735 -0.8437 -0.6547  1.8505
   50MOL    H58 9956   3.693   1.162   2.528 -1.0096 -0.3184  0.5780
   50MOL    H59 9957   3.632   1.321   2.534  1.0472  1.6760  1.7273
   50MOL    H60 9958   3.884   1.400   2.498  1.2881 -0.0044  0.1425
   50MOL    H61 9959   3.799   1.319   2.360  0.6277  1.9097  0.0795
   50MOL    O62 9960   3.919   1.188   2.458  0.2026 -0.2786  0.1586
   50MOL    C63 9961   4.022   1.201   2.361  0.1446  0.2665  0.8786
   50MOL    C64 9962   4.091   1.070   2.356 -0.2539  0.0381  0.1017
   50MOL    C65 9963   4.195   1.071   2.239 -0.4128 -0.1845 -0.6974
   50MOL    H66 9964   4.080   1.292   2.377 -0.9477  0.8379  1.6727
   50MOL    H67 9965   3.976   1.229   2.265  0.7516  0.0376  0.5212
   50MOL    H68 9966   4.133   1.046   2.453 -1.3765 -0.5008  0.4647
   50MOL    H69 9967   4.015   0.995   2.333 -0.0344  0.3060 -1.5357
   50MOL    H70 9968   4.144   1.085   2.144  0.7110 -2.3517 -1.6656
   50MOL    H71 9969   4.244   0.974   2.235  1.3566  0.6442  0.0577
   50MOL    O72 9970   4.279   1.179   2.261 -0.3219 -0.1840 -0.1527
   50MOL    C73 9971   4.394   1.182   2.178  0.4049 -0.0669 -0.2202
   50MOL    C74 9972   4.506   1.079   2.227  0.7086 -0.5495 -0.7235
   50MOL    C75 9973   4.635   1.082   2.135  0.3994  0.2484  0.8609
   50MOL    H76 9974   4.438   1.282   2.183  1.1302 -0.4960  3.7033
   50MOL    H77 9975   4.359   1.170   2.076 -1.0956  0.4365  0.2285
   50MOL    H78 9976   4.536   1.103   2.329  2.1686 -1.9737 -0.7850
   50MOL    H79 9977   4.467   0.977   2.227 -0.0384 -0.2590 -0.4118
   50MOL    H80 9978   4.672   1.184   2.142 -0.6139  0.6152  0.9967
   50MOL    H81 9979   4.611   1.072   2.029 -0.3076 -0.8140  1.1141
   50MOL    O82 9980   4.732   0.983   2.162 -0.4124 -0.0527 -0.2770
   50MOL    C83 9981   4.862   1.007   2.110 -0.4589 -0.0910 -0.2642
   50MOL    C84 9982   4.875   0.931   1.981 -0.8935 -0.6875  0.3058
   50MOL    C85 9983   4.863   0.777   1.994 -0.2187  0.5464  0.0043
   50MOL    H86 9984   4.935   0.980   2.186 -2.2248 -0.0010  1.5030
   50MOL    H87 9985   4.879   1.113   2.089 -0.5262 -0.4744 -2.3759
   50MOL    H88 9986   4.805   0.976   1.910  0.6538  3.7736  1.4687
   50MOL    H89 9987   4.968   0.964   1.934 -0.0115  0.7913  3.0066
   50MOL    H90 9988   4.948   0.739   2.049  0.3009  0.6143 -0.7388
   50MOL    H91 9989   4.858   0.742   1.891 -1.6476 -0.0549  0.2700
   50MOL    O92 9990   4.741   0.745   2.063 -0.2873  0.2341 -0.4733
   50MOL    C93 9991   4.686   0.617   2.041 -0.3708 -0.4067  0.1340
   50MOL    C94 9992   4.548   0.599   2.112  0.1460 -0.1464  0.2389
   50MOL    C95 9993   4.489   0.452   2.103 -0.3261 -0.4386  0.4410
   50MOL    H96 9994   4.747   0.532   2.071  0.7120  0.0764 -0.6889
   50MOL    H97 9995   4.677   0.604   1.934  2.0800 -1.3516  0.0162
   50MOL    H98 9996   4.559   0.625   2.218 -3.3963 -1.7452  1.0994
   50MOL    H99 9997   4.479   0.671   2.069 -1.0161 -2.6207 -2.2018
   50MOL   H100 9998   4.508   0.399   2.010  1.2308 -1.7156  1.4532
   50MOL   H101 9999   4.383   0.463   2.124 -0.0382 -0.4578  1.9699
   50MOL   O10210000   4.546   0.375   2.207 -0.0743 -0.4056  0.4004
   50MOL   C10310001   4.493   0.242   2.198 -0.2943 -0.8897 -0.2236
   50MOL   C10410002   4.526   0.160   2.319  0.0909  0.7603  0.5970
   50MOL   C10510003   4.452   0.029   2.317  0.1058 -0.2937  0.6038
   50MOL   H10610004   4.533   0.184   2.114 -1.2653  0.2947 -1.5304
   50MOL   H10710005   4.384   0.244   2.196 -0.3298 -1.1161  1.1779
   50MOL   H10810006   4.629   0.123   2.324 -0.9697 -2.1441  2.4194
   50MOL   H10910007   4.503   0.226   2.403  0.3489 -0.1709  1.4155
   50MOL   H11010008   4.472   7.761   2.226  0.0035 -1.8312  1.5063
   50MOL   H11110009   4.344   0.048   2.318 -0.1639 -1.7831  0.6454
   50MOL   O11210010   4.492   7.726   2.424  0.2865 -0.5041 -0.4206
   50MOL   C11310011   4.426   7.599   2.415 -0.5811  0.3755 -0.0474
   50MOL   C11410012   4.471   7.518   2.537 -0.2880 -0.0026 -0.2109
   50MOL   C11510013   4.625   7.492   2.537  0.6529 -1.1548 -0.2190
   50MOL   H11610014   4.428   7.551   2.317 -0.6985 -1.4758  0.8372
   50MOL   H11710015   4.320   7.618   2.428 -0.8239 -1.7426  1.3965
   50MOL   H11810016   4.463   7.572   2.631  0.0631 -0.1657 -0.0861
   50MOL   H11910017   4.401   7.434   2.542 -2.1328  1.5384  0.5231
   50MOL   H12010018   4.677   7.587   2.523 -1.5003  0.0950  0.0303
   50MOL   H12110019   4.651   7.421   2.459  0.2964 -1.0695 -0.4153
   50MOL   O12210020   4.671   7.442   2.668  0.3698  0.6794 -0.3295
   50MOL   C12310021   4.634   7.314   2.704 -0.2078  0.1869  0.3596
   50MOL   C12410022   4.674   7.295   2.857 -0.1773 -0.0131 -0.5934
   50MOL   C12510023   4.597   7.391   2.948 -0.5931  0.5749  0.5605
   50MOL   H12610024   4.687   7.241   2.642  0.3487  0.5530  0.4026
   50MOL   H12710025   4.526   7.313   2.689 -0.0035  0.4883 -1.1813
   50MOL   H12810026   4.660   7.191   2.886 -1.1121 -0.0737 -1.2571
   50MOL   H12910027   4.778   7.322   2.879 -0.1913  0.0723 -0.6359
   50MOL   H13010028   4.494   7.357   2.937 -0.0306 -0.6146 -1.1469
   50MOL   H13110029   4.607   7.498   2.926  1.3867  0.4737  0.8746
   50MOL   O13210030   4.636   7.378   3.087  0.4189  0.6521  0.1495
   50MOL   C13310031   4.731   7.469   3.122 -0.0834  0.0502  0.1271
   50MOL   C13410032   4.808   7.430   3.250 -0.2194  0.0818  0.5700
   50MOL   C13510033   4.882   7.291   3.230 -0.0181  0.0081 -0.4680
   50MOL   H13610034   4.680   7.564   3.136 -0.7460 -0.4216  0.9724
   50MOL   H13710035   4.799   7.490   3.040 -2.3322  1.2560 -1.4559
   50MOL   H13810036   4.882   7.509   3.261 -2.2151  2.0024  0.7759
   50MOL   H13910037   4.746   7.438   3.339 -0.8847  3.4346 -0.1023
   50MOL   H14010038   4.934   7.292   3.134 -4.0011  0.1916 -2.7073
   50MOL   H14110039   4.802   7.218   3.224  0.9142 -1.0257 -0.5587
   50MOL   O14210040   4.949   7.253   3.345 -0.2125  0.4866  0.0832
   50MOL   C14310041   5.006   7.125   3.328 -0.0119 -0.5762 -0.2913
   50MOL   C14410042   5.113   7.113   3.437 -0.4468  0.0447  0.1974
   50MOL   C14510043   5.200   6.992   3.437  0.9766  0.2607 -1.2190
   50MOL   H14610044   5.054   7.115   3.231  0.8731  0.2538  0.0536
   50MOL   H14710045   4.921   7.056   3.334 -1.4113  1.1494 -0.0091
   50MOL   H14810046   5.175   7.202   3.421  0.1236 -0.5631 -1.0474
   50MOL   H14910047   5.061   7.114   3.532 -0.8837  0.9721 -0.0457
   50MOL   H15010048   5.254   6.984   3.532 -1.0096 -3.6467 -0.3017
   50MOL   H15110049   5.280   7.006   3.365  0.6851 -0.2693 -1.6475
   50MOL   O15210050   5.136   6.866   3.420 -0.3716 -0.1335  0.4722
   50MOL   C15310051   5.241   6.766   3.415  0.7588 -0.0654  0.3574
   50MOL   C15410052   5.159   6.634   3.427 -0.7627 -0.0648  0.7119
   50MOL   C15510053   5.238   6.507   3.382  0.0977 -0.7810  0.3420
   50MOL   H15610054   5.312   6.785   3.495  0.0942  0.6139  0.7923
   50MOL   H15710055   5.297   6.771   3.322  0.8534  0.0569  0.4213
   50MOL   H15810056   5.129   6.628   3.532 -0.6272  0.2544  0.7712
   50MOL   H15910057   5.069   6.646   3.367  1.4209 -0.4636 -2.7619
   50MOL   H16010058   5.340   6.503   3.420  0.1052  1.7699  0.6250
   50MOL   H16110059   5.252   6.511   3.274 -0.0761  0.0489  0.3446
   50MOL   O16210060   5.174   6.396   3.441 -0.1010  0.0993 -0.2202
   50MOL   C16310061   5.234   6.267   3.400 -0.2226 -0.9016 -0.0191
   50MOL   C16410062   5.155   6.152   3.454  0.3743  0.2867 -0.0370
   50MOL   C16510063   5.241   6.023   3.478  0.3055 -0.4416  0.3656
   50MOL   H16610064   5.342   6.261   3.415 -0.0057 -1.2677 -1.5735
   50MOL   H16710065   5.232   6.268   3.291  0.9344  1.6623 -0.0506
   50MOL   H16810066   5.119   6.168   3.555 -0.0273 -2.7394  0.3433
   50MOL   H16910067   5.067   6.129   3.393  0.3253  1.4554 -0.4292
   50MOL   H17010068   5.197   5.962   3.557 -1.2581 -1.8434 -1.5443
   50MOL   H17110069   5.335   6.064   3.513  1.2513 -0.7362 -1.7497
   50MOL   O17210070   5.257   5.964   3.354 -0.3135 -0.2690  0.3656
   50MOL   C17310071   5.346   5.854   3.347 -0.1135 -0.1155 -0.4833
   50MOL   C17410072   5.487   5.909   3.318  0.3946  0.7419  0.4521
   50MOL   C17510073   5.507   5.962   3.187  0.2138  0.5910  0.1619
   50MOL   H17610074   5.328   5.795   3.257 -1.0201 -1.4985  0.5829
   50MOL   H17710075   5.349   5.801   3.442  0.9256  0.4015 -0.2299
   50MOL   H17810076   5.529   5.977   3.391  1.8160  1.6021 -1.1443
   50MOL   H17910077   5.542   5.814   3.318 -1.3293 -0.2775  0.3520
   50MOL   H18010078   5.451   6.052   3.162  1.5878  0.8479 -2.1219
   50MOL   H18110079   5.494   5.890   3.106  0.9509  0.7555 -0.1120
   50MOL   O18210080   5.643   6.001   3.182  0.0546  0.2991 -0.4968
   50MOL   C18310081   5.685   6.080   3.066 -0.5410  0.3676  0.2794
   50MOL   C18410082   5.657   6.225   3.099 -0.1946  0.3280  0.7729
   50MOL   C18510083   5.657   6.250   3.252 -0.4445  0.4148  0.6846
   50MOL   H18610084   5.640   6.047   2.973 -2.0978  3.1835 -0.0500
   50MOL   H18710085   5.791   6.058   3.053 -0.6690 -0.2741  0.3086
   50MOL   H18810086   5.726   6.287   3.041  0.8597  0.7884  2.4991
   50MOL   H18910087   5.570   6.259   3.043  0.0852  0.5659  0.4791
   50MOL   H19010088   5.746   6.204   3.294 -1.3211  0.1030  2.2567
   50MOL   H19110089   5.567   6.206   3.295 -0.6410  0.3258  0.1860
   50MOL   O19210090   5.652   6.387   3.276  0.3172  0.2022  0.6137
   50MOL   C19310091   5.658   6.419   3.416  1.0967  0.5619 -0.1407
   50MOL   C19410092   5.673   6.569   3.436  0.3162  0.7509 -0.5053
   50MOL   C19510093   5.803   6.627   3.377 -0.1494 -0.6201 -0.1263
   50MOL   H19610094   5.737   6.362   3.465  0.8782  1.2795  1.0724
   50MOL   H19710095   5.570   6.376   3.464  0.9611  1.2614  0.2486
   50MOL   H19810096   5.588   6.608   3.380 -0.2277 -0.8119 -0.7880
   50MOL   H19910097   5.667   6.592   3.543 -1.0541 -1.5273 -0.0610
   50MOL   H20010098   5.782   6.670   3.279  1.2065 -1.1018 -0.6368
   50MOL   H20110099   5.880   6.551   3.374 -0.4284 -0.8706 -1.0758
   50MOL   H20210100   5.833   6.711   3.439 -1.1856 -0.4770  0.1974
   51MOL     O110101   3.908   0.351   2.771  0.2395 -0.1490 -0.2555
   51MOL     C210102   3.896   0.425   2.892 -0.1094 -0.1586 -0.2883
   51MOL     C310103   3.939   0.333   3.013 -0.1787  0.5148  0.6539
   51MOL     C410104   3.955   0.405   3.150 -0.9426 -0.1025 -0.1303
   51MOL     H510105   3.793   0.452   2.915 -0.2876 -1.1074  0.0553
   51MOL     H610106   3.949   0.517   2.866  0.3055 -0.2569  0.2225
   51MOL     H710107   3.871   0.248   3.020  1.1602 -0.6933 -0.6751
   51MOL     H810108   4.036   0.288   2.991  0.8220  2.2312  1.5065
   51MOL     H910109   3.857   0.438   3.185 -1.5015 -1.1906 -0.6293
   51MOL    H1010110   4.029   0.485   3.147  0.3927 -1.3127 -0.1425
   51MOL    H1110111   4.000   0.350   2.749 -0.2876  1.0518 -2.7341
   51MOL    O1210112   3.995   0.314   3.245 -0.5452 -0.0635  0.1945
   51MOL    C1310113   3.994   0.343   3.385  0.2951  0.6395 -0.5199
   51MOL    C1410114   3.978   0.215   3.460  0.0563  0.1615  0.3388
   51MOL    C1510115   3.980   0.242   3.612  0.3572 -0.4330 -0.1058
   51MOL    H1610116   3.921   0.419   3.413  0.1057 -0.8394  3.3388
   51MOL    H1710117   4.091   0.386   3.411  0.3787  0.9117 -1.2734
   51MOL    H1810118   3.881   0.172   3.435  0.1200 -0.7596  1.6109
   51MOL    H1910119   4.053   0.139   3.437 -0.8528 -0.8152  0.5643
   51MOL    H2010120   3.951   0.154   3.669  4.5570 -2.4875 -0.9337
   51MOL    H2110121   3.914   0.322   3.645  0.1160  0.0526 -1.7266
   51MOL    O2210122   4.114   0.286   3.635 -0.1292  0.0015  0.5464
   51MOL    C2310123   4.146   0.326   3.766 -0.4373 -0.1015 -0.6022
   51MOL    C2410124   4.288   0.373   3.777  0.0859  0.6430 -0.0402
   51MOL    C2510125   4.311   0.431   3.914 -0.1579  0.4734  0.1321
   51MOL    H2610126   4.144   0.238   3.830  0.9215 -0.1277 -0.5876
   51MOL    H2710127   4.080   0.406   3.802  0.2264 -0.0510  0.5267
   51MOL    H2810128   4.360   0.292   3.771 -0.9308 -0.1056 -2.8481
   51MOL    H2910129   4.319   0.446   3.702  0.5293  0.5164  0.0196
   51MOL    H3010130   4.232   0.504   3.935 -0.1440  0.4373  0.3069
   51MOL    H3110131   4.404   0.487   3.921  1.6798 -2.6224  1.5739
   51MOL    O3210132   4.297   0.334   4.022 -0.4436 -0.2084  0.4335
   51MOL    C3310133   4.298   0.399   4.149 -0.8715 -0.8444 -0.4198
   51MOL    C3410134   4.232   0.310   4.254 -0.1828 -0.0496  0.1638
   51MOL    C3510135   4.339   0.207   4.306  0.3302 -0.3794 -0.6467
   51MOL    H3610136   4.237   0.489   4.141 -0.1796 -0.0247  2.7180
   51MOL    H3710137   4.395   0.433   4.183 -0.4680 -2.5071  0.1282
   51MOL    H3810138   4.206   0.369   4.341 -2.8048 -2.3628  1.0301
   51MOL    H3910139   4.154   0.255   4.201  1.3156 -0.9503 -1.1674
   51MOL    H4010140   4.388   0.265   4.385 -2.0090  0.7659  0.0065
   51MOL    H4110141   4.402   0.165   4.227  1.8987  1.0459 -0.1981
   51MOL    O4210142   4.277   0.105   4.383 -0.4195  0.1057 -0.0586
   51MOL    C4310143   4.359   0.023   4.460 -0.3277 -0.1000 -0.0890
   51MOL    C4410144   4.268   7.717   4.538  0.0933 -0.0810 -0.7295
   51MOL    C4510145   4.193   0.003   4.649 -0.4890  0.1128 -0.0807
   51MOL    H4610146   4.417   0.089   4.526  0.0381  1.5220 -1.9854
   51MOL    H4710147   4.422   7.753   4.393 -2.1645 -1.0124 -1.0546
   51MOL    H4810148   4.188   7.671   4.480 -1.5984  2.1776 -0.2750
   51MOL    H4910149   4.333   7.654   4.598  0.2149 -1.2562 -2.0900
   51MOL    H5010150   4.120   0.076   4.614 -1.5898 -1.1058 -0.3656
   51MOL    H5110151   4.262   0.058   4.713  1.0494 -0.0082 -1.5927
   51MOL    O5210152   4.124   7.707   4.739  0.3075 -0.0736  0.3952
   51MOL    C5310153   4.012   7.637   4.683  0.1326  0.1562  0.4462
   51MOL    C5410154   3.934   7.564   4.796  0.0397 -0.0277 -0.3018
   51MOL    C5510155   3.799   7.515   4.756  0.1812  0.0535 -0.3788
   51MOL    H5610156   4.032   7.557   4.612 -0.9932 -0.6217  0.9857
   51MOL    H5710157   3.941   7.700   4.631  1.2684  0.6449 -0.5406
   51MOL    H5810158   3.991   7.481   4.836  0.0310 -0.3757 -1.0088
   51MOL    H5910159   3.930   7.640   4.875  0.6133  0.8415 -1.1012
   51MOL    H6010160   3.826   7.431   4.691  0.4869 -1.1959  1.3405
   51MOL    H6110161   3.736   7.575   4.690  0.7952 -0.3646 -1.3518
   51MOL    O6210162   3.727   7.456   4.871  0.5430 -0.0483 -0.1392
   51MOL    C6310163   3.587   7.457   4.870 -0.0938  0.2676 -0.0739
   51MOL    C6410164   3.538   7.419   5.001 -0.6059  0.1956  0.2961
   51MOL    C6510165   3.576   7.520   5.111  0.0175  0.2443 -0.0931
   51MOL    H6610166   3.548   7.394   4.790  3.2023 -0.6787 -1.0568
   51MOL    H6710167   3.572   7.565   4.866 -2.8943  0.0117  2.5337
   51MOL    H6810168   3.431   7.401   4.997 -0.4835 -0.6972  1.0037
   51MOL    H6910169   3.582   7.323   5.030 -0.1360  0.7955  1.6146
   51MOL    H7010170   3.505   7.603   5.112  0.9328  1.0247 -0.2126
   51MOL    H7110171   3.680   7.549   5.104  0.5082 -1.3361  0.3084
   51MOL    O7210172   3.564   7.458   5.240 -0.0801 -0.0179  0.4066
   51MOL    C7310173   3.432   7.455   5.301  0.8059 -0.1455 -0.1596
   51MOL    C7410174   3.435   7.543   5.433 -0.3695 -0.1019  0.4381
   51MOL    C7510175   3.479   7.688   5.402  0.4907 -0.7614  0.3751
   51MOL    H7610176   3.401   7.352   5.318 -0.2791 -0.1441 -2.0327
   51MOL    H7710177   3.359   7.504   5.236  0.3721  2.3036  2.0843
   51MOL    H7810178   3.338   7.543   5.482 -0.9465  1.8221 -0.6429
   51MOL    H7910179   3.503   7.493   5.501 -1.3218  0.1078  1.5574
   51MOL    H8010180   3.571   7.698   5.345  0.6046  1.4391  0.9175
   51MOL    H8110181   3.480   7.740   5.497 -1.2749  1.0377 -0.5604
   51MOL    O8210182   3.370   7.759   5.341 -0.8665 -0.2718  0.4349
   51MOL    C8310183   3.411   0.109   5.321 -0.3156 -0.2259  0.3678
   51MOL    C8410184   3.462   0.120   5.176 -0.1131 -0.4351 -0.0151
   51MOL    C8510185   3.360   0.094   5.069  0.0155  0.2319 -0.1228
   51MOL    H8610186   3.488   0.144   5.390  0.5711 -1.3894 -0.0264
   51MOL    H8710187   3.324   0.168   5.351  1.6506  2.1128  1.7052
   51MOL    H8810188   3.506   0.220   5.167  1.6665 -1.2826 -1.1179
   51MOL    H8910189   3.552   0.058   5.167  0.0879 -0.0483 -0.7346
   51MOL    H9010190   3.270   0.153   5.089 -0.2925 -0.5151  0.7718
   51MOL    H9110191   3.329   7.778   5.081  2.1434 -0.4510 -0.3899
   51MOL    O9210192   3.418   0.128   4.947 -0.8348 -0.3837 -0.0538
   51MOL    C9310193   3.324   0.098   4.837  0.1415  0.1845  0.4081
   51MOL    C9410194   3.404   0.122   4.709 -0.0111  0.4971  0.5584
   51MOL    C9510195   3.323   0.104   4.579  0.1397 -0.1613 -0.2966
   51MOL    H9610196   3.249   0.176   4.848  2.7286  3.0072 -1.0562
   51MOL    H9710197   3.278   0.001   4.851 -0.4881  0.7802  2.6962
   51MOL    H9810198   3.445   0.223   4.715 -1.9449  1.5393 -2.6924
   51MOL    H9910199   3.485   0.048   4.712  0.9310  1.4308 -1.2402
   51MOL   H10010200   3.242   0.176   4.571  1.0061  0.7263 -1.2799
   51MOL   H10110201   3.272   0.007   4.586  0.9124 -0.4906  1.0424
   51MOL   O10210202   3.407   0.128   4.470  1.0076 -0.0457 -0.6719
   51MOL   C10310203   3.356   0.083   4.347  0.9314  0.3388  1.1812
   51MOL   C10410204   3.480   0.116   4.261  0.7575 -0.8980  0.0096
   51MOL   C10510205   3.599   0.033   4.285 -0.2791 -0.1211  0.0489
   51MOL   H10610206   3.272   0.147   4.323  2.0883  0.8870 -1.6251
   51MOL   H10710207   3.330   7.766   4.349  1.4515  0.2022  0.9249
   51MOL   H10810208   3.447   0.108   4.157  0.9702 -0.8050 -0.0660
   51MOL   H10910209   3.506   0.220   4.278  0.0941 -0.6838 -0.2447
   51MOL   H11010210   3.575   7.716   4.273  1.5601 -0.7597  1.7138
   51MOL   H11110211   3.632   0.052   4.387 -1.6323  1.6500  0.1643
   51MOL   O11210212   3.699   0.071   4.188 -0.0465 -0.4954  0.4235
   51MOL   C11310213   3.828   0.020   4.219 -1.0181 -0.1218 -0.2583
   51MOL   C11410214   3.926   0.031   4.099 -0.1148  0.1672  0.9218
   51MOL   C11510215   4.057   7.738   4.120  0.3494  0.0311  0.2516
   51MOL   H11610216   3.833   7.700   4.235 -0.4033 -0.1518 -0.6326
   51MOL   H11710217   3.863   0.065   4.312 -1.9709 -1.4018  0.7545
   51MOL   H11810218   3.872   7.769   4.018 -1.3558 -1.5992  2.8060
   51MOL   H11910219   3.940   0.135   4.071 -2.8473  0.0184 -1.2401
   51MOL   H12010220   4.109   7.770   4.211  2.8060  2.4022 -1.8779
   51MOL   H12110221   4.122   7.764   4.036  2.6012 -1.7337  1.4038
   51MOL   O12210222   4.042   7.598   4.135  0.1483  0.2189  0.4516
   51MOL   C12310223   4.172   7.527   4.145 -0.9758 -0.1437 -0.7340
   51MOL   C12410224   4.143   7.387   4.194 -0.7947  0.2094 -0.3889
   51MOL   C12510225   4.063   7.298   4.095  0.1351 -0.0305 -0.1110
   51MOL   H12610226   4.232   7.590   4.210  1.2538 -1.8439 -1.0947
   51MOL   H12710227   4.229   7.520   4.053 -1.3554 -2.7201 -0.8023
   51MOL   H12810228   4.231   7.328   4.221 -1.3637 -0.2002  0.6137
   51MOL   H12910229   4.084   7.397   4.285 -0.7266  0.2517 -0.3496
   51MOL   H13010230   4.129   7.291   4.008  1.0674 -1.3372  0.6948
   51MOL   H13110231   3.972   7.352   4.065 -0.9580 -2.4852 -1.3226
   51MOL   O13210232   4.033   7.174   4.152  0.2310 -0.9623  0.0770
   51MOL   C13310233   3.975   7.079   4.060 -0.0923 -0.2512 -0.1495
   51MOL   C13410234   3.989   6.930   4.096 -0.3997 -0.4617 -0.0514
   51MOL   C13510235   3.899   6.844   4.012  0.9461 -0.4581  0.3308
   51MOL   H13610236   4.027   7.087   3.965  0.8309 -0.1418  0.3607
   51MOL   H13710237   3.871   7.102   4.039 -0.5950 -0.7454  1.6281
   51MOL   H13810238   4.096   6.912   4.080 -0.0347  0.6030  1.1324
   51MOL   H13910239   3.974   6.918   4.203  0.8189 -1.4947  0.0255
   51MOL   H14010240   3.912   6.862   3.905  1.1851  0.2041  0.4686
   51MOL   H14110241   3.791   6.858   4.019  1.1781  0.7616  1.5682
   51MOL   O14210242   3.945   6.715   4.037  0.7952 -0.0041  0.1097
   51MOL   C14310243   3.877   6.617   3.961  0.8082 -0.8382  0.3277
   51MOL   C14410244   3.958   6.484   3.977 -0.6182 -0.5938  0.0614
   51MOL   C14510245   3.960   6.435   4.128  0.9187 -0.6997 -0.4273
   51MOL   H14610246   3.860   6.629   3.854  1.3531 -2.0670  0.0991
   51MOL   H14710247   3.774   6.607   3.995  0.4088  0.5131 -0.4195
   51MOL   H14810248   3.923   6.406   3.910 -0.2096 -0.2066 -0.5997
   51MOL   H14910249   4.060   6.505   3.944 -1.8340  0.5684 -3.1388
   51MOL   H15010250   3.863   6.419   4.175 -0.5931  2.3031 -2.3465
   51MOL   H15110251   4.010   6.504   4.196 -0.4155 -0.1100 -0.0296
   51MOL   O15210252   4.026   6.309   4.122 -0.1347 -0.5025  0.2297
   51MOL   C15310253   4.057   6.258   4.254  0.1802  0.8166 -0.3309
   51MOL   C15410254   4.084   6.110   4.251 -0.3431 -0.0079  0.5746
   51MOL   C15510255   4.160   6.067   4.377  0.1944  0.9189 -0.0719
   51MOL   H15610256   3.980   6.280   4.328 -0.2833 -0.6096 -0.3704
   51MOL   H15710257   4.147   6.310   4.287 -0.1458  1.1352  0.0529
   51MOL   H15810258   3.989   6.057   4.247  0.0554 -0.8965  2.3891
   51MOL   H15910259   4.137   6.080   4.160  0.0498 -0.6026  1.0015
   51MOL   H16010260   4.239   6.140   4.391  0.6840  0.6458 -1.3032
   51MOL   H16110261   4.204   5.967   4.365 -0.2488  0.4777  1.8714
   51MOL   O16210262   4.060   6.068   4.481  0.4296 -0.7485 -0.2215
   51MOL   C16310263   4.101   6.018   4.611 -0.1952 -0.2002 -0.6185
   51MOL   C16410264   3.989   6.047   4.713  0.1826 -0.4679 -0.8257
   51MOL   C16510265   4.021   5.986   4.855 -0.9618 -0.0492  0.4156
   51MOL   H16610266   4.199   6.051   4.646 -0.1510 -1.4315  0.4807
   51MOL   H16710267   4.114   5.909   4.606  0.3804 -0.1757  0.1893
   51MOL   H16810268   3.968   6.152   4.735  0.5387 -0.8501  1.5483
   51MOL   H16910269   3.898   6.004   4.670  0.0452 -1.1164  0.0797
   51MOL   H17010270   4.123   6.017   4.874 -0.3882 -1.1800 -0.7427
   51MOL   H17110271   4.024   5.878   4.839 -1.1440 -0.1096  0.7851
   51MOL   O17210272   3.928   6.017   4.955  0.7143  0.2130 -0.4812
   51MOL   C17310273   3.954   5.971   5.086 -0.1265 -0.4919 -0.0970
   51MOL   C17410274   3.858   6.043   5.178 -0.0969  0.1275 -0.8148
   51MOL   C17510275   3.895   6.008   5.327 -0.3381 -0.0844  0.8095
   51MOL   H17610276   4.056   5.960   5.123  0.1740  1.1196 -0.3948
   51MOL   H17710277   3.920   5.869   5.073  0.6747 -1.0601  2.0365
   51MOL   H17810278   3.876   6.150   5.162  0.4012  0.4264  1.4286
   51MOL   H17910279   3.752   6.031   5.157 -0.3608  0.3353  0.3196
   51MOL   H18010280   3.863   6.099   5.377  0.3467  0.3260  0.5197
   51MOL   H18110281   4.004   6.009   5.337 -0.2046  0.9553 -0.4864
   51MOL   O18210282   3.822   5.892   5.373 -0.4054 -0.0526  0.4604
   51MOL   C18310283   3.910   5.779   5.369  0.1064 -0.3630 -0.3180
   51MOL   C18410284   3.843   5.652   5.395  0.4150  0.1746 -1.0093
   51MOL   C18510285   3.731   5.626   5.295  0.1479 -0.0557 -0.2544
   51MOL   H18610286   3.993   5.801   5.436  1.2981 -0.6830 -1.6556
   51MOL   H18710287   3.952   5.779   5.269 -1.0329 -0.4067 -0.8037
   51MOL   H18810288   3.922   5.578   5.383  2.0738  1.6211  0.7437
   51MOL   H18910289   3.805   5.637   5.496  1.3246 -1.4452 -0.8914
   51MOL   H19010290   3.751   5.641   5.189 -0.8247  0.1324 -0.4168
   51MOL   H19110291   3.652   5.698   5.317 -1.2209 -0.3979 -3.7411
   51MOL   O19210292   3.693   5.493   5.327 -0.7087 -0.4799 -0.1895
   51MOL   C19310293   3.569   5.455   5.272  0.8539 -0.4075  0.0194
   51MOL   C19410294   3.578   5.302   5.262 -0.1354 -0.4562 -0.2535
   51MOL   C19510295   3.608   5.228   5.395  0.2621  0.0586 -0.2737
   51MOL   H19610296   3.567   5.500   5.172 -0.1037  0.1615  0.2895
   51MOL   H19710297   3.482   5.502   5.317  1.2629  1.4545 -1.0537
   51MOL   H19810298   3.481   5.282   5.219 -0.1967  1.4797 -1.0573
   51MOL   H19910299   3.645   5.265   5.185 -0.9693 -1.0379 -0.6992
   51MOL   H20010300   3.598   5.120   5.392 -2.2690  0.2512 -0.1271
   51MOL   H20110301   3.531   5.264   5.463 -1.2862 -1.9269 -0.9342
   51MOL   H20210302   3.710   5.261   5.418  1.0579 -2.0687 -0.6850
   52MOL     O110303   5.727   1.578   4.262  0.4239 -0.0421  1.0904
   52MOL     C210304   5.620   1.628   4.195 -0.1724  0.0304  0.0256
   52MOL     C310305   5.637   1.753   4.106  0.3839  0.1954  0.1540
   52MOL     C410306   5.514   1.786   4.040  0.2667 -0.1277  0.1166
   52MOL     H510307   5.535   1.641   4.261  1.2465  0.6959  1.7832
   52MOL     H610308   5.590   1.543   4.134 -0.7183 -1.1356  1.8815
   52MOL     H710309   5.666   1.835   4.172  0.6321 -0.5032  0.9200
   52MOL     H810310   5.711   1.733   4.028  1.1329 -1.3954  1.2402
   52MOL     H910311   5.430   1.814   4.105 -0.9547  0.4717 -1.6742
   52MOL    H1010312   5.481   1.698   3.985 -1.6269  1.1344 -0.8177
   52MOL    H1110313   5.704   1.487   4.268 -0.3597  0.0088 -0.8458
   52MOL    O1210314   5.540   1.902   3.959  0.4764  0.6731 -0.5220
   52MOL    C1310315   5.434   1.943   3.872  0.5051  0.2515  0.0063
   52MOL    C1410316   5.487   2.055   3.775  0.7463 -1.0286 -0.4766
   52MOL    C1510317   5.605   2.018   3.694  0.3891 -0.0066  0.0879
   52MOL    H1610318   5.356   1.987   3.934  0.0082 -1.9556  0.9610
   52MOL    H1710319   5.397   1.862   3.809  0.1504 -0.2995  0.9137
   52MOL    H1810320   5.407   2.094   3.711  2.2807  1.8489 -0.7208
   52MOL    H1910321   5.525   2.142   3.828  0.3337 -0.2356 -1.4506
   52MOL    H2010322   5.585   1.919   3.652 -0.1515 -0.1776  0.7484
   52MOL    H2110323   5.690   2.004   3.761 -2.0151 -1.4173  2.9287
   52MOL    O2210324   5.637   2.122   3.596  0.1356 -0.9494  0.5059
   52MOL    C2310325   5.739   2.089   3.494  0.3556  0.1101 -0.0933
   52MOL    C2410326   5.670   2.051   3.365 -0.1839  0.8382 -0.1078
   52MOL    C2510327   5.737   2.102   3.234  0.4792 -0.3394  0.1784
   52MOL    H2610328   5.800   2.007   3.532 -2.2157 -0.7435  2.4289
   52MOL    H2710329   5.808   2.170   3.472  0.1278  0.2706 -0.2203
   52MOL    H2810330   5.655   1.945   3.344  1.3223  0.6761 -0.4711
   52MOL    H2910331   5.572   2.097   3.357  0.0915  1.9760  2.5794
   52MOL    H3010332   5.841   2.070   3.224  0.8114  0.1822  1.7417
   52MOL    H3110333   5.739   2.211   3.228  0.0033 -0.3004  0.6777
   52MOL    O3210334   5.659   2.056   3.122  0.0135 -0.3092  0.1159
   52MOL    C3310335   5.678   2.125   2.996 -0.1281 -0.2302 -0.5969
   52MOL    C3410336   5.605   2.053   2.886 -0.9497  0.7179 -0.0986
   52MOL    C3510337   5.585   2.150   2.766  0.0311 -0.4496  0.3298
   52MOL    H3610338   5.786   2.122   2.980  0.2115  1.8790  1.0679
   52MOL    H3710339   5.662   2.232   2.994  3.2714  0.3493 -0.6360
   52MOL    H3810340   5.666   1.966   2.859  0.4900  2.0156 -1.1143
   52MOL    H3910341   5.511   2.018   2.928  0.1954 -1.3156  0.8626
   52MOL    H4010342   5.682   2.154   2.716  0.1986  0.6395  0.7258
   52MOL    H4110343   5.566   2.254   2.794 -0.3889  0.0324 -1.6321
   52MOL    O4210344   5.480   2.094   2.685 -0.7986  0.0912  0.5595
   52MOL    C4310345   5.356   2.148   2.702  0.3202  0.5320  0.5895
   52MOL    C4410346   5.248   2.056   2.645  0.6973  0.9342  0.6597
   52MOL    C4510347   5.114   2.132   2.618 -0.2085 -0.1173  0.1922
   52MOL    H4610348   5.349   2.239   2.643 -1.7004 -0.1124 -0.2104
   52MOL    H4710349   5.343   2.185   2.804  1.8730  1.2541  0.5494
   52MOL    H4810350   5.285   2.008   2.555 -0.5730  2.2904 -0.6268
   52MOL    H4910351   5.230   1.971   2.709  4.2655  0.6818  1.4200
   52MOL    H5010352   5.079   2.182   2.708 -1.4736  2.4293 -1.6329
   52MOL    H5110353   5.040   2.069   2.569 -0.9896  1.9197 -1.3396
   52MOL    O5210354   5.137   2.236   2.524  0.5593 -0.0924 -0.3277
   52MOL    C5310355   5.028   2.312   2.480  1.0058  0.0931 -0.0612
   52MOL    C5410356   5.061   2.416   2.386  1.3047 -0.2928 -0.0819
   52MOL    C5510357   4.950   2.488   2.317 -0.2365 -0.1655  0.5378
   52MOL    H5610358   4.971   2.350   2.565  0.8647 -1.7171  0.6924
   52MOL    H5710359   4.957   2.241   2.437 -0.3683  1.5064 -0.1617
   52MOL    H5810360   5.129   2.490   2.429  1.4418  0.5298 -1.6560
   52MOL    H5910361   5.122   2.364   2.311  2.8734  1.1163  0.1719
   52MOL    H6010362   5.001   2.538   2.234 -2.2050 -1.7918 -1.7384
   52MOL    H6110363   4.898   2.562   2.378 -0.5465  0.2736 -0.2463
   52MOL    O6210364   4.845   2.394   2.275  0.3253 -0.2935  0.0046
   52MOL    C6310365   4.789   2.431   2.146 -0.6208  0.0441  0.3448
   52MOL    C6410366   4.687   2.330   2.089  0.2017  0.8888  0.5275
   52MOL    C6510367   4.548   2.340   2.144 -0.0377  0.3385  0.1729
   52MOL    H6610368   4.868   2.426   2.071 -0.5197 -0.2826  0.4717
   52MOL    H6710369   4.746   2.531   2.150 -0.1677  0.2490  0.0730
   52MOL    H6810370   4.681   2.338   1.981 -0.7324 -1.0737  0.4245
   52MOL    H6910371   4.717   2.227   2.107  0.5616  0.6997 -1.1012
   52MOL    H7010372   4.544   2.337   2.253  0.1757 -2.4675  0.1335
   52MOL    H7110373   4.490   2.255   2.109  1.8291 -0.7403 -0.3760
   52MOL    O7210374   4.489   2.453   2.095 -0.2500  0.4675 -0.4410
   52MOL    C7310375   4.361   2.476   2.144  0.7936 -0.8037 -0.3104
   52MOL    C7410376   4.318   2.626   2.135  0.5111 -0.2371 -0.3334
   52MOL    C7510377   4.201   2.660   2.232  0.7369 -0.4549  0.9888
   52MOL    H7610378   4.368   2.463   2.252  2.2775  0.2047 -0.2685
   52MOL    H7710379   4.283   2.410   2.107  0.9301 -0.2559 -1.6040
   52MOL    H7810380   4.403   2.669   2.188  0.0873 -1.7714  1.6223
   52MOL    H7910381   4.306   2.658   2.031 -0.7759 -0.5875 -0.2982
   52MOL    H8010382   4.225   2.639   2.336 -0.6937  3.3761  2.1838
   52MOL    H8110383   4.115   2.595   2.216  0.6427 -0.0547 -0.2310
   52MOL    O8210384   4.190   2.803   2.234  0.4054 -0.3549 -0.4092
   52MOL    C8310385   4.102   2.848   2.129 -0.0189  1.0092 -0.0340
   52MOL    C8410386   4.113   2.996   2.123  0.0549 -0.0791  0.2318
   52MOL    C8510387   4.065   3.054   1.992  0.5221 -0.7801 -0.0646
   52MOL    H8610388   4.005   2.802   2.141  2.0392 -3.7179 -0.3674
   52MOL    H8710389   4.143   2.805   2.037  1.7860  0.9431  0.7660
   52MOL    H8810390   4.048   3.028   2.205 -1.3033 -1.0523 -0.4394
   52MOL    H8910391   4.210   3.038   2.146 -1.2146  3.1601 -0.1031
   52MOL    H9010392   4.056   3.162   2.003 -0.3591 -0.7757 -0.7184
   52MOL    H9110393   3.966   3.015   1.970  0.3470 -1.3414  1.6633
   52MOL    O9210394   4.162   3.026   1.886  0.0528 -0.6338  0.1335
   52MOL    C9310395   4.125   3.083   1.763  0.8105 -0.3711 -0.3487
   52MOL    C9410396   4.223   3.050   1.645 -0.0792 -0.0583 -0.5892
   52MOL    C9510397   4.191   3.121   1.513 -0.0123  0.1196  0.3872
   52MOL    H9610398   4.108   3.190   1.768 -1.3163 -0.6570 -0.8230
   52MOL    H9710399   4.025   3.042   1.746  0.1089  1.0887  0.1845
   52MOL    H9810400   4.328   3.061   1.671 -0.3269 -0.9901  0.8226
   52MOL    H9910401   4.208   2.942   1.640 -2.3265 -0.0704  3.6255
   52MOL   H10010402   4.231   3.222   1.521  1.5595 -0.4807  0.3851
   52MOL   H10110403   4.085   3.136   1.491  0.1200 -0.9163 -1.0626
   52MOL   O10210404   4.259   3.053   1.407  0.3768  0.4209  0.6656
   52MOL   C10310405   4.215   3.080   1.271 -0.0928 -0.7478  0.2723
   52MOL   C10410406   4.310   3.021   1.173 -0.1349 -0.1402 -0.0034
   52MOL   C10510407   4.306   2.867   1.183  0.8655 -0.7518  0.0586
   52MOL   H10610408   4.227   3.188   1.263 -0.0367 -0.5733  2.3673
   52MOL   H10710409   4.110   3.055   1.254 -0.4361  0.2286  0.8888
   52MOL   H10810410   4.286   3.054   1.072  3.8211 -1.2915 -1.4219
   52MOL   H10910411   4.403   3.072   1.199 -0.0953  0.9840 -2.2299
   52MOL   H11010412   4.230   2.819   1.120 -1.1923  1.5345  0.7262
   52MOL   H11110413   4.281   2.845   1.286  1.9966  1.2024  0.7692
   52MOL   O11210414   4.427   2.812   1.134  0.0149 -0.1996  0.1030
   52MOL   C11310415   4.424   2.670   1.137  0.2144 -0.0170 -0.3375
   52MOL   C11410416   4.524   2.635   1.253 -0.3700 -0.1722 -0.1529
   52MOL   C11510417   4.479   2.511   1.329  0.2630  0.2568  1.0318
   52MOL   H11610418   4.474   2.631   1.048 -0.3475  0.3681 -0.8336
   52MOL   H11710419   4.327   2.621   1.149 -0.7863  2.1955  0.8697
   52MOL   H11810420   4.620   2.629   1.201 -0.6566  0.4621 -0.7465
   52MOL   H11910421   4.528   2.727   1.310  0.2901 -2.3629  3.4996
   52MOL   H12010422   4.371   2.515   1.345 -0.1112  1.0440 -1.4763
   52MOL   H12110423   4.544   2.497   1.416  2.9503 -0.6260 -1.0746
   52MOL   O12210424   4.510   2.391   1.252  0.2307 -0.1499 -0.2705
   52MOL   C12310425   4.428   2.273   1.280 -0.2374 -0.4937  0.9204
   52MOL   C12410426   4.474   2.163   1.196  0.4444 -0.0563  0.2722
   52MOL   C12510427   4.419   2.028   1.242  0.2954 -0.1975  0.1041
   52MOL   H12610428   4.325   2.300   1.259  0.8037  2.9384 -0.0120
   52MOL   H12710429   4.415   2.250   1.386 -1.4912  1.2676  1.1841
   52MOL   H12810430   4.448   2.184   1.092 -1.0310  2.7459  1.1653
   52MOL   H12910431   4.583   2.162   1.196  0.4556  0.6390 -0.8560
   52MOL   H13010432   4.428   2.015   1.350 -1.9662  1.6801  0.5686
   52MOL   H13110433   4.463   1.947   1.184 -2.0998 -0.6085 -1.2090
   52MOL   O13210434   4.284   2.030   1.205 -0.6855 -0.1353  0.3872
   52MOL   C13310435   4.221   1.911   1.178 -0.0855  0.4514  0.2025
   52MOL   C13410436   4.103   1.950   1.089 -0.1492  0.6332  0.0461
   52MOL   C13510437   4.000   1.837   1.087  0.0710 -0.1964 -0.3006
   52MOL   H13610438   4.186   1.876   1.275 -2.8739 -0.3625 -1.0344
   52MOL   H13710439   4.298   1.845   1.139 -1.0521 -0.5880  0.0083
   52MOL   H13810440   4.068   2.046   1.127 -0.9262  0.8572 -1.1905
   52MOL   H13910441   4.139   1.973   0.989 -0.9976 -2.3277 -0.9833
   52MOL   H14010442   3.954   1.833   1.186 -1.4144  0.0241 -0.9774
   52MOL   H14110443   4.051   1.749   1.050 -2.5526 -1.2803 -1.4405
   52MOL   O14210444   3.899   1.874   0.995  0.6234 -0.2268 -0.0641
   52MOL   C14310445   3.781   1.796   1.009  0.0810 -0.1831  0.4545
   52MOL   C14410446   3.672   1.862   0.926  0.1910 -0.6891 -0.3001
   52MOL   C14510447   3.530   1.816   0.961  0.3632  0.0120  0.5987
   52MOL   H14610448   3.758   1.795   1.116 -2.6756 -1.7382 -0.1109
   52MOL   H14710449   3.795   1.692   0.979 -3.1005 -0.7105  0.5746
   52MOL   H14810450   3.676   1.967   0.955  1.7217 -1.2660  1.6388
   52MOL   H14910451   3.695   1.839   0.821  1.1605 -0.9731 -0.0288
   52MOL   H15010452   3.524   1.710   0.938  0.8914  0.7514 -3.3219
   52MOL   H15110453   3.465   1.875   0.897  1.3849  0.5306  0.0274
   52MOL   O15210454   3.499   1.843   1.100 -0.0173 -0.8902 -0.1677
   52MOL   C15310455   3.369   1.804   1.122  0.0516 -1.0927 -0.1643
   52MOL   C15410456   3.325   1.844   1.269 -0.1644  0.0669  0.1186
   52MOL   C15510457   3.182   1.802   1.303  0.7449 -0.2893  0.4332
   52MOL   H15610458   3.369   1.695   1.116  1.8471 -1.0243 -2.4461
   52MOL   H15710459   3.306   1.843   1.042 -0.1587  1.9154  1.4207
   52MOL   H15810460   3.402   1.806   1.336  0.3174  0.6111 -0.1293
   52MOL   H15910461   3.331   1.951   1.291  1.3613  0.2935 -1.3340
   52MOL   H16010462   3.151   1.813   1.407 -2.8295 -2.4231 -0.3293
   52MOL   H16110463   3.171   1.694   1.289 -0.0413  0.0996 -2.1615
   52MOL   O16210464   3.094   1.873   1.221 -0.0703  0.2038 -0.2430
   52MOL   C16310465   2.962   1.833   1.234  0.0169 -0.5339 -0.1738
   52MOL   C16410466   2.867   1.879   1.123 -0.1964  0.0799 -0.2063
   52MOL   C16510467   2.846   2.032   1.124  0.3741 -0.2730  0.2572
   52MOL   H16610468   2.911   1.860   1.327 -2.7517 -2.2693 -1.1061
   52MOL   H16710469   2.964   1.725   1.225 -1.8418 -0.5279 -0.8359
   52MOL   H16810470   2.896   1.860   1.019 -1.8481  2.7371 -1.1906
   52MOL   H16910471   2.770   1.831   1.132 -0.7602  1.0957 -0.8058
   52MOL   H17010472   2.936   2.084   1.156  0.4145 -0.3364  0.2476
   52MOL   H17110473   2.770   2.049   1.200  0.2259 -0.9794  0.2758
   52MOL   O17210474   2.798   2.086   1.001 -0.2094 -0.2564  0.2198
   52MOL   C17310475   2.663   2.103   0.985 -0.9825  0.7439 -0.3513
   52MOL   C17410476   2.636   2.192   0.874  0.9032  0.1660 -0.3159
   52MOL   C17510477   2.495   2.219   0.853 -0.0712 -0.1778  0.0714
   52MOL   H17610478   2.604   2.129   1.073 -0.2639 -0.0169  0.3669
   52MOL   H17710479   2.626   2.002   0.963  1.5578  0.0083 -1.4919
   52MOL   H17810480   2.686   2.288   0.874 -0.1730  0.7365  0.0551
   52MOL   H17910481   2.671   2.150   0.780  0.0118  0.3907 -0.7579
   52MOL   H18010482   2.469   2.284   0.937 -0.6705  0.2660 -0.4515
   52MOL   H18110483   2.443   2.124   0.859  1.1455 -1.0428 -2.3956
   52MOL   O18210484   2.456   2.277   0.724 -0.2519  0.2584  0.2023
   52MOL   C18310485   2.320   2.319   0.719  0.6657 -0.6169  0.2055
   52MOL   C18410486   2.220   2.205   0.762  0.3201 -0.5980  0.7429
   52MOL   C18510487   2.072   2.229   0.722 -0.3380  0.1895 -0.6420
   52MOL   H18610488   2.290   2.344   0.618 -0.6683 -1.2176  0.4344
   52MOL   H18710489   2.313   2.408   0.781  1.0482 -0.4153 -0.0421
   52MOL   H18810490   2.254   2.112   0.717 -1.7013 -1.0677  0.1214
   52MOL   H18910491   2.233   2.183   0.868  1.7009 -2.4864  0.2036
   52MOL   H19010492   2.041   2.334   0.729 -2.1162 -0.4689  2.4211
   52MOL   H19110493   2.014   2.174   0.796  0.2800 -0.3039 -0.5266
   52MOL   O19210494   2.033   2.185   0.597 -0.4819 -0.3054  0.5476
   52MOL   C19310495   1.891   2.176   0.583 -0.3978  0.5992 -0.6933
   52MOL   C19410496   1.874   2.166   0.432 -0.2940 -0.1979 -0.7400
   52MOL   C19510497   1.896   2.310   0.377 -0.0517 -0.1508  0.3412
   52MOL   H19610498   1.838   2.265   0.617 -0.4362 -0.2061  1.4195
   52MOL   H19710499   1.870   2.083   0.637 -0.0180  2.2096  2.3193
   52MOL   H19810500   1.932   2.087   0.384  1.1715  0.2483  0.2778
   52MOL   H19910501   1.773   2.129   0.413 -0.9998  1.2100  0.2126
   52MOL   H20010502   1.844   2.388   0.433 -1.2562 -2.0141  1.9146
   52MOL   H20110503   1.859   2.317   0.275 -3.2202  1.7325  1.5664
   52MOL   H20210504   2.004   2.321   0.382 -0.1331  1.0003 -0.3286
   53MOL     O110505   0.796   4.120   0.482  0.1368  0.0242 -0.4052
   53MOL     C210506   0.663   4.067   0.482 -0.7903  0.2687  0.3665
   53MOL     C310507   0.587   4.123   0.598 -0.4574  0.5459 -0.4606
   53MOL     C410508   0.640   4.061   0.724  0.2587 -0.1533  0.3195
   53MOL     H510509   0.662   3.959   0.498 -2.5996  0.1226 -0.6210
   53MOL     H610510   0.618   4.087   0.385  1.2053 -3.4102 -1.4585
   53MOL     H710511   0.589   4.232   0.600 -1.2996  0.5865 -1.6041
   53MOL     H810512   0.482   4.094   0.587 -1.3137  1.6055  3.9052
   53MOL     H910513   0.743   4.092   0.744  0.8707 -1.9645  0.0464
   53MOL    H1010514   0.633   3.952   0.717 -1.6965 -0.0969  1.1163
   53MOL    H1110515   0.856   4.079   0.422 -1.5708 -0.7241 -1.6283
   53MOL    O1210516   0.560   4.111   0.828  0.5005 -0.5821 -0.1685
   53MOL    C1310517   0.583   4.064   0.956 -0.2140  0.0110  0.5188
   53MOL    C1410518   0.483   4.123   1.045 -0.2157  0.3265 -0.4354
   53MOL    C1510519   0.494   4.277   1.085 -0.4785 -0.3073 -0.0125
   53MOL    H1610520   0.675   4.101   1.001 -2.2344  0.7451  4.2001
   53MOL    H1710521   0.574   3.956   0.957  0.6076 -0.0563  1.3849
   53MOL    H1810522   0.381   4.097   1.016  0.0478  1.9843 -3.0045
   53MOL    H1910523   0.499   4.069   1.138 -0.2703 -0.7304 -1.0343
   53MOL    H2010524   0.485   4.338   0.995 -1.5343 -3.6354 -2.2520
   53MOL    H2110525   0.590   4.301   1.132  0.7056 -1.8644 -1.5721
   53MOL    O2210526   0.382   4.311   1.165  0.1583  0.3473  0.5194
   53MOL    C2310527   0.388   4.447   1.215  0.5389  0.5147  0.2187
   53MOL    C2410528   0.246   4.483   1.251  0.2781  0.1297 -0.1400
   53MOL    C2510529   0.169   4.389   1.342  0.3437 -0.4302 -0.4436
   53MOL    H2610530   0.424   4.516   1.139 -1.1606 -0.0131 -1.1073
   53MOL    H2710531   0.457   4.442   1.299 -0.5698  1.6405  1.2202
   53MOL    H2810532   0.237   4.587   1.282 -0.7918  0.7192 -2.2911
   53MOL    H2910533   0.187   4.486   1.159  1.7943 -1.4470 -1.1868
   53MOL    H3010534   0.182   4.282   1.323  0.1946 -0.4690 -0.3240
   53MOL    H3110535   0.063   4.412   1.353  0.3601 -0.9232  0.8470
   53MOL    O3210536   0.219   4.408   1.471 -0.1320 -0.6052 -0.1601
   53MOL    C3310537   0.153   4.345   1.573 -0.3468 -0.5679 -1.3119
   53MOL    C3410538   0.224   4.359   1.710  0.4633  0.4058  0.3520
   53MOL    C3510539   0.207   4.493   1.762  0.2546 -0.9823 -0.3177
   53MOL    H3610540   0.138   4.242   1.541  0.5718 -0.9043 -0.6864
   53MOL    H3710541   0.055   4.387   1.596  1.1366  2.9947 -1.0706
   53MOL    H3810542   0.182   4.288   1.781  1.7951 -2.1766 -1.3556
   53MOL    H3910543   0.331   4.336   1.711 -0.0256 -1.9212  0.1577
   53MOL    H4010544   0.104   4.528   1.760  0.3791 -0.6404 -0.7590
   53MOL    H4110545   0.253   4.552   1.683 -1.8030 -0.7496 -1.3750
   53MOL    O4210546   0.292   4.502   1.881 -0.2967 -0.0381  0.4669
   53MOL    C4310547   0.286   4.632   1.940 -0.0084  0.6169 -0.3362
   53MOL    C4410548   0.404   4.706   1.878  0.4788  0.1215  0.5583
   53MOL    C4510549   0.434   4.850   1.942 -0.4025  0.0510  0.2827
   53MOL    H4610550   0.306   4.625   2.046  3.8260  2.8351 -0.8184
   53MOL    H4710551   0.185   4.669   1.924 -1.2648 -1.4761  2.3984
   53MOL    H4810552   0.487   4.635   1.878 -0.2090 -0.6973 -1.0269
   53MOL    H4910553   0.385   4.701   1.771 -1.0541 -0.1668  0.8367
   53MOL    H5010554   0.474   4.841   2.043  1.3511 -1.2929 -0.5036
   53MOL    H5110555   0.339   4.904   1.947 -0.8270 -0.8211  1.8602
   53MOL    O5210556   0.513   4.934   1.855 -0.5258  0.1170  0.2455
   53MOL    C5310557   0.545   5.054   1.927 -0.5029  0.3034  0.1828
   53MOL    C5410558   0.652   5.141   1.850 -0.2562  0.2585 -0.2567
   53MOL    C5510559   0.686   5.266   1.918 -0.4498 -0.4554 -0.1446
   53MOL    H5610560   0.583   5.030   2.026  3.5042  0.3790 -1.2680
   53MOL    H5710561   0.460   5.122   1.939  0.4291  1.4166  0.4963
   53MOL    H5810562   0.749   5.092   1.838 -1.1647 -1.1091 -2.1798
   53MOL    H5910563   0.626   5.157   1.745  1.4891 -1.2307 -0.9549
   53MOL    H6010564   0.731   5.243   2.015 -1.1124  1.1955  0.5768
   53MOL    H6110565   0.598   5.324   1.946  1.4849  2.6389 -0.2137
   53MOL    O6210566   0.768   5.353   1.848 -0.2761 -0.4488  0.1235
   53MOL    C6310567   0.828   5.450   1.929  0.1004 -0.0018 -0.1563
   53MOL    C6410568   0.874   5.562   1.831 -0.6494 -0.6041 -0.3947
   53MOL    C6510569   0.931   5.686   1.906 -0.4946 -0.0706  0.3516
   53MOL    H6610570   0.920   5.413   1.972  0.8694 -0.5893 -2.2240
   53MOL    H6710571   0.756   5.487   2.002 -0.4082  0.6846 -0.9877
   53MOL    H6810572   0.947   5.519   1.763 -0.1584 -0.7458  0.2216
   53MOL    H6910573   0.791   5.597   1.770 -1.5694 -0.6988  0.7788
   53MOL    H7010574   1.003   5.657   1.983  0.8583  2.6216  0.1743
   53MOL    H7110575   0.851   5.739   1.958 -1.8515 -0.2966 -1.4800
   53MOL    O7210576   1.015   5.765   1.815  0.4216 -0.9608 -0.2838
   53MOL    C7310577   1.062   5.883   1.880  0.0749 -0.5829  0.2679
   53MOL    C7410578   1.148   5.976   1.788 -0.2960 -0.4290 -0.0412
   53MOL    C7510579   1.202   6.088   1.870  0.0859 -0.7943 -0.1816
   53MOL    H7610580   1.112   5.860   1.974 -0.1215 -1.4761  0.1614
   53MOL    H7710581   0.973   5.935   1.916 -2.2036 -3.1948 -1.3630
   53MOL    H7810582   1.232   5.925   1.740  0.1542  0.3765 -0.1175
   53MOL    H7910583   1.077   6.020   1.718 -0.8933  2.8498  2.4837
   53MOL    H8010584   1.257   6.046   1.954 -3.0847 -1.5744  1.6061
   53MOL    H8110585   1.107   6.133   1.901 -0.0980 -1.6725  0.5618
   53MOL    O8210586   1.284   6.175   1.800 -0.4153 -0.9507 -0.6000
   53MOL    C8310587   1.293   6.314   1.831 -0.6294  0.6732  0.1322
   53MOL    C8410588   1.351   6.340   1.972  0.2614 -0.2509 -0.1957
   53MOL    C8510589   1.373   6.494   1.994  0.5392 -0.3195 -0.7622
   53MOL    H8610590   1.199   6.368   1.822 -1.0939  0.0626  1.1944
   53MOL    H8710591   1.370   6.351   1.763  0.7755 -1.7877  0.2916
   53MOL    H8810592   1.295   6.307   2.060 -1.2062 -0.2410 -1.1030
   53MOL    H8910593   1.446   6.288   1.982  0.2471 -0.3544 -0.5646
   53MOL    H9010594   1.273   6.531   1.975  1.5659  1.6773 -2.4872
   53MOL    H9110595   1.440   6.531   1.916 -0.2774 -0.9442 -1.7612
   53MOL    O9210596   1.414   6.519   2.129 -0.0327 -0.7624  0.4181
   53MOL    C9310597   1.430   6.656   2.161 -0.4476 -0.1458  0.6717
   53MOL    C9410598   1.467   6.672   2.313 -0.4235 -1.0888 -0.8409
   53MOL    C9510599   1.372   6.612   2.414 -0.6126  0.5650 -0.3087
   53MOL    H9610600   1.340   6.714   2.141 -1.0128 -1.5100 -0.8484
   53MOL    H9710601   1.503   6.697   2.091 -0.8416  1.5545  1.2366
   53MOL    H9810602   1.557   6.611   2.317 -1.6502 -3.1708 -2.8440
   53MOL    H9910603   1.505   6.773   2.327  0.0032 -1.6518  2.3630
   53MOL   H10010604   1.409   6.626   2.516  0.2402 -0.8390 -0.4046
   53MOL   H10110605   1.363   6.506   2.388  3.0160  0.5788 -1.8572
   53MOL   O10210606   1.256   6.695   2.393  0.6662  1.0172 -0.1495
   53MOL   C10310607   1.156   6.652   2.486 -0.0383 -0.0971  0.1935
   53MOL   C10410608   1.033   6.740   2.456  0.1683 -0.4224 -0.2441
   53MOL   C10510609   0.960   6.711   2.320  0.2378 -0.0954  0.1432
   53MOL   H10610610   1.190   6.687   2.583  0.6658 -0.0868 -0.0549
   53MOL   H10710611   1.138   6.545   2.478 -1.8686  0.1560  0.6318
   53MOL   H10810612   0.971   6.718   2.543  0.1106  0.0034 -0.1786
   53MOL   H10910613   1.074   6.841   2.455  0.2801 -0.4710 -0.5124
   53MOL   H11010614   0.933   6.606   2.316  1.8734 -0.5422  0.4424
   53MOL   H11110615   1.033   6.738   2.244 -0.6037  5.4460  1.0698
   53MOL   O11210616   0.839   6.777   2.298 -0.5176 -0.1100  0.2476
   53MOL   C11310617   0.812   6.776   2.161 -0.5480 -0.0973 -0.0491
   53MOL   C11410618   0.664   6.806   2.151  0.5058 -0.1462 -0.1122
   53MOL   C11510619   0.582   6.691   2.205  0.3642 -0.3665  0.7537
   53MOL   H11610620   0.841   6.686   2.107  3.1927 -0.3560  2.2224
   53MOL   H11710621   0.868   6.854   2.110 -1.9943  1.2837  0.4415
   53MOL   H11810622   0.635   6.892   2.211 -0.5247  0.2682 -1.1751
   53MOL   H11910623   0.635   6.834   2.049  0.0838 -0.0249  0.0410
   53MOL   H12010624   0.477   6.707   2.228  0.1208 -0.7296 -0.0463
   53MOL   H12110625   0.631   6.662   2.298  1.6104  0.1293  0.2574
   53MOL   O12210626   0.590   6.583   2.117  0.1759 -0.5416  0.0987
   53MOL   C12310627   0.493   6.478   2.142 -0.4132 -0.0895  0.0457
   53MOL   C12410628   0.530   6.335   2.089  0.1311 -0.2013  0.3682
   53MOL   C12510629   0.443   6.231   2.164 -0.6192  0.5947  0.5707
   53MOL   H12610630   0.395   6.511   2.108 -0.7549  0.1967  1.2773
   53MOL   H12710631   0.496   6.456   2.249  1.1778 -2.4027 -0.4364
   53MOL   H12810632   0.518   6.326   1.981 -0.8585  3.0744  0.1576
   53MOL   H12910633   0.636   6.323   2.110  0.2214  0.6023  0.3922
   53MOL   H13010634   0.472   6.234   2.269  0.0393  0.1309  0.4038
   53MOL   H13110635   0.463   6.128   2.133  0.3274  0.8883  0.2017
   53MOL   O13210636   0.305   6.255   2.151  0.2814  0.1617  0.5008
   53MOL   C13310637   0.243   6.192   2.042 -0.0753  0.5102  0.8201
   53MOL   C13410638   0.092   6.190   2.067 -0.2624  0.0516 -0.0759
   53MOL   C13510639   0.021   6.321   2.065 -0.4848  0.6959  0.0208
   53MOL   H13610640   0.276   6.089   2.028 -0.2774  0.4735  0.6247
   53MOL   H13710641   0.265   6.242   1.947  0.0541  0.1251  0.6466
   53MOL   H13810642   0.059   6.114   1.996  0.6260 -0.7285  0.3468
   53MOL   H13910643   0.078   6.151   2.167 -0.3854  2.5576  0.9157
   53MOL   H14010644   0.046   6.377   1.975  0.0557  0.2970 -0.0807
   53MOL   H14110645   0.069   6.393   2.132  0.3500 -1.3921  1.7676
   53MOL   O14210646   7.671   6.319   2.088  0.1494  0.2039  0.4220
   53MOL   C14310647   7.615   6.444   2.066  0.6112  0.3424 -0.0778
   53MOL   C14410648   7.466   6.429   2.117  0.2473  0.7065  0.1898
   53MOL   C14510649   7.375   6.545   2.081  0.4400 -0.6954 -0.8149
   53MOL   H14610650   7.619   6.466   1.960 -2.9979  0.0757 -0.3368
   53MOL   H14710651   7.668   6.529   2.109  0.3303  0.7882 -0.6215
   53MOL   H14810652   7.419   6.340   2.075 -0.3040  0.7200  0.7724
   53MOL   H14910653   7.471   6.407   2.223 -0.7385 -0.5990 -0.0164
   53MOL   H15010654   7.357   6.546   1.974  0.7551  1.0265 -0.8757
   53MOL   H15110655   7.419   6.643   2.101  0.7413 -1.5231  2.9875
   53MOL   O15210656   7.247   6.536   2.152 -0.4482 -0.0050 -0.2329
   53MOL   C15310657   7.162   6.647   2.135  1.1687 -0.1768 -0.8079
   53MOL   C15410658   7.027   6.626   2.195  0.1440  0.0069 -0.5085
   53MOL   C15510659   7.038   6.631   2.349 -0.4632  0.3676  0.1115
   53MOL   H15610660   7.151   6.655   2.027  1.0245 -1.5540 -0.9147
   53MOL   H15710661   7.201   6.738   2.180  0.2069  0.7916 -1.9247
   53MOL   H15810662   6.967   6.715   2.174  2.1265  1.9128  1.6157
   53MOL   H15910663   6.978   6.536   2.157 -2.9523  1.3417  0.1590
   53MOL   H16010664   7.084   6.724   2.383 -2.2679  1.5209 -0.5594
   53MOL   H16110665   7.106   6.550   2.379  2.2649  1.0364 -3.7811
   53MOL   O16210666   6.904   6.607   2.406  0.6299 -0.3980 -0.2524
   53MOL   C16310667   6.900   6.613   2.550 -0.6434  0.6061 -0.4166
   53MOL   C16410668   6.760   6.614   2.598  0.1516  0.0565  0.0175
   53MOL   C16510669   6.744   6.640   2.748  0.0195  0.0840  0.2083
   53MOL   H16610670   6.949   6.702   2.590  0.6647 -0.3552  0.1939
   53MOL   H16710671   6.940   6.522   2.595  1.3175  1.7286  0.1815
   53MOL   H16810672   6.720   6.702   2.547 -1.0330 -0.1689  0.5479
   53MOL   H16910673   6.710   6.525   2.559  0.1199  0.4751 -0.9357
   53MOL   H17010674   6.830   6.697   2.783 -0.5416  1.2241 -0.2407
   53MOL   H17110675   6.742   6.541   2.793  2.1672 -0.9355 -1.8226
   53MOL   O17210676   6.622   6.714   2.764 -0.3475  0.4451  0.0541
   53MOL   C17310677   6.576   6.727   2.897 -1.2376 -0.1907 -0.9208
   53MOL   C17410678   6.429   6.759   2.892 -0.1146 -0.2802  0.2640
   53MOL   C17510679   6.370   6.806   3.026 -0.1536  0.5799 -0.4278
   53MOL   H17610680   6.638   6.807   2.937  2.1937 -3.0474 -0.2187
   53MOL   H17710681   6.596   6.635   2.953 -3.0313 -0.2477 -0.3664
   53MOL   H17810682   6.399   6.839   2.823 -0.2663 -1.1061 -0.6401
   53MOL   H17910683   6.397   6.663   2.851 -0.1326  0.7704 -2.3007
   53MOL   H18010684   6.405   6.891   3.085  0.5651  0.5844 -0.8570
   53MOL   H18110685   6.382   6.731   3.105 -0.8557  1.4327  0.5008
   53MOL   O18210686   6.233   6.806   3.006  0.2232  0.5557 -0.1634
   53MOL   C18310687   6.166   6.911   3.068  0.1320  0.2025  0.7885
   53MOL   C18410688   6.015   6.887   3.058  0.3129  0.6979 -0.1781
   53MOL   C18510689   5.921   6.986   3.137 -0.2838 -0.4730  0.0518
   53MOL   H18610690   6.192   7.003   3.016  0.6118 -0.2558  0.2196
   53MOL   H18710691   6.205   6.922   3.170  0.6276 -0.0810  0.6287
   53MOL   H18810692   5.975   6.864   2.959 -1.2821 -0.7747  0.7891
   53MOL   H18910693   6.012   6.793   3.114 -4.1616  1.8752  1.7170
   53MOL   H19010694   5.907   7.080   3.083 -0.8744 -1.0433 -0.8039
   53MOL   H19110695   5.961   7.003   3.237 -1.2109 -0.0957  0.3693
   53MOL   O19210696   5.793   6.931   3.160 -0.1497  0.0769  0.4495
   53MOL   C19310697   5.723   6.997   3.265 -0.1613 -0.6463  0.2996
   53MOL   C19410698   5.572   6.963   3.251 -0.7589 -0.1341 -0.0619
   53MOL   C19510699   5.509   6.991   3.115 -0.5773 -0.5977  0.0898
   53MOL   H19610700   5.741   7.104   3.254  2.5172 -1.2128 -1.2370
   53MOL   H19710701   5.758   6.949   3.357  2.1740  1.9948  0.8274
   53MOL   H19810702   5.563   6.854   3.258  2.7662 -0.4798  0.2468
   53MOL   H19910703   5.511   6.997   3.335  1.5489  1.8379  0.8979
   53MOL   H20010704   5.509   7.095   3.082 -0.5759 -0.6375 -0.0334
   53MOL   H20110705   5.402   6.976   3.127 -1.1514  1.3189 -2.3274
   53MOL   H20210706   5.554   6.936   3.032 -1.4115  1.6163 -1.8734
   54MOL     O110707   6.447   6.536   5.320  0.0879 -0.2544  0.7159
   54MOL     C210708   6.534   6.598   5.405  0.0751  0.2454  0.4919
   54MOL     C310709   6.607   6.488   5.490  0.3362 -0.1853  0.4121
   54MOL     C410710   6.711   6.548   5.585 -0.4964 -0.1298  0.0989
   54MOL     H510711   6.484   6.679   5.458 -2.3804  0.4478 -2.0275
   54MOL     H610712   6.615   6.648   5.352 -0.1702  0.4304  0.2931
   54MOL     H710713   6.537   6.425   5.546 -0.8357 -0.6575 -1.5189
   54MOL     H810714   6.652   6.412   5.427  3.6927  1.3099  0.8738
   54MOL     H910715   6.647   6.604   5.653 -0.3735  1.3034 -0.9312
   54MOL    H1010716   6.781   6.612   5.530  0.0189 -2.0919 -1.5964
   54MOL    H1110717   6.440   6.594   5.246  2.8175  0.2662  0.8050
   54MOL    O1210718   6.778   6.442   5.655  0.4304  0.5105  0.8065
   54MOL    C1310719   6.903   6.487   5.711 -0.6288  1.0240  0.2677
   54MOL    C1410720   6.984   6.384   5.790 -0.0248 -0.4122  0.0265
   54MOL    C1510721   7.135   6.413   5.807  0.4948 -0.3180 -0.4322
   54MOL    H1610722   6.893   6.567   5.785  0.2207  2.2860 -0.9469
   54MOL    H1710723   6.971   6.526   5.635  0.0957 -0.1602  0.3045
   54MOL    H1810724   6.934   6.370   5.886  1.8212 -1.0590  0.9060
   54MOL    H1910725   6.987   6.289   5.736 -0.7807 -2.1629  2.9597
   54MOL    H2010726   7.175   6.327   5.860 -2.7716 -1.8562 -0.3305
   54MOL    H2110727   7.152   6.498   5.872 -0.7720 -2.5618  2.9611
   54MOL    O2210728   7.187   6.429   5.677  0.0564 -0.1402  0.1559
   54MOL    C2310729   7.323   6.454   5.661  0.8764  0.6921 -0.8347
   54MOL    C2410730   7.368   6.409   5.522 -0.1806  0.0104 -0.4226
   54MOL    C2510731   7.346   6.514   5.413 -0.3205  0.0407  0.0598
   54MOL    H2610732   7.374   6.391   5.734 -0.1891 -0.8282 -1.3781
   54MOL    H2710733   7.348   6.559   5.680 -0.1173  1.0742 -1.6296
   54MOL    H2810734   7.475   6.388   5.527 -0.2910 -0.3753  0.3349
   54MOL    H2910735   7.324   6.317   5.485 -1.1213  1.2983 -2.5946
   54MOL    H3010736   7.381   6.613   5.443  1.3167  0.4990 -3.1576
   54MOL    H3110737   7.238   6.531   5.408 -0.4493 -1.2073 -1.6855
   54MOL    O3210738   7.413   6.479   5.297  0.4992  0.2554 -0.7468
   54MOL    C3310739   7.389   6.580   5.202  0.1521 -0.7021 -0.0561
   54MOL    C3410740   7.457   6.534   5.074 -0.4529 -0.0297  0.2815
   54MOL    C3510741   7.609   6.502   5.086  0.7274 -0.0995 -0.4362
   54MOL    H3610742   7.416   6.679   5.239  0.4906 -0.8562  0.1169
   54MOL    H3710743   7.286   6.587   5.166  0.3333  2.3921 -0.1281
   54MOL    H3810744   7.415   6.443   5.030 -1.9767  1.1940 -0.8938
   54MOL    H3910745   7.445   6.613   4.998  0.0710 -0.9341 -0.7611
   54MOL    H4010746   7.618   6.419   5.157  0.7309 -0.8976 -1.3583
   54MOL    H4110747   7.653   6.596   5.119  2.6411 -1.8538  2.2180
   54MOL    O4210748   7.652   6.453   4.953  0.3002 -0.2574  0.5925
   54MOL    C4310749   7.772   6.372   4.952  0.0567  0.7829 -0.1274
   54MOL    C4410750   0.020   6.326   4.810 -0.5423  0.3685 -0.8373
   54MOL    C4510751   0.141   6.233   4.815  0.5245  0.5401  0.1422
   54MOL    H4610752   7.752   6.283   5.012  1.1171 -0.1439 -1.1287
   54MOL    H4710753   0.062   6.437   4.992  0.0336  1.5614 -1.3230
   54MOL    H4810754   7.732   6.251   4.788  0.2282 -0.7436  0.2518
   54MOL    H4910755   0.032   6.402   4.733  0.2828  0.2530 -0.8252
   54MOL    H5010756   0.126   6.146   4.878  1.7304 -0.3692 -0.8117
   54MOL    H5110757   0.219   6.300   4.852  2.9205 -1.8845 -0.3622
   54MOL    O5210758   0.203   6.198   4.688 -0.6901  0.0514 -0.0990
   54MOL    C5310759   0.314   6.117   4.707 -0.4403  0.4706 -0.0706
   54MOL    C5410760   0.376   6.089   4.573  0.7299  0.0943  0.5681
   54MOL    C5510761   0.429   6.220   4.508  0.2393  0.2370  0.3083
   54MOL    H5610762   0.297   6.023   4.759  0.2340  0.3314 -0.0987
   54MOL    H5710763   0.392   6.159   4.769 -1.1121  1.2470  0.2536
   54MOL    H5810764   0.457   6.016   4.576  1.6098  1.1117  2.3757
   54MOL    H5910765   0.299   6.060   4.501 -0.1558  1.3979  0.9788
   54MOL    H6010766   0.487   6.270   4.586  0.4429 -0.5994  0.7074
   54MOL    H6110767   0.339   6.281   4.497  0.0350  0.1495  1.3845
   54MOL    O6210768   0.501   6.194   4.391 -0.0207  0.2398  0.3864
   54MOL    C6310769   0.614   6.278   4.381  0.5878  0.1484  0.6649
   54MOL    C6410770   0.700   6.251   4.260  0.0051  0.2738  0.3209
   54MOL    C6510771   0.830   6.341   4.256 -0.7411  0.0846 -0.9846
   54MOL    H6610772   0.670   6.276   4.474  0.1036  4.4864  1.1315
   54MOL    H6710773   0.569   6.377   4.369 -3.9866 -1.8498  0.1378
   54MOL    H6810774   0.722   6.145   4.266  1.4344  0.6694  3.2357
   54MOL    H6910775   0.645   6.273   4.168  1.8714  0.0731 -0.8671
   54MOL    H7010776   0.803   6.446   4.242 -2.6883 -0.0429  1.4715
   54MOL    H7110777   0.899   6.299   4.183 -1.6915 -0.3254 -1.6514
   54MOL    O7210778   0.902   6.332   4.376 -0.4120 -0.3576  0.4469
   54MOL    C7310779   0.962   6.204   4.410 -0.6097 -0.2042  0.4300
   54MOL    C7410780   1.045   6.222   4.545  0.6887  0.6849 -0.4744
   54MOL    C7510781   1.116   6.101   4.589 -0.0423 -0.5178 -0.3472
   54MOL    H7610782   1.020   6.169   4.326 -1.9852 -0.5915 -0.3835
   54MOL    H7710783   0.883   6.131   4.426 -1.7564  0.3933 -2.2016
   54MOL    H7810784   1.123   6.298   4.540  2.2036 -0.7979  0.0699
   54MOL    H7910785   0.993   6.253   4.636  0.5872 -3.8376  1.1276
   54MOL    H8010786   1.190   6.120   4.666 -2.7793  3.2071  1.5076
   54MOL    H8110787   1.175   6.075   4.501 -1.4620 -0.1970 -1.4201
   54MOL    O8210788   1.029   5.992   4.618  0.1121  0.0424  0.0887
   54MOL    C8310789   1.105   5.873   4.638  0.4777  0.0344  0.0319
   54MOL    C8410790   1.051   5.811   4.761 -0.1464 -0.5010  0.2749
   54MOL    C8510791   1.114   5.880   4.880 -0.0148  0.4485  0.3316
   54MOL    H8610792   1.211   5.890   4.658 -0.0553  1.3184  1.8849
   54MOL    H8710793   1.090   5.814   4.548 -0.0762 -0.6467  0.5737
   54MOL    H8810794   0.943   5.826   4.766 -0.1839 -0.6933 -0.0090
   54MOL    H8910795   1.071   5.704   4.761 -3.5863 -1.2074  1.0673
   54MOL    H9010796   1.131   5.987   4.865 -0.1536  0.3805 -0.2997
   54MOL    H9110797   1.218   5.847   4.882 -0.6097 -1.5465 -0.2362
   54MOL    O9210798   1.051   5.865   5.010 -0.2505  0.0763  0.0280
   54MOL    C9310799   1.050   5.733   5.069  0.0492 -0.2482  0.2786
   54MOL    C9410800   0.956   5.717   5.191  0.6393 -0.1506 -1.0265
   54MOL    C9510801   0.972   5.596   5.280 -0.7851  0.1108  0.0040
   54MOL    H9610802   1.149   5.700   5.100 -0.1598 -0.5551  0.6330
   54MOL    H9710803   1.027   5.662   4.989 -3.0315  0.3030  0.6135
   54MOL    H9810804   0.948   5.805   5.255  2.1342 -2.3262  2.2665
   54MOL    H9910805   0.856   5.723   5.148  1.1427 -0.1647 -2.2411
   54MOL   H10010806   0.963   5.508   5.216  1.4535 -2.1012  2.6107
   54MOL   H10110807   0.895   5.602   5.356 -0.3673  3.2438  0.2509
   54MOL   O10210808   1.094   5.602   5.346 -0.3586  0.2090 -0.4304
   54MOL   C10310809   1.135   5.475   5.391 -0.3317 -0.9114 -0.2624
   54MOL   C10410810   1.271   5.495   5.463 -0.7596 -0.2908  0.1449
   54MOL   C10510811   1.321   5.367   5.518 -0.2316  0.5036  0.5479
   54MOL   H10610812   1.149   5.416   5.300  2.8958 -0.9312  0.2158
   54MOL   H10710813   1.052   5.436   5.450 -2.7483  0.2652 -2.7645
   54MOL   H10810814   1.348   5.550   5.410 -1.3593  2.7542  2.2651
   54MOL   H10910815   1.254   5.552   5.555 -0.5549  1.3884 -0.8375
   54MOL   H11010816   1.255   5.330   5.596  1.7219 -2.8014  0.7307
   54MOL   H11110817   1.411   5.386   5.576  0.7630  1.5756 -1.2765
   54MOL   O11210818   1.341   5.265   5.412  0.0799  0.3802  0.0222
   54MOL   C11310819   1.453   5.179   5.437  0.2118  0.3032  0.1741
   54MOL   C11410820   1.480   5.093   5.312 -0.0610  0.5262  0.2235
   54MOL   C11510821   1.595   4.998   5.335  0.6248 -0.3787 -0.1883
   54MOL   H11610822   1.418   5.112   5.516  0.0015  0.1671 -0.0315
   54MOL   H11710823   1.538   5.234   5.476  0.0891 -0.2914  1.2911
   54MOL   H11810824   1.391   5.038   5.283  0.0677 -0.6096  1.9098
   54MOL   H11910825   1.510   5.154   5.227  2.7611  1.4582  1.8134
   54MOL   H12010826   1.548   4.912   5.383 -1.7147  0.1639 -1.4536
   54MOL   H12110827   1.663   5.049   5.403  0.6614  0.7145 -1.0430
   54MOL   O12210828   1.638   4.956   5.204 -0.6846 -0.4098  0.2199
   54MOL   C12310829   1.763   4.886   5.216  0.2487  0.1297 -0.7127
   54MOL   C12410830   1.832   4.869   5.081  0.4595 -0.3205 -0.0466
   54MOL   C12510831   1.979   4.826   5.100 -0.5245  0.3401  0.4890
   54MOL   H12610832   1.757   4.788   5.264 -0.3704  0.6255  0.2385
   54MOL   H12710833   1.829   4.944   5.281 -0.4104 -1.3949  1.3631
   54MOL   H12810834   1.775   4.791   5.032 -0.0669  0.6069 -0.9282
   54MOL   H12910835   1.818   4.961   5.024  0.2338 -1.3648 -1.6884
   54MOL   H13010836   2.023   4.901   5.165 -0.5620 -0.3837  1.3507
   54MOL   H13110837   2.025   4.835   5.002 -1.5629 -0.2747 -0.0667
   54MOL   O13210838   1.977   4.693   5.147 -0.4425 -0.2491  0.8349
   54MOL   C13310839   2.105   4.633   5.155 -0.6035 -0.7650 -0.0593
   54MOL   C13410840   2.101   4.492   5.217  0.5040  0.4252  0.4967
   54MOL   C13510841   2.229   4.410   5.223 -0.8833  0.3215  0.1165
   54MOL   H13610842   2.170   4.708   5.200  0.3389 -0.3847 -2.0023
   54MOL   H13710843   2.143   4.616   5.054 -1.1880  0.9107 -0.5827
   54MOL   H13810844   2.070   4.504   5.321  0.0121 -2.0014  0.6627
   54MOL   H13910845   2.015   4.439   5.176  0.7461  0.5862 -0.2352
   54MOL   H14010846   2.303   4.474   5.271 -0.1907 -1.3287  1.2629
   54MOL   H14110847   2.256   4.376   5.123  1.0861 -1.5741  1.2768
   54MOL   O14210848   2.198   4.294   5.296 -0.5646  0.2262 -0.1445
   54MOL   C14310849   2.316   4.228   5.348 -0.3477  0.0239  0.5422
   54MOL   C14410850   2.369   4.135   5.230  0.3844  0.3562  0.1334
   54MOL   C14510851   2.490   4.064   5.285 -0.0335 -0.2710 -0.0669
   54MOL   H14610852   2.275   4.160   5.422 -1.1900  0.5978  0.6073
   54MOL   H14710853   2.378   4.302   5.398 -0.6201 -0.0485  0.9875
   54MOL   H14810854   2.297   4.054   5.214 -0.7393  1.3278  0.2223
   54MOL   H14910855   2.395   4.195   5.144 -0.2082  0.5217  0.0662
   54MOL   H15010856   2.463   4.029   5.385 -1.0206 -0.4361 -0.3808
   54MOL   H15110857   2.573   4.135   5.288  0.8606 -1.3493  1.0287
   54MOL   O15210858   2.525   3.959   5.208 -0.3610  0.0635  0.2594
   54MOL   C15310859   2.637   3.892   5.254  0.0612 -0.2452  0.5740
   54MOL   C15410860   2.672   3.773   5.156  0.0396 -0.3929 -0.2606
   54MOL   C15510861   2.625   3.637   5.190 -0.6271 -0.1955  0.1179
   54MOL   H15610862   2.618   3.860   5.357 -2.3675  1.4598  0.6892
   54MOL   H15710863   2.726   3.954   5.256  0.8654 -1.3173 -0.9849
   54MOL   H15810864   2.623   3.792   5.060  1.0697  2.2847 -0.2994
   54MOL   H15910865   2.778   3.773   5.131  0.4765  1.3082  1.4442
   54MOL   H16010866   2.518   3.635   5.211 -0.4588 -1.7151  0.8901
   54MOL   H16110867   2.666   3.606   5.286 -0.0253 -0.3400 -0.1879
   54MOL   O16210868   2.656   3.545   5.082 -0.2368  0.2456 -0.5201
   54MOL   C16310869   2.667   3.405   5.131 -0.3549 -0.3287 -0.2460
   54MOL   C16410870   2.653   3.307   5.009  0.4597 -0.4094 -0.2908
   54MOL   C16510871   2.505   3.303   4.965  0.5229 -0.1216  0.5605
   54MOL   H16610872   2.600   3.382   5.214 -0.4471  0.3827 -0.1212
   54MOL   H16710873   2.768   3.395   5.169 -0.6779  2.5595  1.5809
   54MOL   H16810874   2.721   3.312   4.925  1.3355 -0.8086  0.3867
   54MOL   H16910875   2.686   3.210   5.047 -0.3848 -0.9925 -1.0272
   54MOL   H17010876   2.466   3.400   4.935  0.1364 -0.2462  0.6667
   54MOL   H17110877   2.446   3.261   5.047 -0.1076  0.9914  0.6887
   54MOL   O17210878   2.504   3.220   4.851 -0.1765  0.1039 -0.0913
   54MOL   C17310879   2.374   3.192   4.810 -0.2746  0.3661  0.0966
   54MOL   C17410880   2.383   3.103   4.689 -0.0318 -0.2376  0.7182
   54MOL   C17510881   2.252   3.092   4.598 -0.8664 -0.6486 -0.7501
   54MOL   H17610882   2.314   3.276   4.774  0.7689  1.3180  0.5262
   54MOL   H17710883   2.327   3.145   4.896 -2.5751  0.0775 -1.2738
   54MOL   H17810884   2.457   3.150   4.625  0.9086 -2.6528  0.0056
   54MOL   H17910885   2.428   3.009   4.720 -0.0624 -1.0845 -1.7281
   54MOL   H18010886   2.217   3.190   4.567  0.0940  0.4821  1.6721
   54MOL   H18110887   2.173   3.032   4.644 -2.2260  0.1760 -1.9602
   54MOL   O18210888   2.301   3.028   4.478  0.2049  0.2543 -0.4273
   54MOL   C18310889   2.206   3.027   4.367  0.0707 -0.3724 -0.1280
   54MOL   C18410890   2.262   2.946   4.253  0.2574  0.1961  0.1882
   54MOL   C18510891   2.171   2.946   4.132  0.1481 -0.2989  0.5320
   54MOL   H18610892   2.190   3.132   4.344 -1.5095 -0.0632  2.2207
   54MOL   H18710893   2.109   2.993   4.404  0.3879 -0.9525  0.1904
   54MOL   H18810894   2.368   2.969   4.240 -0.0302  0.7633 -1.2827
   54MOL   H18910895   2.264   2.846   4.295  0.1423  0.6629  1.3201
   54MOL   H19010896   2.147   3.048   4.101 -1.3377 -0.5952  0.6512
   54MOL   H19110897   2.073   2.902   4.149 -0.3090  0.4123 -0.2241
   54MOL   O19210898   2.230   2.862   4.037  0.5200 -0.0030  0.0330
   54MOL   C19310899   2.165   2.857   3.914 -0.0060 -0.3908  0.0215
   54MOL   C19410900   2.226   2.747   3.831 -0.5764 -0.8938  0.5075
   54MOL   C19510901   2.186   2.733   3.678 -0.3684  0.9065 -0.0346
   54MOL   H19610902   2.166   2.954   3.864  1.6837 -0.9567 -1.0490
   54MOL   H19710903   2.061   2.829   3.931 -1.1285  0.1054 -5.1069
   54MOL   H19810904   2.333   2.770   3.828 -0.6504 -0.6842 -1.1330
   54MOL   H19910905   2.213   2.649   3.878  0.5155 -1.4659 -0.3425
   54MOL   H20010906   2.191   2.829   3.626  2.5309 -0.3777 -2.3245
   54MOL   H20110907   2.085   2.696   3.664 -0.3814  1.2046 -0.7379
   54MOL   H20210908   2.250   2.674   3.613 -0.5641  0.2128  0.3931
   55MOL     O110909   3.621   6.267   7.367 -0.7868 -0.3465  0.0952
   55MOL     C210910   3.587   6.179   7.264  0.6216 -0.4141 -0.8200
   55MOL     C310911   3.441   6.161   7.240 -0.6414  0.2099 -0.2897
   55MOL     C410912   3.407   6.067   7.128  0.0307 -0.3452  0.6078
   55MOL     H510913   3.633   6.084   7.293 -0.8884 -0.5136  1.3888
   55MOL     H610914   3.639   6.218   7.177  1.4132  0.5882  0.0746
   55MOL     H710915   3.383   6.140   7.330 -0.5751  0.4838 -0.1804
   55MOL     H810916   3.409   6.260   7.206 -0.4905  0.0542 -0.8995
   55MOL     H910917   3.448   5.967   7.143 -2.5736 -1.4025  0.8813
   55MOL    H1010918   3.440   6.111   7.035  0.0874 -2.0459 -0.1966
   55MOL    H1110919   3.602   6.355   7.339 -2.3354 -1.3431 -2.1212
   55MOL    O1210920   3.264   6.062   7.131  0.0382 -0.2160 -0.4601
   55MOL    C1310921   3.200   6.015   7.009 -1.0149 -0.5767  0.1249
   55MOL    C1410922   3.047   6.007   7.027  0.0663 -0.8364  0.4222
   55MOL    C1510923   2.970   5.962   6.912 -0.0839 -0.8374  0.6191
   55MOL    H1610924   3.245   5.922   6.973 -2.4660 -0.8571 -1.0040
   55MOL    H1710925   3.232   6.083   6.930  0.4917 -0.2837  0.9703
   55MOL    H1810926   3.027   5.935   7.106 -4.1594  0.8850  1.0705
   55MOL    H1910927   3.011   6.105   7.059  0.2621 -0.7395  0.3477
   55MOL    H2010928   2.995   5.865   6.871 -0.6866 -0.2035 -1.3143
   55MOL    H2110929   2.976   6.040   6.836  0.6454  2.0188  3.5025
   55MOL    O2210930   2.839   5.945   6.961 -0.0994  0.5668 -0.0362
   55MOL    C2310931   2.759   5.872   6.872  0.1076  0.2966 -0.1744
   55MOL    C2410932   2.623   5.836   6.927  0.1167  0.5385 -0.6683
   55MOL    C2510933   2.537   5.777   6.816  0.2152  0.3088 -0.7104
   55MOL    H2610934   2.810   5.784   6.833  1.9851  0.2500  2.3057
   55MOL    H2710935   2.735   5.936   6.787 -2.1071 -0.1749  0.0771
   55MOL    H2810936   2.616   5.766   7.011 -0.8118 -0.4775 -1.5778
   55MOL    H2910937   2.582   5.930   6.962 -1.1164  0.5887 -2.2019
   55MOL    H3010938   2.576   5.677   6.801 -1.4678 -0.6310  0.9471
   55MOL    H3110939   2.547   5.837   6.726 -1.6845 -0.1483 -1.2524
   55MOL    O3210940   2.407   5.772   6.863 -0.6053 -0.2902 -0.0840
   55MOL    C3310941   2.318   5.694   6.784  0.4934  0.5248  0.1468
   55MOL    C3410942   2.230   5.601   6.877  0.2483 -0.8235 -0.0852
   55MOL    C3510943   2.311   5.483   6.934 -0.1649 -0.2334  0.1117
   55MOL    H3610944   2.374   5.628   6.719  0.9294 -0.7041  1.7396
   55MOL    H3710945   2.256   5.750   6.715 -0.8773 -2.5151 -1.1737
   55MOL    H3810946   2.183   5.663   6.953  0.1723 -2.8387  1.5697
   55MOL    H3910947   2.147   5.561   6.819  0.3577  1.9221 -2.2369
   55MOL    H4010948   2.400   5.521   6.984  0.1364  0.1090 -0.6701
   55MOL    H4110949   2.345   5.417   6.854  3.0446  2.3088 -0.7371
   55MOL    O4210950   2.232   5.407   7.023 -0.1666  0.1819 -0.1925
   55MOL    C4310951   2.290   5.350   7.139 -0.6961 -0.0975  0.2773
   55MOL    C4410952   2.183   5.270   7.212  0.8610 -0.6627  0.0492
   55MOL    C4510953   2.229   5.224   7.343  0.2477 -0.2223 -0.0829
   55MOL    H4610954   2.303   5.433   7.208 -0.8924 -1.1109  1.5520
   55MOL    H4710955   2.382   5.299   7.110 -0.9278  0.3878 -1.3992
   55MOL    H4810956   2.099   5.338   7.218 -0.4797 -2.2263 -0.5303
   55MOL    H4910957   2.152   5.185   7.152 -1.3617 -0.7285  1.2604
   55MOL    H5010958   2.250   5.308   7.410  1.6055 -1.6356  1.3131
   55MOL    H5110959   2.327   5.178   7.331  0.8969  1.3266 -0.9019
   55MOL    O5210960   2.134   5.136   7.407  0.2616 -0.0060  0.2187
   55MOL    C5310961   2.172   5.108   7.546 -0.0376  0.0085  0.0129
   55MOL    C5410962   2.277   5.000   7.550 -0.0640 -1.2261  0.5736
   55MOL    C5510963   2.281   4.932   7.685 -0.6101  0.1595 -0.3547
   55MOL    H5610964   2.086   5.061   7.594 -0.9542  2.1391  0.5347
   55MOL    H5710965   2.199   5.196   7.605  1.2157 -1.3886  1.5350
   55MOL    H5810966   2.258   4.920   7.478  2.3249 -1.2870 -0.0426
   55MOL    H5910967   2.377   5.027   7.516 -0.3836 -2.1132 -1.1026
   55MOL    H6010968   2.178   4.907   7.710  0.1354 -1.5630  1.1611
   55MOL    H6110969   2.320   4.999   7.762  0.9163 -0.7163 -0.3313
   55MOL    O6210970   2.373   4.826   7.678 -0.2651  0.2361  0.3979
   55MOL    C6310971   2.387   4.749   0.013  0.0869  0.4800  0.5258
   55MOL    C6410972   2.507   4.655   0.013 -0.1433  0.6950 -0.2498
   55MOL    C6510973   2.641   4.721   0.020  0.0694 -0.3188 -0.6920
   55MOL    H6610974   2.294   4.696   0.032 -1.0478  2.1688 -0.2288
   55MOL    H6710975   2.393   4.818   0.097  0.3847 -1.7422  2.3846
   55MOL    H6810976   2.499   4.590   0.099 -0.5795 -0.2225 -0.9728
   55MOL    H6910977   2.502   4.585   7.717 -2.6192  1.5573 -0.8821
   55MOL    H7010978   2.657   4.776   0.112  3.6316 -0.5063 -1.1390
   55MOL    H7110979   2.646   4.799   7.732  1.8660  0.8816  0.6303
   55MOL    O7210980   2.742   4.619   7.784  0.5687 -0.3475  0.4919
   55MOL    C7310981   2.804   4.551   0.100  0.4357 -0.3461  0.0537
   55MOL    C7410982   2.839   4.412   0.043 -0.1676  0.9260 -0.6514
   55MOL    C7510983   2.938   4.336   0.135  0.3447  0.1028  0.5541
   55MOL    H7610984   2.730   4.541   0.180 -1.7585  3.0931 -1.3777
   55MOL    H7710985   2.897   4.597   0.133  0.2069  2.6105 -3.0618
   55MOL    H7810986   2.752   4.346   0.036  1.0537 -1.1951  2.9605
   55MOL    H7910987   2.878   4.417   7.729  3.2232 -0.7808  0.5084
   55MOL    H8010988   2.909   4.341   0.240  1.0983  0.6540  0.7395
   55MOL    H8110989   3.040   4.364   0.107  0.3912 -0.2167  0.4080
   55MOL    O8210990   2.943   4.202   0.097  0.1017  0.5208 -0.0038
   55MOL    C8310991   3.013   4.125   0.187  0.0286 -0.0989 -0.0528
   55MOL    C8410992   3.004   3.979   0.130 -0.2925 -0.6420 -0.1453
   55MOL    C8510993   3.070   3.962   7.785 -0.7836 -0.3646  0.0355
   55MOL    H8610994   2.966   4.128   0.285 -1.2818 -3.7071 -0.5043
   55MOL    H8710995   3.113   4.165   0.204  0.3744 -0.6716 -0.7305
   55MOL    H8810996   3.039   3.923   0.216 -2.3196  1.0176  1.8317
   55MOL    H8910997   2.898   3.952   0.130 -0.6484  0.7048  0.9605
   55MOL    H9010998   3.171   4.003   0.001 -1.2545  0.6936  1.1518
   55MOL    H9110999   3.000   4.001   7.711 -0.3292  0.8171  0.2285
   55MOL    O9211000   3.084   3.826   7.769 -0.4773 -0.0255  0.3074
   55MOL    C9311001   3.146   3.798   7.645  0.7454 -0.2462 -0.1556
   55MOL    C9411002   3.141   3.644   7.619  0.5033  0.1868 -0.2030
   55MOL    C9511003   3.203   3.562   7.722  0.2122 -0.3320 -0.6390
   55MOL    H9611004   3.248   3.835   7.643 -0.1594  2.3380 -1.0671
   55MOL    H9711005   3.098   3.844   7.558 -1.0435 -0.3482  0.7633
   55MOL    H9811006   3.035   3.618   7.613  0.8609 -0.7629 -2.6689
   55MOL    H9911007   3.179   3.623   7.519  1.8209  0.0809  0.3113
   55MOL   H10011008   3.168   3.586   0.034  0.1067 -0.2020 -0.7062
   55MOL   H10111009   3.309   3.590   7.719  0.2019 -0.3604 -1.3051
   55MOL   O10211010   3.173   3.425   7.715  0.1249 -0.0107 -0.1681
   55MOL   C10311011   3.227   3.367   7.596 -0.2484 -0.1387 -0.0495
   55MOL   C10411012   3.180   3.218   7.584 -0.6880  1.0986 -0.4462
   55MOL   C10511013   3.029   3.209   7.573  0.7984  0.3898  0.5539
   55MOL   H10611014   3.333   3.387   7.580 -0.2207  1.1168  1.5886
   55MOL   H10711015   3.182   3.403   7.503  0.4274 -0.3719 -0.4784
   55MOL   H10811016   3.229   3.175   7.497 -0.8956  1.7942 -0.9169
   55MOL   H10911017   3.202   3.151   7.667  0.0541  0.3348 -1.2664
   55MOL   H11011018   2.995   3.266   7.487 -0.4367  0.3620  1.0211
   55MOL   H11111019   2.976   3.249   7.659  0.1203 -1.8782  1.2310
   55MOL   O11211020   2.985   3.080   7.549 -0.1209 -0.2401  0.3440
   55MOL   C11311021   2.846   3.054   7.552  0.0093  0.4196 -0.1632
   55MOL   C11411022   2.771   3.131   7.440 -1.0325  0.2366  0.5545
   55MOL   C11511023   2.802   3.076   7.307 -0.1070 -0.2485  0.0925
   55MOL   H11611024   2.799   3.072   7.649  0.9814  1.0790  0.1888
   55MOL   H11711025   2.839   2.950   7.522 -1.6548  0.9228 -1.6334
   55MOL   H11811026   2.666   3.108   7.457 -0.3189 -2.8589  1.0980
   55MOL   H11911027   2.797   3.236   7.448 -1.3065  0.3467  0.0375
   55MOL   H12011028   2.779   2.971   7.293  0.6486 -0.2888 -0.8535
   55MOL   H12111029   2.900   3.110   7.271 -1.0523  2.2084 -0.2795
   55MOL   O12211030   2.699   3.137   7.237  0.2771  0.1566 -0.0437
   55MOL   C12311031   2.711   3.116   7.097  0.2454  0.4813  0.0452
   55MOL   C12411032   2.610   3.206   7.035 -0.5658  0.2260  0.4520
   55MOL   C12511033   2.620   3.230   6.883 -0.0748  0.1967  0.2042
   55MOL   H12611034   2.706   3.008   7.084  1.5704  0.4352 -0.1977
   55MOL   H12711035   2.806   3.152   7.057  0.3976  1.9188  1.6543
   55MOL   H12811036   2.508   3.178   7.063 -1.4941  0.2828 -2.6872
   55MOL   H12911037   2.627   3.305   7.078 -0.2506 -0.7639  2.6631
   55MOL   H13011038   2.637   3.134   6.835  0.2633  0.3460  0.0202
   55MOL   H13111039   2.701   3.300   6.861  0.7582 -0.4626  1.1533
   55MOL   O13211040   2.502   3.285   6.820 -0.3151 -0.1661  0.1924
   55MOL   C13311041   2.532   3.346   6.697 -0.3966  0.0763 -0.2577
   55MOL   C13411042   2.412   3.329   6.599 -0.0289  0.2566 -0.3541
   55MOL   C13511043   2.407   3.192   6.540 -0.1317  0.1144  0.4904
   55MOL   H13611044   2.620   3.298   6.655  1.4593  0.8654  2.5661
   55MOL   H13711045   2.560   3.450   6.712 -1.5994 -0.0618  3.2896
   55MOL   H13811046   2.313   3.345   6.642  0.8231 -2.4571  2.8666
   55MOL   H13911047   2.419   3.395   6.513 -0.4620 -1.0880 -1.4434
   55MOL   H14011048   2.396   3.114   6.615 -1.0229 -0.6445 -0.4200
   55MOL   H14111049   2.506   3.170   6.499 -0.3760 -1.1338  0.5633
   55MOL   O14211050   2.296   3.170   6.453  0.3142  0.7481  0.0331
   55MOL   C14311051   2.298   3.049   6.387  0.0945 -0.3578 -0.0915
   55MOL   C14411052   2.245   3.082   6.248 -0.2828 -0.0681 -0.5438
   55MOL   C14511053   2.241   2.951   6.169  0.1273  0.2081  0.2215
   55MOL   H14611054   2.235   2.986   6.450 -0.9651 -0.0113 -0.7933
   55MOL   H14711055   2.400   3.009   6.388 -0.3968 -1.6258  0.3910
   55MOL   H14811056   2.141   3.112   6.255  0.4602  2.8197 -1.3022
   55MOL   H14911057   2.292   3.168   6.201  2.8761 -0.8425  0.9952
   55MOL   H15011058   2.190   2.970   6.074 -2.5250 -0.6730  1.4203
   55MOL   H15111059   2.176   2.878   6.218  3.5614 -1.2254  2.8640
   55MOL   O15211060   2.371   2.897   6.158  0.1016 -0.1759  0.3615
   55MOL   C15311061   2.381   2.771   6.098 -0.0153 -0.0252 -0.2991
   55MOL   C15411062   2.355   2.659   6.208 -0.4251  0.7242  0.3032
   55MOL   C15511063   2.375   2.520   6.148  1.0586 -0.0215  0.0936
   55MOL   H15611064   2.479   2.770   6.049 -0.0077 -1.5336 -0.2928
   55MOL   H15711065   2.307   2.756   6.020 -0.5793 -0.8764  0.3906
   55MOL   H15811066   2.432   2.679   6.283 -1.6376  2.3511  1.1458
   55MOL   H15911067   2.260   2.679   6.257 -0.3778  1.6318  0.0402
   55MOL   H16011068   2.477   2.495   6.119  1.2451 -1.5087  1.9593
   55MOL   H16111069   2.307   2.510   6.063 -0.3336  2.1935  0.9067
   55MOL   O16211070   2.332   2.425   6.248 -0.3392  0.7628  0.7795
   55MOL   C16311071   2.359   2.283   6.220  0.1832 -0.4505 -0.2788
   55MOL   C16411072   2.401   2.226   6.357  0.3680 -0.2696  0.0728
   55MOL   C16511073   2.472   2.095   6.354  0.2297 -0.2210 -0.2586
   55MOL   H16611074   2.445   2.280   6.154 -0.4408  0.0148 -1.1174
   55MOL   H16711075   2.277   2.225   6.177 -2.6420  2.6671  0.6208
   55MOL   H16811076   2.459   2.299   6.414  1.6566  0.0908 -1.6794
   55MOL   H16911077   2.314   2.228   6.424  1.0385  1.5998  0.9236
   55MOL   H17011078   2.543   2.082   6.272  0.8134  0.4477  0.1414
   55MOL   H17111079   2.390   2.024   6.358 -0.1465  0.1808 -0.8181
   55MOL   O17211080   2.546   2.083   6.470 -1.1179  0.2871  0.1426
   55MOL   C17311081   2.569   1.956   6.511  0.4290 -0.9352  0.7604
   55MOL   C17411082   2.648   1.956   6.634  0.8567 -0.9761 -0.5750
   55MOL   C17511083   2.724   1.824   6.655  0.2458 -0.1407  0.4142
   55MOL   H17611084   2.633   1.913   6.434 -1.6153 -0.4762 -1.2536
   55MOL   H17711085   2.481   1.895   6.529  0.4429 -1.8523 -2.0526
   55MOL   H17811086   2.722   2.036   6.636 -0.1774 -0.0150 -0.0438
   55MOL   H17911087   2.585   1.985   6.718 -2.0895 -2.0146 -2.3703
   55MOL   H18011088   2.801   1.807   6.580  0.1302  0.0191  0.2580
   55MOL   H18111089   2.654   1.742   6.640 -0.6926  0.8700 -0.8827
   55MOL   O18211090   2.782   1.821   6.781  0.8694 -0.4751  0.2547
   55MOL   C18311091   2.841   1.697   6.820 -0.0580  0.3311  0.3389
   55MOL   C18411092   2.913   1.686   6.961 -0.1245  0.7883 -0.0438
   55MOL   C18511093   2.992   1.551   6.981  0.2804 -0.4397  0.8927
   55MOL   H18611094   2.921   1.692   6.747  0.6201  1.6080  0.9811
   55MOL   H18711095   2.775   1.610   6.816  1.1095 -0.5361 -0.4521
   55MOL   H18811096   2.976   1.775   6.962 -0.5917  1.1338  3.5969
   55MOL   H18911097   2.839   1.696   7.040 -0.3435  1.9398 -0.3884
   55MOL   H19011098   3.063   1.557   6.898 -0.5101  0.1248  0.2562
   55MOL   H19111099   2.926   1.466   6.965 -0.3028  0.1340  0.2592
   55MOL   O19211100   3.068   1.537   7.101  0.0671 -0.4971  0.3797
   55MOL   C19311101   3.136   1.415   7.113  0.1034  0.4840 -0.6331
   55MOL   C19411102   3.215   1.440   7.248  0.3699  0.5898  0.2380
   55MOL   C19511103   3.294   1.567   7.242  0.7662  0.4081  0.5222
   55MOL   H19611104   3.196   1.388   7.026 -0.6555 -0.3491 -0.9067
   55MOL   H19711105   3.061   1.337   7.126  1.5644 -0.6159  1.5154
   55MOL   H19811106   3.143   1.438   7.330  0.2001  1.0066  0.1039
   55MOL   H19911107   3.284   1.358   7.262 -0.4877 -0.2754 -0.5046
   55MOL   H20011108   3.383   1.553   7.180  0.6354  0.6811  0.2721
   55MOL   H20111109   3.346   1.580   7.336  1.5508  0.8782  0.0274
   55MOL   H20211110   3.243   1.658   7.208  1.1189  0.1334 -0.7922
   56MOL     O111111   3.957   6.133   3.927 -0.2438  0.1026  0.0568
   56MOL     C211112   4.053   6.165   3.827  0.2738  0.0729  0.0187
   56MOL     C311113   4.191   6.115   3.873 -0.3767  0.6501 -1.1218
   56MOL     C411114   4.301   6.151   3.771 -0.7592 -0.4593  0.0374
   56MOL     H511115   4.062   6.267   3.789  0.7722  0.6163  1.5951
   56MOL     H611116   4.010   6.112   3.742 -0.5788  2.9328 -1.4043
   56MOL     H711117   4.205   6.176   3.962  0.4568 -0.0035 -0.7906
   56MOL     H811118   4.190   6.010   3.903  1.7285  1.1596  0.8554
   56MOL     H911119   4.260   6.165   3.671 -1.2726  1.5909  0.5138
   56MOL    H1011120   4.383   6.081   3.755  0.0714  0.7871 -1.3394
   56MOL    H1111121   3.982   6.182   4.004 -1.6519  1.5409 -0.3795
   56MOL    O1211122   4.363   6.275   3.803  0.2296 -0.0674 -0.6497
   56MOL    C1311123   4.448   6.329   3.699  0.2267 -0.6211 -0.0903
   56MOL    C1411124   4.499   6.465   3.735  0.3780  0.0293  0.2260
   56MOL    C1511125   4.588   6.522   3.622  0.3714  0.4183  0.2446
   56MOL    H1611126   4.395   6.344   3.606 -0.6199  2.8806  0.8938
   56MOL    H1711127   4.535   6.264   3.686  0.8512 -0.0461  1.1145
   56MOL    H1811128   4.421   6.538   3.756 -0.2388 -0.9688  1.4792
   56MOL    H1911129   4.559   6.456   3.825 -1.8367 -4.4572  1.3505
   56MOL    H2011130   4.537   6.573   3.541 -0.7955 -0.7674  0.2208
   56MOL    H2111131   4.658   6.448   3.583  1.6160  2.0430 -0.6133
   56MOL    O2211132   4.664   6.623   3.678 -0.1542 -0.3364  0.0445
   56MOL    C2311133   4.778   6.665   3.613  0.5895 -0.5064 -0.1982
   56MOL    C2411134   4.849   6.777   3.676 -0.1721  0.0542  0.0564
   56MOL    C2511135   4.789   6.912   3.631 -0.1860 -1.1228 -0.0081
   56MOL    H2611136   4.757   6.689   3.509 -0.6050  0.2385  0.2079
   56MOL    H2711137   4.839   6.575   3.615  0.7148 -0.4090  3.1703
   56MOL    H2811138   4.854   6.762   3.784 -0.7989  0.7901  0.1888
   56MOL    H2911139   4.953   6.770   3.644 -0.0017 -0.1738  0.6364
   56MOL    H3011140   4.681   6.916   3.648 -0.2576 -1.1484 -0.4471
   56MOL    H3111141   4.799   6.930   3.524  1.5493 -1.2398  0.1207
   56MOL    O3211142   4.860   7.013   3.695  0.8772 -0.1779  0.1776
   56MOL    C3311143   4.796   7.137   3.682  1.4210 -0.2077  0.0634
   56MOL    C3411144   4.881   7.236   3.768 -0.3541 -0.3055 -0.0239
   56MOL    C3511145   4.807   7.370   3.796 -0.1022  0.1155 -0.1581
   56MOL    H3611146   4.692   7.140   3.714  1.8620  0.4995  1.5172
   56MOL    H3711147   4.797   7.167   3.577  1.7092  2.5287  0.8028
   56MOL    H3811148   4.900   7.192   3.866 -2.9386 -1.3564  0.0316
   56MOL    H3911149   4.974   7.256   3.715  0.0444  0.8234  1.0664
   56MOL    H4011150   4.755   7.407   3.707 -1.2684 -0.9163  0.0714
   56MOL    H4111151   4.880   7.446   3.821 -1.2483  1.1378  0.1522
   56MOL    O4211152   4.711   7.346   3.895 -0.9626  0.0062  0.3750
   56MOL    C4311153   4.643   7.467   3.911  0.6329  0.4469  0.4035
   56MOL    C4411154   4.551   7.469   4.035 -0.6052  0.1795 -0.3259
   56MOL    C4511155   4.631   7.468   4.167  0.2423  0.4138 -0.0133
   56MOL    H4611156   4.586   7.488   3.820  0.0765 -3.3022 -0.1710
   56MOL    H4711157   4.718   7.545   3.922  0.2383  0.5786  2.5623
   56MOL    H4811158   4.492   7.561   4.032 -1.6598 -0.4881 -0.3265
   56MOL    H4911159   4.483   7.384   4.028 -1.5667  0.8676  0.5101
   56MOL    H5011160   4.680   7.565   4.175  2.3058 -0.5946 -0.0365
   56MOL    H5111161   4.704   7.387   4.161 -1.2318 -0.7675 -2.6167
   56MOL    O5211162   4.533   7.449   4.268  0.5206 -0.3658 -0.0487
   56MOL    C5311163   4.595   7.443   4.400 -0.1665 -0.3674 -0.2101
   56MOL    C5411164   4.504   7.354   4.489 -0.4483 -1.1634 -0.0799
   56MOL    C5511165   4.520   7.199   4.452  0.3804 -0.2346  0.0376
   56MOL    H5611166   4.598   7.547   4.434  2.4726 -0.6411  0.5210
   56MOL    H5711167   4.694   7.397   4.396  1.3716  2.5158  2.2655
   56MOL    H5811168   4.551   7.355   4.587 -0.3478 -0.6969 -0.1334
   56MOL    H5911169   4.401   7.388   4.495 -0.0584  0.2550 -1.3182
   56MOL    H6011170   4.624   7.181   4.427  0.4379  0.8594 -0.5329
   56MOL    H6111171   4.449   7.169   4.375 -3.1569  2.6982  1.9549
   56MOL    O6211172   4.494   7.123   4.566 -0.5878  0.5088 -0.0211
   56MOL    C6311173   4.505   6.978   4.545 -0.6219  0.5199 -0.6194
   56MOL    C6411174   4.481   6.901   4.679 -0.1986 -0.2948 -0.5899
   56MOL    C6511175   4.335   6.925   4.726 -0.0443 -0.4783 -0.6278
   56MOL    H6611176   4.605   6.948   4.514 -0.9322 -0.6797 -0.4895
   56MOL    H6711177   4.432   6.946   4.472 -2.2888  0.5208  0.9965
   56MOL    H6811178   4.506   6.795   4.672 -2.2267 -1.0038  2.1813
   56MOL    H6911179   4.543   6.940   4.760 -0.9399  0.0732 -0.1977
   56MOL    H7011180   4.257   6.905   4.652 -1.5226  0.6925  0.5832
   56MOL    H7111181   4.325   7.026   4.764 -1.2242 -1.3744  1.5529
   56MOL    O7211182   4.316   6.843   4.841 -0.4068  0.1461 -0.6473
   56MOL    C7311183   4.190   6.847   4.890 -0.2208 -0.0282  0.0370
   56MOL    C7411184   4.174   6.722   4.983 -0.1119  0.3310 -1.1082
   56MOL    C7511185   4.041   6.731   5.071  0.3010 -0.2308 -0.2549
   56MOL    H7611186   4.113   6.842   4.813 -0.7008 -3.0080  0.6586
   56MOL    H7711187   4.181   6.936   4.954  3.1659  0.3373  0.0897
   56MOL    H7811188   4.171   6.636   4.916 -1.0425 -1.2150  0.8782
   56MOL    H7911189   4.257   6.700   5.050 -0.9759 -4.3327 -1.3775
   56MOL    H8011190   4.015   6.634   5.112  0.0004  0.6967  1.8250
   56MOL    H8111191   3.951   6.753   5.013  0.8802 -0.3793 -1.2209
   56MOL    O8211192   4.058   6.811   5.181  1.5371  0.0761 -0.2131
   56MOL    C8311193   3.938   6.829   5.258 -0.3490 -0.3597 -0.6024
   56MOL    C8411194   3.976   6.903   5.384 -0.7959  0.3633 -0.1225
   56MOL    C8511195   4.065   6.821   5.471  0.2334 -0.3864 -0.1995
   56MOL    H8611196   3.881   6.738   5.276 -0.7567  0.2267  1.1228
   56MOL    H8711197   3.871   6.899   5.206 -0.7764 -1.4086 -1.4804
   56MOL    H8811198   4.030   6.994   5.358 -0.2896 -0.4397 -1.9671
   56MOL    H8911199   3.883   6.930   5.435 -1.4021  0.4017 -1.2166
   56MOL    H9011200   4.169   6.813   5.439  0.0579  0.3340 -0.9707
   56MOL    H9111201   4.021   6.723   5.491 -1.1949  0.1619 -0.6024
   56MOL    O9211202   4.064   6.881   5.595  0.0082  0.2083 -0.1292
   56MOL    C9311203   4.031   6.803   5.705  0.1587  0.1122  0.5804
   56MOL    C9411204   4.039   6.861   5.848 -0.2954 -0.0454 -0.4871
   56MOL    C9511205   4.058   6.761   5.958  0.0719 -0.8891 -0.4033
   56MOL    H9611206   4.106   6.724   5.701 -0.5697 -0.4674 -2.7466
   56MOL    H9711207   3.935   6.752   5.695  0.6064 -0.3986 -1.2056
   56MOL    H9811208   4.124   6.929   5.851  0.5376 -1.1240  2.0491
   56MOL    H9911209   3.951   6.923   5.865 -0.7290 -0.3326 -1.6792
   56MOL   H10011210   4.147   6.700   5.942 -0.0479 -1.5699  1.4071
   56MOL   H10111211   3.968   6.703   5.975 -2.0069  2.3196  0.0276
   56MOL   O10211212   4.096   6.827   6.082  0.0394 -0.0018 -0.0233
   56MOL   C10311213   3.994   6.839   6.181  0.1813  0.3941  0.4693
   56MOL   C10411214   4.056   6.899   6.302  0.1750  0.3379 -0.3414
   56MOL   C10511215   4.167   6.818   6.369 -0.2207 -0.4674  0.0315
   56MOL   H10611216   3.953   6.743   6.211  0.8459 -0.7082 -2.0079
   56MOL   H10711217   3.926   6.918   6.147  0.9116  0.7596 -0.1726
   56MOL   H10811218   4.106   6.994   6.286  1.2821 -0.5518 -2.3645
   56MOL   H10911219   3.976   6.916   6.374  1.0587 -1.6055  1.1856
   56MOL   H11011220   4.226   6.880   6.436  1.2155 -1.2428 -0.4940
   56MOL   H11111221   4.241   6.793   6.293  0.4705 -1.1217  0.9137
   56MOL   O11211222   4.108   6.706   6.434 -0.0125 -0.1621  0.1080
   56MOL   C11311223   4.206   6.628   6.509 -0.0292 -0.8866 -0.1599
   56MOL   C11411224   4.143   6.494   6.538  0.5473 -1.2202 -0.6782
   56MOL   C11511225   4.235   6.401   6.624  0.3300 -0.6139  0.6961
   56MOL   H11611226   4.234   6.675   6.603  0.0839 -1.5103  0.1243
   56MOL   H11711227   4.306   6.620   6.464  0.4412  0.0520  0.7026
   56MOL   H11811228   4.047   6.510   6.587  1.3394  1.3655  0.0928
   56MOL   H11911229   4.129   6.438   6.446  0.3807 -2.0515 -0.1481
   56MOL   H12011230   4.249   6.449   6.721 -0.6402 -1.2617  1.1662
   56MOL   H12111231   4.332   6.387   6.577 -0.9716  0.8987 -2.6165
   56MOL   O12211232   4.186   6.274   6.648  0.0699  0.1332 -0.1209
   56MOL   C12311233   4.084   6.261   6.758  0.2985 -0.0712  0.1991
   56MOL   C12411234   4.043   6.116   6.773  0.1278  0.9946 -0.4174
   56MOL   C12511235   3.951   6.072   6.656 -0.2344  0.4706 -0.8556
   56MOL   H12611236   3.999   6.324   6.731 -0.1989 -1.2584 -1.0731
   56MOL   H12711237   4.124   6.302   6.851 -1.0396  0.2049  0.6580
   56MOL   H12811238   4.132   6.053   6.777  0.8280  1.9141 -1.3923
   56MOL   H12911239   3.994   6.103   6.869  2.4522  0.5548  0.7485
   56MOL   H13011240   3.927   5.966   6.656  1.6073  0.0241 -1.5127
   56MOL   H13111241   4.000   6.085   6.559  0.9861  2.7312  0.0242
   56MOL   O13211242   3.833   6.147   6.673  0.1467  0.0901 -0.0212
   56MOL   C13311243   3.720   6.106   6.593 -0.3772 -0.2520 -0.7584
   56MOL   C13411244   3.598   6.183   6.649 -0.2481  0.4898  0.6976
   56MOL   C13511245   3.555   6.133   6.785  1.0759  0.1086  0.6210
   56MOL   H13611246   3.695   6.000   6.594 -1.4524 -0.0085 -1.2695
   56MOL   H13711247   3.743   6.131   6.489 -3.2963  1.7669 -0.9751
   56MOL   H13811248   3.612   6.291   6.656  0.0847  0.5199 -0.3448
   56MOL   H13911249   3.521   6.153   6.578  1.2178 -2.7246  0.3540
   56MOL   H14011250   3.629   6.154   6.862  0.1834  1.1086  1.2216
   56MOL   H14111251   3.546   6.025   6.780 -0.9499  0.2095  1.5478
   56MOL   O14211252   3.424   6.181   6.821 -0.4602 -0.0550  0.0322
   56MOL   C14311253   3.409   6.318   6.852  0.4974 -0.6374 -0.0148
   56MOL   C14411254   3.269   6.359   6.842  0.5338 -0.5354 -0.1319
   56MOL   C14511255   3.262   6.509   6.876 -0.4533 -1.0040  0.2153
   56MOL   H14611256   3.454   6.377   6.772 -2.5310 -0.6714 -1.8244
   56MOL   H14711257   3.457   6.343   6.947 -0.5615 -0.2549  0.4398
   56MOL   H14811258   3.249   6.349   6.735 -1.0600 -1.1452  0.2124
   56MOL   H14911259   3.197   6.307   6.905  0.2907  2.0913  1.7914
   56MOL   H15011260   3.162   6.548   6.856  0.3437  0.3800 -1.1698
   56MOL   H15111261   3.328   6.565   6.811 -2.3532  1.9052  0.6821
   56MOL   O15211262   3.304   6.522   7.011  0.3426  0.8361 -0.3387
   56MOL   C15311263   3.320   6.651   7.062 -0.2406  1.0353  0.3384
   56MOL   C15411264   3.328   6.653   7.215  0.3470  0.2670  0.8211
   56MOL   C15511265   3.457   6.588   7.269  0.4216 -0.5335 -0.2995
   56MOL   H15611266   3.237   6.712   7.027  0.1585  1.6470  0.4552
   56MOL   H15711267   3.404   6.701   7.014 -0.0275 -1.1722 -1.6816
   56MOL   H15811268   3.326   6.759   7.241  2.0790  0.9616 -1.7151
   56MOL   H15911269   3.237   6.629   7.270 -0.0202 -0.3497 -0.0554
   56MOL   H16011270   3.542   6.640   7.226  0.0704  0.6927  0.4553
   56MOL   H16111271   3.466   6.479   7.268  1.7164 -0.4384  0.2450
   56MOL   O16211272   3.450   6.614   7.411  0.0335  0.1257 -0.1687
   56MOL   C16311273   3.578   6.611   7.477  0.2625  0.2763  0.2418
   56MOL   C16411274   3.568   6.664   7.618  0.3189  0.5286  0.2725
   56MOL   C16511275   3.698   6.664   7.698  0.4408 -0.4344 -0.0378
   56MOL   H16611276   3.660   6.663   7.428  0.9737  0.0970  1.2261
   56MOL   H16711277   3.605   6.506   7.469 -1.9831 -0.4051  1.1751
   56MOL   H16811278   3.536   6.767   7.605 -0.6212  0.2794  0.5941
   56MOL   H16911279   3.485   6.617   7.672 -0.7366  1.7400 -0.2725
   56MOL   H17011280   3.766   6.746   7.673  0.4410 -0.4251 -0.0083
   56MOL   H17111281   3.740   6.564   7.699 -0.7043 -0.9338  2.1187
   56MOL   O17211282   3.656   6.694   0.043 -0.0798 -0.3241 -0.0626
   56MOL   C17311283   3.644   6.838   0.074  0.6289  0.0229 -0.1692
   56MOL   C17411284   3.605   6.843   0.223  0.2630  0.4569  0.2660
   56MOL   C17511285   3.718   6.812   0.326 -0.0827 -0.5354 -0.8158
   56MOL   H17611286   3.580   6.892   0.005  0.3238  1.1902  1.0086
   56MOL   H17711287   3.739   6.890   0.057  0.7076 -0.5824 -1.6328
   56MOL   H17811288   3.571   6.945   0.239  1.0799  0.5458  1.4791
   56MOL   H17911289   3.513   6.787   0.239  0.8686 -1.6270 -2.9846
   56MOL   H18011290   3.798   6.887   0.327  0.8779 -1.5570  0.1791
   56MOL   H18111291   3.768   6.718   0.305 -1.1788 -1.1437 -0.7411
   56MOL   O18211292   3.659   6.806   0.456 -0.4285 -0.2717 -0.0048
   56MOL   C18311293   3.754   6.794   0.563 -0.3091  0.4857  0.1026
   56MOL   C18411294   3.681   6.789   0.695  0.8217 -0.7150 -0.0197
   56MOL   C18511295   3.771   6.774   0.806 -1.0518  0.6624  0.3539
   56MOL   H18611296   3.809   6.888   0.558  1.9928 -0.8646 -0.5420
   56MOL   H18711297   3.819   6.708   0.550  1.3199  1.4243  1.7162
   56MOL   H18811298   3.635   6.885   0.719 -1.8094 -1.1666 -2.9592
   56MOL   H18911299   3.602   6.714   0.688 -0.5803  0.5510  1.5338
   56MOL   H19011300   3.847   6.851   0.808  1.6116 -1.8896  1.3507
   56MOL   H19111301   3.822   6.679   0.790  0.9257  1.8526 -0.5429
   56MOL   O19211302   3.690   6.777   0.926 -0.5922 -0.4769  0.3044
   56MOL   C19311303   3.756   6.778   1.047 -0.3277 -0.7250  0.0968
   56MOL   C19411304   3.660   6.817   1.153  0.6101  0.0671  0.3277
   56MOL   C19511305   3.718   6.814   1.288  0.2713  0.5386  0.6818
   56MOL   H19611306   3.836   6.852   1.039 -1.8374  1.0216  0.9763
   56MOL   H19711307   3.785   6.674   1.066 -2.3727 -1.5854 -1.2749
   56MOL   H19811308   3.620   6.917   1.134  0.1177 -0.6926 -2.8610
   56MOL   H19911309   3.570   6.757   1.156 -0.6609  1.8311 -1.4036
   56MOL   H20011310   3.820   6.853   1.289  0.6807 -0.3938 -1.3872
   56MOL   H20111311   3.732   6.707   1.301  0.3735  0.2502 -1.5867
   56MOL   H20211312   3.654   6.855   1.365  2.6772  1.8519  2.0501
   57MOL     O111313   4.741   1.310   3.550  0.1091  0.2039  0.2666
   57MOL     C211314   4.855   1.340   3.627 -0.4032 -0.6275  0.1046
   57MOL     C311315   4.876   1.229   3.727  0.2789 -0.1017  1.3733
   57MOL     C411316   5.006   1.232   3.810  0.2175  1.0682  0.0395
   57MOL     H511317   4.844   1.435   3.680  0.1326 -0.3981 -0.1984
   57MOL     H611318   4.944   1.344   3.565 -0.2737 -0.7639  0.2832
   57MOL     H711319   4.793   1.240   3.796  1.0024  0.7573  2.1172
   57MOL     H811320   4.866   1.134   3.675  0.1900  0.1114  0.9924
   57MOL     H911321   4.992   1.317   3.877 -0.3371  0.6122  0.5049
   57MOL    H1011322   5.097   1.244   3.751 -0.1446  0.4666 -0.6358
   57MOL    H1111323   4.671   1.297   3.613 -0.2644 -0.4038 -0.2627
   57MOL    O1211324   5.009   1.115   3.883  0.3797  0.2408  0.1726
   57MOL    C1311325   5.116   1.131   3.974 -0.1021  0.8054  0.2650
   57MOL    C1411326   5.229   1.049   3.931  0.1610  0.0104  0.3131
   57MOL    C1511327   5.351   1.056   4.027  0.3705  0.0431 -0.2263
   57MOL    H1611328   5.079   1.090   4.068  1.1663  0.0198  0.4368
   57MOL    H1711329   5.148   1.234   3.988 -0.7944  0.9444  0.8623
   57MOL    H1811330   5.191   0.947   3.930 -2.7930  1.0528  1.2923
   57MOL    H1911331   5.263   1.071   3.830 -0.1487  0.3142  0.2771
   57MOL    H2011332   5.329   1.000   4.118 -0.2043  0.2639 -0.2263
   57MOL    H2111333   5.368   1.160   4.055 -0.7021  0.0364  0.4886
   57MOL    O2211334   5.474   1.011   3.973 -0.6978  0.0726 -0.3903
   57MOL    C2311335   5.489   0.872   3.996  0.0515 -0.1315  0.1931
   57MOL    C2411336   5.621   0.826   3.923 -0.4470 -0.7232  0.0943
   57MOL    C2511337   5.635   0.669   3.933  0.2548 -0.5012 -0.3623
   57MOL    H2611338   5.420   0.808   3.941  1.2541 -0.4189 -1.0172
   57MOL    H2711339   5.498   0.847   4.102  1.0072  0.8809  0.3559
   57MOL    H2811340   5.614   0.846   3.816  1.3284  1.6873  0.3996
   57MOL    H2911341   5.701   0.881   3.972 -1.6590  1.9700 -0.8607
   57MOL    H3011342   5.705   0.622   3.864  0.7674 -0.5158  0.1670
   57MOL    H3111343   5.546   0.629   3.885 -1.1941 -0.6503  2.3175
   57MOL    O3211344   5.627   0.625   4.069  0.3334  0.2347 -0.1807
   57MOL    C3311345   5.742   0.655   4.152  0.4111 -0.0281  0.2317
   57MOL    C3411346   5.867   0.572   4.111  0.4279 -0.3587  0.0286
   57MOL    C3511347   5.967   0.580   4.230 -0.2972  0.2977 -0.7112
   57MOL    H3611348   5.708   0.624   4.250  0.7140  0.2157  0.4131
   57MOL    H3711349   5.767   0.761   4.155 -1.7599  0.5383 -0.4428
   57MOL    H3811350   5.837   0.467   4.112 -4.2590  0.8502  3.7561
   57MOL    H3911351   5.923   0.600   4.022  0.5520 -0.5052  0.0613
   57MOL    H4011352   6.053   0.517   4.205  0.2514  0.6746  0.2165
   57MOL    H4111353   5.922   0.526   4.313 -0.0353  1.3339  0.1103
   57MOL    O4211354   5.998   0.711   4.268  0.1739  0.0556 -0.2642
   57MOL    C4311355   6.072   0.722   4.389  0.2013  0.0899 -0.7357
   57MOL    C4411356   6.078   0.872   4.439  0.3200  1.1731  0.0951
   57MOL    C4511357   5.932   0.928   4.440 -0.2819  0.3311  0.5058
   57MOL    H4611358   6.169   0.672   4.386 -0.3362 -1.0011 -0.2647
   57MOL    H4711359   6.011   0.660   4.455 -2.3888 -0.1400 -3.2426
   57MOL    H4811360   6.127   0.868   4.536 -0.6295 -2.2606  0.4923
   57MOL    H4911361   6.130   0.946   4.377 -0.2191  1.0840 -0.4711
   57MOL    H5011362   5.876   0.856   4.498 -2.0062 -1.0910 -2.7827
   57MOL    H5111363   5.877   0.921   4.346  0.2004  2.5673  0.0162
   57MOL    O5211364   5.937   1.055   4.497 -0.3110  0.1085  0.2837
   57MOL    C5311365   5.799   1.096   4.536  0.2395  0.0992  0.1068
   57MOL    C5411366   5.801   1.244   4.560  0.0084  0.5307 -0.1216
   57MOL    C5511367   5.662   1.290   4.585 -0.0771  0.5067  0.2515
   57MOL    H5611368   5.757   1.039   4.619 -0.0204  0.3132  0.1227
   57MOL    H5711369   5.732   1.075   4.453  1.2971  0.4761 -0.8569
   57MOL    H5811370   5.867   1.269   4.644  0.1013 -0.1526  0.0075
   57MOL    H5911371   5.848   1.297   4.477  4.1680 -2.4694  0.1634
   57MOL    H6011372   5.595   1.248   4.509  2.4445 -3.0079 -0.1222
   57MOL    H6111373   5.664   1.399   4.585  0.5039  0.4971  0.3816
   57MOL    O6211374   5.615   1.247   4.712  0.7868  0.3769  0.3752
   57MOL    C6311375   5.501   1.313   4.761  0.0775  0.2560 -0.8620
   57MOL    C6411376   5.463   1.271   4.906 -0.3977 -0.2223  0.6743
   57MOL    C6511377   5.355   1.344   4.974 -0.0242 -0.2255 -0.2577
   57MOL    H6611378   5.413   1.289   4.703  0.1390  0.4282 -1.0287
   57MOL    H6711379   5.516   1.421   4.753  0.3108  0.2989  0.0572
   57MOL    H6811380   5.452   1.162   4.908  0.1197 -0.3182 -1.0618
   57MOL    H6911381   5.554   1.277   4.966 -1.1114  1.6819  1.5898
   57MOL    H7011382   5.266   1.307   4.923  0.2065 -1.6887  0.4054
   57MOL    H7111383   5.352   1.453   4.960  1.8935  0.3785  3.4811
   57MOL    O7211384   5.361   1.314   5.112  0.2288 -0.1137 -0.1051
   57MOL    C7311385   5.265   1.383   5.191  0.4583 -0.5349 -0.4729
   57MOL    C7411386   5.310   1.364   5.335 -0.2954 -0.0343 -0.2277
   57MOL    C7511387   5.199   1.384   5.443  0.5031  0.0973 -0.3499
   57MOL    H7611388   5.168   1.333   5.180  0.7162 -1.0325 -0.5133
   57MOL    H7711389   5.254   1.489   5.170  2.7889 -0.6026 -2.1966
   57MOL    H7811390   5.336   1.261   5.358 -2.1839 -0.3047  0.8767
   57MOL    H7911391   5.404   1.417   5.350 -0.1167 -0.2985 -0.4045
   57MOL    H8011392   5.235   1.347   5.539  0.6610 -0.7436 -0.7300
   57MOL    H8111393   5.113   1.318   5.434 -1.1481  2.0164  0.7089
   57MOL    O8211394   5.164   1.525   5.444 -0.4668  0.1951  0.0572
   57MOL    C8311395   5.031   1.550   5.493 -0.5356 -0.2510  0.2681
   57MOL    C8411396   4.998   1.695   5.478  0.5782  0.5142 -0.6391
   57MOL    C8511397   4.858   1.714   5.540 -0.5355  0.3182 -0.5238
   57MOL    H8611398   5.036   1.517   5.597  1.8288  2.1119  0.9727
   57MOL    H8711399   4.948   1.496   5.446 -0.0319  0.1851 -1.1439
   57MOL    H8811400   5.072   1.740   5.544  1.2999 -2.2105  0.5001
   57MOL    H8911401   5.012   1.730   5.376  1.8560 -2.6686 -1.6105
   57MOL    H9011402   4.838   1.653   5.628 -0.5946  2.5594  1.0580
   57MOL    H9111403   4.785   1.678   5.468  2.1022 -0.9494 -2.6267
   57MOL    O9211404   4.830   1.847   5.575 -0.3181  0.4061  0.0936
   57MOL    C9311405   4.706   1.858   5.642  0.2477 -0.6305 -0.2145
   57MOL    C9411406   4.680   2.009   5.664  0.3959 -0.0104  0.4324
   57MOL    C9511407   4.544   2.037   5.722  0.5753  0.4332 -0.4900
   57MOL    H9611408   4.697   1.802   5.735 -0.8845 -0.8772 -0.4781
   57MOL    H9711409   4.636   1.819   5.569  0.4761 -1.1207 -0.1715
   57MOL    H9811410   4.761   2.046   5.727 -1.5536  2.1010  1.7769
   57MOL    H9911411   4.692   2.067   5.573 -0.7468  1.2380  1.0633
   57MOL   H10011412   4.537   2.144   5.740 -2.3190  0.3601 -0.9225
   57MOL   H10111413   4.533   1.981   5.815  1.0688  1.0957 -0.0295
   57MOL   O10211414   4.442   2.012   5.628 -0.1715  0.4805  0.3422
   57MOL   C10311415   4.307   1.996   5.686  0.5166  0.2793  0.4025
   57MOL   C10411416   4.237   2.124   5.732 -0.1983  0.0972 -0.5305
   57MOL   C10511417   4.099   2.107   5.791  0.0734 -0.2988  0.0193
   57MOL   H10611418   4.301   1.925   5.768 -1.4898 -0.8084 -0.6621
   57MOL   H10711419   4.254   1.943   5.607 -0.3549  1.4713  0.1607
   57MOL   H10811420   4.298   2.190   5.795  0.2354  0.0252 -0.8769
   57MOL   H10911421   4.212   2.188   5.647  1.4851  3.7427  1.5568
   57MOL   H11011422   4.056   2.207   5.796 -0.0270 -0.3458  0.1078
   57MOL   H11111423   4.095   2.076   5.896 -0.5926  1.1183  0.4319
   57MOL   O11211424   4.022   2.025   5.711 -0.0907 -0.2799 -0.0802
   57MOL   C11311425   3.907   1.971   5.783  0.1050 -0.8441 -0.2920
   57MOL   C11411426   3.931   1.839   5.852  0.2915 -0.7688  0.2574
   57MOL   C11511427   3.800   1.791   5.920  0.0768  0.6949  0.1911
   57MOL   H11611428   3.838   1.948   5.702  0.7619 -1.6519 -0.6230
   57MOL   H11711429   3.854   2.050   5.836  1.2633 -0.4645  0.3169
   57MOL   H11811430   3.977   1.768   5.784 -0.7487 -1.3049  0.1026
   57MOL   H11911431   4.005   1.851   5.931  1.7660 -0.2003 -1.1804
   57MOL   H12011432   3.728   1.764   5.843 -0.0674 -0.0890  0.5983
   57MOL   H12111433   3.756   1.849   6.000 -1.9243 -0.9466  0.3161
   57MOL   O12211434   3.824   1.663   5.978 -0.2434  0.2312  0.1101
   57MOL   C12311435   3.870   1.674   6.111 -0.1811 -0.7040 -0.5364
   57MOL   C12411436   3.860   1.528   6.160  0.5907 -0.0187  0.0657
   57MOL   C12511437   3.911   1.510   6.302  0.0281 -0.6024 -0.1528
   57MOL   H12611438   3.823   1.737   6.186 -0.1561 -0.5659 -0.6365
   57MOL   H12711439   3.972   1.713   6.110 -0.2692 -0.4833 -1.4117
   57MOL   H12811440   3.753   1.509   6.171  0.9324 -1.9585  0.1660
   57MOL   H12911441   3.908   1.465   6.085 -0.3634 -0.5770 -0.0823
   57MOL   H13011442   3.850   1.571   6.369  0.4683  1.1105 -1.2706
   57MOL   H13111443   4.009   1.557   6.307 -0.6458  0.9295 -0.9590
   57MOL   O13211444   3.905   1.371   6.343 -0.2115 -0.4175 -0.2716
   57MOL   C13311445   3.981   1.340   6.459  0.1832 -0.2005  0.8316
   57MOL   C13411446   3.923   1.389   6.589  0.2454  0.3113  0.2134
   57MOL   C13511447   3.982   1.311   6.710  0.5353 -0.2810  0.1901
   57MOL   H13611448   4.087   1.365   6.450  0.4016 -1.8217 -1.5324
   57MOL   H13711449   3.968   1.232   6.469 -0.5112 -0.3779 -1.6588
   57MOL   H13811450   3.926   1.498   6.586  0.3680  0.2607 -1.6604
   57MOL   H13911451   3.817   1.366   6.581  0.5719 -0.4302 -2.2381
   57MOL   H14011452   3.987   1.204   6.688 -0.6768 -0.0309 -1.3374
   57MOL   H14111453   3.910   1.317   6.792 -0.3969  1.3463 -0.7231
   57MOL   O14211454   4.111   1.360   6.753  0.2559  0.2527  0.0940
   57MOL   C14311455   4.216   1.269   6.771 -0.0464  0.1047  1.1592
   57MOL   C14411456   4.342   1.354   6.792  0.5662  0.0656 -0.4224
   57MOL   C14511457   4.468   1.277   6.783 -0.2711  0.5356 -0.0699
   57MOL   H14611458   4.227   1.193   6.694  0.0306  1.5228 -0.2535
   57MOL   H14711459   4.186   1.224   6.866  0.9699 -0.2323  1.3243
   57MOL   H14811460   4.349   1.415   6.702  1.5185  1.5963  0.6666
   57MOL   H14911461   4.332   1.429   6.871  2.6064 -0.4627  0.3609
   57MOL   H15011462   4.461   1.178   6.827  1.5056  0.6343  0.4764
   57MOL   H15111463   4.550   1.334   6.827  0.7230  0.3249 -1.5828
   57MOL   O15211464   4.500   1.256   6.645 -0.7039  0.1236  0.0575
   57MOL   C15311465   4.638   1.229   6.623  0.2557  0.2125 -0.4188
   57MOL   C15411466   4.651   1.074   6.624  0.0007  0.2746  0.3230
   57MOL   C15511467   4.800   1.019   6.603  0.3442 -0.6955  0.0036
   57MOL   H15611468   4.691   1.279   6.704 -1.8293  0.3701  0.9052
   57MOL   H15711469   4.664   1.267   6.524 -1.0220 -0.7289 -1.1323
   57MOL   H15811470   4.611   1.033   6.717 -1.4136 -0.6485 -0.6531
   57MOL   H15911471   4.585   1.036   6.546  1.1834 -0.0531 -0.5217
   57MOL   H16011472   4.828   1.019   6.497 -2.5696 -0.7474 -0.8283
   57MOL   H16111473   4.813   0.917   6.637 -0.6245 -0.5822  0.7487
   57MOL   O16211474   4.881   1.100   6.685 -0.5269 -0.2893  0.3238
   57MOL   C16311475   5.024   1.086   6.664 -0.3415  0.6274  0.1979
   57MOL   C16411476   5.079   1.215   6.623 -0.1815  0.0410  0.6508
   57MOL   C16511477   5.034   1.251   6.480  0.0664 -0.0878 -0.0237
   57MOL   H16611478   5.058   1.007   6.597  1.6087  0.2150  1.6408
   57MOL   H16711479   5.074   1.055   6.756  0.0438 -1.0989 -0.5898
   57MOL   H16811480   5.048   1.289   6.697 -2.6666 -0.4990  0.1971
   57MOL   H16911481   5.187   1.203   6.625  0.0950  1.6926 -1.9645
   57MOL   H17011482   4.929   1.278   6.482  0.8696  3.3310  0.0152
   57MOL   H17111483   5.048   1.163   6.419 -2.3489  0.3061 -1.1699
   57MOL   O17211484   5.108   1.364   6.439  0.6934  0.2490 -0.8535
   57MOL   C17311485   5.071   1.421   6.315 -0.0247 -0.1569  0.7726
   57MOL   C17411486   4.940   1.506   6.309 -0.1436  0.3746 -0.0968
   57MOL   C17511487   4.914   1.553   6.171  0.2286 -0.4600  0.2878
   57MOL   H17611488   5.068   1.336   6.247  0.8724  1.2619 -1.1109
   57MOL   H17711489   5.153   1.480   6.275  0.3235  0.1796  1.9669
   57MOL   H17811490   4.855   1.446   6.342  1.2540 -0.1416  2.6744
   57MOL   H17911491   4.949   1.597   6.369 -2.4785  1.4018 -1.2070
   57MOL   H18011492   4.904   1.469   6.102  1.2788  0.2163 -0.6994
   57MOL   H18111493   5.003   1.610   6.144 -0.1448  0.7629  1.5271
   57MOL   O18211494   4.800   1.645   6.173  0.2260 -0.5006 -0.1463
   57MOL   C18311495   4.795   1.728   6.061 -0.0648 -0.0090  0.0720
   57MOL   C18411496   4.761   1.867   6.094  0.4223 -1.5164 -0.3972
   57MOL   C18511497   4.615   1.887   6.140 -0.3501 -0.2033  0.0706
   57MOL   H18611498   4.711   1.682   6.008  1.6919 -1.5900 -1.4231
   57MOL   H18711499   4.879   1.714   5.994  0.6138 -1.2751  1.1660
   57MOL   H18811500   4.837   1.910   6.159  2.7862 -0.6347 -3.6356
   57MOL   H18911501   4.763   1.925   6.001  0.0121 -1.2638 -0.2507
   57MOL   H19011502   4.617   1.877   6.248  0.8592 -3.3564 -0.2008
   57MOL   H19111503   4.561   1.796   6.113 -1.1401  0.8692 -2.0869
   57MOL   O19211504   4.556   2.001   6.086 -0.5494 -0.4189  0.0614
   57MOL   C19311505   4.439   2.037   6.153 -0.0625 -0.3224  0.2395
   57MOL   C19411506   4.390   2.168   6.098 -0.1714  0.0482  0.6374
   57MOL   C19511507   4.248   2.203   6.160 -0.6850  0.4928 -0.4730
   57MOL   H19611508   4.450   2.048   6.260 -0.1429 -0.7583  0.2933
   57MOL   H19711509   4.353   1.973   6.134 -0.0194 -0.2769 -0.1245
   57MOL   H19811510   4.462   2.242   6.133  0.7810 -1.0402  1.0177
   57MOL   H19911511   4.382   2.181   5.990  1.0396  1.1768  0.6720
   57MOL   H20011512   4.245   2.213   6.269  0.4667 -1.3964 -0.2406
   57MOL   H20111513   4.183   2.119   6.136  0.6085 -0.0239 -2.2651
   57MOL   H20211514   4.215   2.295   6.111 -1.1524  0.9293  0.6508
   58MOL     O111515   0.021   6.171   5.705  0.7460  0.8771  0.6475
   58MOL     C211516   7.741   6.209   5.582 -0.2505 -0.7838 -0.4968
   58MOL     C311517   0.034   6.181   5.456 -0.8734 -0.1958  0.1400
   58MOL     C411518   7.736   6.193   5.333 -0.0748 -0.1668  1.0898
   58MOL     H511519   7.706   6.312   5.589  0.6407 -0.6058  1.9227
   58MOL     H611520   7.644   6.160   5.591 -0.4936 -0.3158 -0.5594
   58MOL     H711521   0.116   6.253   5.464 -1.7203  1.1169 -2.3210
   58MOL     H811522   0.071   6.078   5.460 -1.1987 -0.3536 -0.8312
   58MOL     H911523   0.007   6.193   5.241 -1.5625 -1.1407  0.0889
   58MOL    H1011524   7.693   6.293   5.339  1.1676  0.3868  0.7337
   58MOL    H1111525   7.770   6.229   5.769  1.6010  0.6630  1.3791
   58MOL    O1211526   7.640   6.087   5.329  0.0262 -0.6523  0.4250
   58MOL    C1311527   7.526   6.107   5.240 -0.3242 -0.6711 -0.3536
   58MOL    C1411528   7.450   5.972   5.213  0.3756 -0.2849  0.1645
   58MOL    C1511529   7.329   5.997   5.128  0.3838  0.3633 -0.3195
   58MOL    H1611530   7.561   6.148   5.146 -0.6961 -0.3312 -0.3453
   58MOL    H1711531   7.455   6.182   5.275  0.6371  1.3886 -2.7180
   58MOL    H1811532   7.516   5.900   5.164 -0.6554  0.2565 -2.0653
   58MOL    H1911533   7.416   5.935   5.310 -1.2060 -1.1575 -0.7115
   58MOL    H2011534   7.273   6.080   5.171  0.3424  0.4256 -0.4949
   58MOL    H2111535   7.273   5.903   5.131  1.5744 -0.3888 -1.0500
   58MOL    O2211536   7.373   6.030   4.996 -0.2831  0.5950 -0.2140
   58MOL    C2311537   7.294   6.119   4.933 -0.5683 -0.2952 -0.3714
   58MOL    C2411538   7.342   6.144   4.791  0.3291  0.1115 -0.0870
   58MOL    C2511539   7.244   6.232   4.709 -1.0772 -0.2485 -0.6452
   58MOL    H2611540   7.279   6.211   4.990  0.3698 -1.0753  1.1299
   58MOL    H2711541   7.190   6.087   4.935 -0.8671  0.6957  0.7034
   58MOL    H2811542   7.444   6.180   4.798  0.8145 -1.0122 -1.2293
   58MOL    H2911543   7.362   6.054   4.734  0.2638 -0.4556  0.7818
   58MOL    H3011544   7.223   6.329   4.753  1.1756  0.0747 -0.2697
   58MOL    H3111545   7.152   6.173   4.707 -1.0110 -0.3299 -1.8108
   58MOL    O3211546   7.289   6.251   4.579 -0.2818 -0.7331 -0.2554
   58MOL    C3311547   7.186   6.315   4.501  0.3368 -0.2483 -0.3718
   58MOL    C3411548   7.224   6.296   4.353  0.1100 -0.2702 -0.5160
   58MOL    C3511549   7.120   6.365   4.263  0.5146  0.3552  0.2893
   58MOL    H3611550   7.168   6.420   4.527  0.9334 -0.2074 -0.1172
   58MOL    H3711551   7.093   6.258   4.505 -0.6730  1.2987 -1.3226
   58MOL    H3811552   7.317   6.347   4.327  0.2263 -0.4659 -0.4797
   58MOL    H3911553   7.223   6.188   4.339 -1.2044 -0.7224  2.7622
   58MOL    H4011554   7.130   6.472   4.280 -0.1932  0.0332  3.0119
   58MOL    H4111555   7.017   6.342   4.292 -0.5481  1.1398 -2.6839
   58MOL    O4211556   7.137   6.331   4.127  0.0222  0.1553  0.3570
   58MOL    C4311557   7.035   6.387   4.053 -0.5647 -0.6856  0.5750
   58MOL    C4411558   7.060   6.358   3.903 -0.7308 -0.1111 -0.9878
   58MOL    C4511559   7.196   6.411   3.853  0.0263 -0.7701  1.0720
   58MOL    H4611560   7.021   6.491   4.082 -1.0248 -0.5501 -0.1111
   58MOL    H4711561   6.944   6.335   4.082 -1.4368  0.5569  0.0764
   58MOL    H4811562   7.058   6.250   3.892  0.8822 -0.5497  2.5960
   58MOL    H4911563   6.975   6.397   3.846 -0.7421 -3.0982 -3.1469
   58MOL    H5011564   7.279   6.359   3.901  1.1702 -1.3611 -1.4224
   58MOL    H5111565   7.211   6.518   3.869 -0.5525  0.0553 -3.1067
   58MOL    O5211566   7.201   6.402   3.714 -0.6450  0.0619  0.0655
   58MOL    C5311567   7.245   6.279   3.660  0.1504  0.0963 -0.3518
   58MOL    C5411568   7.264   6.292   3.508 -0.0332 -0.0966  0.1914
   58MOL    C5511569   7.143   6.347   3.433  0.1902 -0.7644 -0.5267
   58MOL    H5611570   7.177   6.195   3.676 -0.8522  0.7355 -1.1682
   58MOL    H5711571   7.335   6.250   3.715  1.1325 -0.0725 -2.0071
   58MOL    H5811572   7.346   6.361   3.487 -0.7467  0.7898  0.3005
   58MOL    H5911573   7.288   6.192   3.471 -0.9426 -0.5100  0.7111
   58MOL    H6011574   7.113   6.441   3.480 -1.1020 -1.5227  0.2159
   58MOL    H6111575   7.064   6.271   3.442  0.4544 -0.8818  0.9780
   58MOL    O6211576   7.181   6.378   3.300 -0.2664 -0.6900  0.3926
   58MOL    C6311577   7.082   6.416   3.206  0.1279  0.1508 -0.2399
   58MOL    C6411578   7.148   6.460   3.077 -0.0574 -0.4453 -0.2147
   58MOL    C6511579   7.061   6.480   2.956  0.4191 -0.1306  0.1797
   58MOL    H6611580   7.017   6.494   3.245  0.6391 -0.1925  1.3298
   58MOL    H6711581   7.002   6.344   3.191 -1.4261  1.6090  0.9270
   58MOL    H6811582   7.224   6.537   3.090 -1.3558  0.7960  0.2245
   58MOL    H6911583   7.193   6.365   3.050 -1.7433 -1.0790 -0.8797
   58MOL    H7011584   7.008   6.574   2.965  1.1749  0.0403  3.2796
   58MOL    H7111585   6.995   6.394   2.944 -0.3133  0.3902  0.4521
   58MOL    O7211586   7.141   6.490   2.836  1.0033  0.6096  0.1957
   58MOL    C7311587   7.182   6.621   2.800 -0.4585 -0.0238 -0.0580
   58MOL    C7411588   7.264   6.630   2.671 -0.7693 -0.7850  0.0601
   58MOL    C7511589   7.281   6.768   2.620 -0.1131 -0.7247  1.0965
   58MOL    H7611590   7.246   6.647   2.884 -0.2387  0.5509 -0.3979
   58MOL    H7711591   7.100   6.692   2.803  0.4363  0.9645  1.7484
   58MOL    H7811592   7.359   6.585   2.700 -0.5017  0.3340  0.9465
   58MOL    H7911593   7.225   6.567   2.591 -2.4629  1.4015 -0.8795
   58MOL    H8011594   7.325   6.831   2.697 -1.4495  1.4696  0.0890
   58MOL    H8111595   7.181   6.802   2.595  0.8063 -0.2871 -2.1295
   58MOL    O8211596   7.361   6.768   2.503 -0.0314  0.2044 -0.2597
   58MOL    C8311597   7.378   6.893   2.432  0.3577 -0.0550  0.3774
   58MOL    C8411598   7.471   6.880   2.319  0.2901 -0.4745 -0.3149
   58MOL    C8511599   7.453   6.986   2.209 -0.2409 -0.2777  0.3450
   58MOL    H8611600   7.411   6.977   2.494 -1.8164  1.7739 -0.8559
   58MOL    H8711601   7.282   6.920   2.388 -0.2128  1.1327  2.2753
   58MOL    H8811602   7.573   6.877   2.358  0.3213  2.0303 -0.1654
   58MOL    H8911603   7.447   6.783   2.276 -3.5817 -0.2075  1.0491
   58MOL    H9011604   7.526   6.955   2.133 -0.7189  1.4834 -0.8630
   58MOL    H9111605   7.473   7.091   2.230 -1.1091 -0.1467  0.4925
   58MOL    O9211606   7.322   6.973   2.149 -1.0393 -0.0692  0.2510
   58MOL    C9311607   7.302   7.050   2.031  0.0185  0.2021  0.3683
   58MOL    C9411608   7.159   7.027   1.976 -0.4748  0.5548  0.2583
   58MOL    C9511609   7.049   7.029   2.088 -0.5826 -0.1134  0.5604
   58MOL    H9611610   7.368   7.011   1.953 -2.0371  0.6092 -1.6050
   58MOL    H9711611   7.315   7.158   2.039 -2.9848  0.8868 -2.7896
   58MOL    H9811612   7.135   7.090   1.891 -1.1575  1.3012  0.9891
   58MOL    H9911613   7.158   6.927   1.932 -1.7331  1.2053 -1.2446
   58MOL   H10011614   7.048   7.131   2.129  0.3694  0.8938 -1.8284
   58MOL   H10111615   7.077   6.957   2.165  0.2541 -1.4722 -1.0022
   58MOL   O10211616   6.924   6.997   2.030 -0.1486  0.3068  0.3126
   58MOL   C10311617   6.813   7.020   2.116  0.9775 -0.7136  0.0415
   58MOL   C10411618   6.688   7.024   2.032 -0.5911  0.6693  0.0072
   58MOL   C10511619   6.664   6.884   1.973  0.3077 -0.1477  0.0854
   58MOL   H10611620   6.832   7.118   2.159  1.4684 -0.5017 -0.6526
   58MOL   H10711621   6.804   6.955   2.203  0.7191 -1.7237 -0.7345
   58MOL   H10811622   6.612   7.057   2.102  0.4714  0.7716  1.1247
   58MOL   H10911623   6.690   7.098   1.952  0.6598 -1.1980 -1.7441
   58MOL   H11011624   6.665   6.818   2.059 -4.1795  0.7605  0.9626
   58MOL   H11111625   6.738   6.847   1.902 -0.3666  0.7253 -1.1058
   58MOL   O11211626   6.543   6.875   1.902 -0.1065  0.2572 -0.6087
   58MOL   C11311627   6.423   6.883   1.980  0.1070 -0.0024 -0.0770
   58MOL   C11411628   6.306   6.816   1.905 -0.3766 -0.1884 -0.3192
   58MOL   C11511629   6.157   6.849   1.953 -0.1350  0.2931 -0.5435
   58MOL   H11611630   6.398   6.980   2.024  1.5894  1.0647 -1.5281
   58MOL   H11711631   6.429   6.817   2.067 -0.0810 -0.6211 -0.5316
   58MOL   H11811632   6.315   6.843   1.800  0.4233  2.4332  0.3839
   58MOL   H11911633   6.321   6.708   1.900  0.2406 -0.2199  1.8257
   58MOL   H12011634   6.142   6.957   1.964 -0.1712  0.1736  0.6834
   58MOL   H12111635   6.146   6.798   2.049 -0.5945 -0.2792 -0.9013
   58MOL   O12211636   6.070   6.788   1.863 -0.9452  0.3748  0.4780
   58MOL   C12311637   5.933   6.803   1.898  0.7929  0.1579 -0.0285
   58MOL   C12411638   5.848   6.703   1.814 -0.8431  0.1265  0.0796
   58MOL   C12511639   5.880   6.550   1.839 -0.3394 -0.9800  0.1696
   58MOL   H12611640   5.902   6.905   1.876  0.5863  0.0478 -0.2466
   58MOL   H12711641   5.910   6.763   1.997 -0.4061 -1.2057 -0.8366
   58MOL   H12811642   5.743   6.725   1.827 -0.5384  1.3117  0.6257
   58MOL   H12911643   5.882   6.733   1.715 -0.7586  0.4415  0.2047
   58MOL   H13011644   5.856   6.509   1.936 -1.4882 -1.4619 -0.3135
   58MOL   H13111645   5.989   6.547   1.839 -0.2760  0.6476 -0.0337
   58MOL   O13211646   5.831   6.458   1.742  0.0979  0.0459  0.3460
   58MOL   C13311647   5.688   6.448   1.736 -0.2880 -0.2697 -0.8742
   58MOL   C13411648   5.656   6.336   1.637 -0.4986  0.3443  0.5482
   58MOL   C13511649   5.504   6.308   1.620 -0.7713  0.1717 -0.3399
   58MOL   H13611650   5.646   6.542   1.700  1.9679  0.4726 -1.6713
   58MOL   H13711651   5.635   6.427   1.829  0.8872 -1.9018 -0.5522
   58MOL   H13811652   5.714   6.366   1.550  1.4547 -1.0844  1.3125
   58MOL   H13911653   5.697   6.239   1.666 -0.9807 -0.5875 -1.8046
   58MOL   H14011654   5.464   6.399   1.576  1.6036  1.4959  0.1408
   58MOL   H14111655   5.448   6.277   1.708  0.0464 -0.1263  0.0807
   58MOL   O14211656   5.491   6.204   1.524 -0.1536  0.4053  0.3281
   58MOL   C14311657   5.353   6.182   1.499  0.1743 -0.3654  0.4522
   58MOL   C14411658   5.339   6.090   1.383  0.3971  0.0335 -0.4056
   58MOL   C14511659   5.192   6.040   1.356  0.0880 -0.4956  0.6147
   58MOL   H14611660   5.311   6.279   1.472 -1.3467 -0.9859  0.4963
   58MOL   H14711661   5.297   6.143   1.584 -1.4348  1.6856  0.3607
   58MOL   H14811662   5.364   6.142   1.290  5.7864 -1.0991  0.2431
   58MOL   H14911663   5.402   6.002   1.396 -2.2406 -1.6738  1.2240
   58MOL   H15011664   5.140   6.129   1.322  1.3998 -0.7762 -2.2804
   58MOL   H15111665   5.134   6.008   1.442  0.4694 -0.6521  0.8134
   58MOL   O15211666   5.189   5.954   1.243 -0.3828 -1.2290 -0.7598
   58MOL   C15311667   5.239   5.827   1.259 -0.0693 -0.0056  0.2120
   58MOL   C15411668   5.189   5.741   1.144 -0.3422 -0.4079  0.7158
   58MOL   C15511669   5.222   5.592   1.159  0.2648 -0.4630 -0.4314
   58MOL   H15611670   5.221   5.777   1.355  0.6331 -1.0665 -0.1978
   58MOL   H15711671   5.348   5.831   1.255 -0.1554  1.7504 -0.7967
   58MOL   H15811672   5.081   5.759   1.147 -0.1984  0.2346  3.2031
   58MOL   H15911673   5.224   5.783   1.050 -0.1591  1.3367  1.5522
   58MOL   H16011674   5.328   5.578   1.182  0.1839 -0.8991 -0.3140
   58MOL   H16111675   5.199   5.532   1.071 -0.6730 -2.5804  1.2328
   58MOL   O16211676   5.150   5.537   1.264  0.4322 -0.1212  0.2227
   58MOL   C16311677   5.204   5.418   1.316 -0.2694 -0.2051  0.1519
   58MOL   C16411678   5.134   5.403   1.455 -0.1822  0.2380  0.0325
   58MOL   C16511679   5.170   5.278   1.537 -0.0854  0.0602 -0.3519
   58MOL   H16611680   5.312   5.420   1.329 -0.1071 -0.2328 -1.1009
   58MOL   H16711681   5.182   5.339   1.244  2.8616  0.5693 -1.7536
   58MOL   H16811682   5.134   5.500   1.504  0.7750 -0.5226  1.5566
   58MOL   H16911683   5.034   5.381   1.415 -0.1213  0.1680 -0.0818
   58MOL   H17011684   5.255   5.300   1.602  0.8569 -0.0171 -1.5456
   58MOL   H17111685   5.197   5.190   1.477  0.8194 -1.0085  1.5717
   58MOL   O17211686   5.062   5.248   1.631  0.0308 -1.0429  0.1173
   58MOL   C17311687   5.091   5.157   1.736 -0.3232 -0.6440 -0.3261
   58MOL   C17411688   5.140   5.218   1.868 -0.5345  0.2404  0.4875
   58MOL   C17511689   5.198   5.115   1.964 -0.7304  0.3345  0.5036
   58MOL   H17611690   5.155   5.078   1.699  0.4455 -0.4585  0.5637
   58MOL   H17711691   5.000   5.103   1.759 -0.5569 -0.1208  0.0036
   58MOL   H17811692   5.219   5.292   1.858  2.5305 -2.8992  0.4570
   58MOL   H17911693   5.058   5.271   1.916  0.9739 -0.5630  4.1275
   58MOL   H18011694   5.284   5.066   1.918 -1.4732 -0.7188  0.2164
   58MOL   H18111695   5.136   5.032   1.997 -2.7993  1.7805  0.3626
   58MOL   O18211696   5.217   5.183   2.087  0.1372  0.3286 -0.6679
   58MOL   C18311697   5.259   5.103   2.191  0.0907  0.2765  0.6524
   58MOL   C18411698   5.298   5.200   2.306 -0.1253  0.4756 -0.2839
   58MOL   C18511699   5.350   5.114   2.427 -0.2388  0.0916  1.0180
   58MOL   H18611700   5.352   5.052   2.164  0.7621  1.4315  0.7256
   58MOL   H18711701   5.184   5.029   2.218 -0.1958 -0.8393 -2.9342
   58MOL   H18811702   5.361   5.276   2.261  1.2082  1.0187  2.3955
   58MOL   H18911703   5.209   5.251   2.343 -0.0003 -0.1659  0.9328
   58MOL   H19011704   5.440   5.057   2.405  0.4294  1.0290  1.2801
   58MOL   H19111705   5.273   5.049   2.468  0.8560  0.0030  3.0027
   58MOL   O19211706   5.390   5.196   2.537 -0.7306 -0.3513 -0.6416
   58MOL   C19311707   5.411   5.123   2.664  0.6744  0.1355  0.5583
   58MOL   C19411708   5.521   5.189   2.745  0.3400 -0.1886  0.9173
   58MOL   C19511709   5.519   5.341   2.755  0.4729  0.5688  0.0325
   58MOL   H19611710   5.453   5.025   2.640 -1.1550 -0.4661 -0.2842
   58MOL   H19711711   5.324   5.107   2.727  0.7153 -1.4970  0.2344
   58MOL   H19811712   5.530   5.149   2.846 -0.5536  0.9127  1.4365
   58MOL   H19911713   5.618   5.159   2.704 -0.9288 -1.7531 -1.1083
   58MOL   H20011714   5.420   5.366   2.792 -0.4571 -0.7518 -1.4985
   58MOL   H20111715   5.526   5.376   2.652 -2.6628  0.1082 -0.3906
   58MOL   H20211716   5.600   5.383   2.815  0.7234 -0.7329  0.6181
   59MOL     O111717   7.498   7.755   1.503  0.0394 -0.4433  0.4749
   59MOL     C211718   7.404   7.778   1.609 -0.5031 -0.6764 -0.1052
   59MOL     C311719   7.463   7.783   1.753 -0.3743 -0.0662 -0.8005
   59MOL     C411720   7.354   0.009   1.856 -0.6154 -0.0567 -0.5988
   59MOL     H511721   7.328   7.700   1.614 -0.4052 -0.7396  0.4810
   59MOL     H611722   7.350   0.081   1.581  2.0797  1.1995  0.7912
   59MOL     H711723   7.517   7.690   1.772  0.5039  0.6916  0.4844
   59MOL     H811724   7.542   0.069   1.756 -0.5755  0.1192 -0.1076
   59MOL     H911725   7.296   7.705   1.868 -1.3350  0.3970 -0.5378
   59MOL    H1011726   7.283   0.088   1.834  0.7589  1.0806 -1.0295
   59MOL    H1111727   7.456   7.733   1.421  0.0739  1.3827 -0.0597
   59MOL    O1211728   7.412   0.035   1.990 -0.3449 -0.2305  0.2258
   59MOL    C1311729   7.312   0.056   2.088 -0.2308  0.1087  0.4866
   59MOL    C1411730   7.361   0.114   2.222  0.1587 -0.3275 -0.1081
   59MOL    C1511731   7.259   0.111   2.330  0.0428  0.1255 -0.2880
   59MOL    H1611732   7.260   7.749   2.097 -1.0808  0.6765  1.8788
   59MOL    H1711733   7.241   0.127   2.045 -1.4160 -1.4984 -0.2658
   59MOL    H1811734   7.431   0.037   2.256  0.7393  0.3909  0.3424
   59MOL    H1911735   7.411   0.211   2.225 -0.4045 -0.0431  0.3182
   59MOL    H2011736   7.269   0.020   2.388 -0.1728 -0.2101 -0.7685
   59MOL    H2111737   7.159   0.126   2.289 -0.3529  0.8739  0.9199
   59MOL    O2211738   7.284   0.221   2.412  0.4097  0.4125 -0.2477
   59MOL    C2311739   7.189   0.238   2.519  0.1322 -0.0563  0.8516
   59MOL    C2411740   7.210   0.361   2.608 -0.5029  1.1283  0.3519
   59MOL    C2511741   7.323   0.346   2.703 -0.7948  0.0240  0.5713
   59MOL    H2611742   7.193   0.148   2.581 -0.2258 -2.6839 -2.7595
   59MOL    H2711743   7.087   0.249   2.483  0.4896  1.4849  0.3019
   59MOL    H2811744   7.217   0.453   2.550 -1.2286 -0.1396 -1.8061
   59MOL    H2911745   7.119   0.378   2.665 -2.0662  1.4275 -2.1306
   59MOL    H3011746   7.395   0.426   2.685  0.5872 -1.2258  0.4438
   59MOL    H3111747   7.374   0.250   2.700  1.3339  1.0672  2.2880
   59MOL    O3211748   7.270   0.359   2.838 -0.0422 -0.1582  0.0848
   59MOL    C3311749   7.377   0.373   2.927 -0.1239  0.3308 -0.1174
   59MOL    C3411750   7.335   0.343   3.068 -0.5455  0.0834 -0.0112
   59MOL    C3511751   7.301   0.193   3.086  0.0125 -1.1142  0.1260
   59MOL    H3611752   7.423   0.470   2.944 -1.7613  0.9411  0.9082
   59MOL    H3711753   7.462   0.312   2.895 -1.2537 -1.8347  0.8496
   59MOL    H3811754   7.390   0.388   3.151 -1.2173 -1.2358  1.1852
   59MOL    H3911755   7.239   0.391   3.087 -0.9901 -0.5684 -0.5835
   59MOL    H4011756   7.387   0.128   3.070 -0.0628 -0.9356 -1.0435
   59MOL    H4111757   7.226   0.163   3.014 -0.8455  0.9650  0.1270
   59MOL    O4211758   7.256   0.184   3.214 -0.5409 -0.5048 -0.3629
   59MOL    C4311759   7.263   0.055   3.276 -0.2441  0.6480  0.2283
   59MOL    C4411760   7.183   0.059   3.410 -0.6989 -0.2775  0.3850
   59MOL    C4511761   7.169   7.709   3.481  0.3211  0.4138  0.5267
   59MOL    H4611762   7.366   0.022   3.289 -0.6118 -0.1637  1.0921
   59MOL    H4711763   7.213   7.767   3.216 -0.9183 -0.6899  2.4233
   59MOL    H4811764   7.239   0.123   3.479  0.1893  0.0972 -0.6719
   59MOL    H4911765   7.086   0.110   3.407 -0.3325  0.4275  0.4211
   59MOL    H5011766   7.141   7.713   3.586  0.9131 -0.2205  0.7129
   59MOL    H5111767   7.272   7.675   3.469  0.9232  1.2115  3.1614
   59MOL    O5211768   7.073   7.629   3.416 -0.3494 -0.2860 -0.3838
   59MOL    C5311769   7.058   7.497   3.462  0.0856  0.0886 -0.1175
   59MOL    C5411770   7.147   7.395   3.396 -0.4885 -0.4871  0.1562
   59MOL    C5511771   7.126   7.250   3.450  0.1225 -0.7207  0.5396
   59MOL    H5611772   6.953   7.478   3.440 -0.2405  1.5979  0.1123
   59MOL    H5711773   7.075   7.491   3.569 -0.7068 -0.6343 -0.0298
   59MOL    H5811774   7.135   7.400   3.288 -1.6947  1.9776  0.3716
   59MOL    H5911775   7.252   7.403   3.422 -0.6117 -1.5759  1.0331
   59MOL    H6011776   7.193   7.197   3.382  0.5519  0.5505 -0.0471
   59MOL    H6111777   7.023   7.219   3.434 -0.0624  1.3384 -2.5973
   59MOL    O6211778   7.169   7.232   3.591 -0.4607  0.3731  0.0572
   59MOL    C6311779   7.187   7.092   3.623 -0.9640 -0.6341 -0.4172
   59MOL    C6411780   7.055   7.008   3.615 -0.3203 -0.0939 -0.7420
   59MOL    C6511781   7.057   6.869   3.679  0.0160  0.6555 -0.2247
   59MOL    H6611782   7.232   7.091   3.723 -2.1967 -0.1044  0.1595
   59MOL    H6711783   7.265   7.054   3.558 -0.4266 -2.9371  1.5153
   59MOL    H6811784   6.976   7.068   3.660 -1.3638 -1.8652 -0.2016
   59MOL    H6911785   7.034   6.985   3.510  0.2986 -0.9557 -0.6796
   59MOL    H7011786   7.091   6.895   3.779 -1.9078  1.0538  0.3495
   59MOL    H7111787   7.125   6.800   3.629 -0.7186 -1.3344  1.4715
   59MOL    O7211788   6.935   6.810   3.703  0.6283  0.4826  0.1621
   59MOL    C7311789   6.935   6.695   3.787 -0.3676 -0.3624 -0.2123
   59MOL    C7411790   6.795   6.625   3.799 -0.3327 -0.6023  0.4740
   59MOL    C7511791   6.747   6.558   3.670  0.3323  0.9198 -0.4864
   59MOL    H7611792   6.971   6.724   3.885  1.7061  0.1235 -1.0862
   59MOL    H7711793   7.002   6.622   3.741 -1.9842 -2.5627  0.8233
   59MOL    H7811794   6.796   6.548   3.877  1.6110 -0.4615  0.6138
   59MOL    H7911795   6.719   6.693   3.838  1.7735  1.1380  1.6948
   59MOL    H8011796   6.800   6.607   3.588  2.4573  0.6276  0.6817
   59MOL    H8111797   6.639   6.571   3.662 -0.1139 -2.7090 -1.0430
   59MOL    O8211798   6.786   6.422   3.668  0.4785 -0.8694  0.3100
   59MOL    C8311799   6.769   6.364   3.537  0.1304  0.2922  0.0144
   59MOL    C8411800   6.755   6.214   3.558 -0.0787  0.3824 -0.6754
   59MOL    C8511801   6.795   6.128   3.438 -0.5369  0.1226 -0.1897
   59MOL    H8611802   6.846   6.387   3.463  0.4137  0.7631  0.4514
   59MOL    H8711803   6.681   6.398   3.483  0.7934 -2.3890 -2.8869
   59MOL    H8811804   6.812   6.188   3.648 -1.6722  1.1680  0.5784
   59MOL    H8911805   6.653   6.185   3.581  0.8214 -0.6770  2.2545
   59MOL    H9011806   6.882   6.160   3.382 -0.6487  0.5297 -0.1310
   59MOL    H9111807   6.715   6.151   3.368  0.5633 -1.7309 -2.0875
   59MOL    O9211808   6.788   6.001   3.487  0.1206  0.3450 -0.1885
   59MOL    C9311809   6.844   5.903   3.397  0.3027  0.0629 -0.3325
   59MOL    C9411810   6.838   5.761   3.458  0.8183 -0.4551  0.1467
   59MOL    C9511811   6.697   5.737   3.505  0.1968  0.3286 -0.1498
   59MOL    H9611812   6.945   5.933   3.370  0.6978 -1.9244 -1.2180
   59MOL    H9711813   6.779   5.914   3.310  1.3136  0.3956 -1.0627
   59MOL    H9811814   6.861   5.683   3.385  0.5104 -1.9328  1.5961
   59MOL    H9911815   6.913   5.762   3.536 -1.0466 -0.0548  1.9938
   59MOL   H10011816   6.627   5.755   3.423  1.2439  2.5895 -0.6050
   59MOL   H10111817   6.652   5.787   3.591  0.6783 -0.6353  0.6655
   59MOL   O10211818   6.684   5.597   3.520 -0.2031 -0.7397  0.6261
   59MOL   C10311819   6.710   5.556   3.658 -0.3160  0.6025 -0.0144
   59MOL   C10411820   6.732   5.403   3.650  0.3266 -0.0506  0.3484
   59MOL   C10511821   6.857   5.374   3.566 -0.0812 -0.4881 -1.2484
   59MOL   H10611822   6.644   5.590   3.738  0.9033  0.4512  1.0744
   59MOL   H10711823   6.809   5.589   3.691 -0.4198 -0.2280  1.1343
   59MOL   H10811824   6.750   5.367   3.751  0.2210 -1.2654 -0.0596
   59MOL   H10911825   6.646   5.357   3.602  0.6513 -2.5039  2.0193
   59MOL   H11011826   6.872   5.428   3.472  0.2347  0.7306 -0.5158
   59MOL   H11111827   6.862   5.266   3.551 -1.5921 -0.7288 -0.1120
   59MOL   O11211828   6.967   5.406   3.642  0.2376 -0.1224  0.1101
   59MOL   C11311829   7.094   5.390   3.571  0.0500  0.6506  0.1858
   59MOL   C11411830   7.213   5.376   3.666 -0.4614  1.2205  0.2148
   59MOL   C11511831   7.255   5.513   3.721 -0.2698 -0.1219 -0.1650
   59MOL   H11611832   7.111   5.477   3.509 -0.3973 -1.4359 -2.9734
   59MOL   H11711833   7.088   5.301   3.507 -0.5844  1.2818 -0.6346
   59MOL   H11811834   7.189   5.316   3.753  0.5944  1.7511  0.8751
   59MOL   H11911835   7.308   5.336   3.628 -0.6083  0.0394  1.0564
   59MOL   H12011836   7.180   5.544   3.794  0.4432  1.4804 -0.1042
   59MOL   H12111837   7.269   5.596   3.651  1.2797  0.5952  0.9758
   59MOL   O12211838   7.374   5.493   3.796  0.0888 -0.0895 -0.3208
   59MOL   C12311839   7.427   5.611   3.859  0.3540  0.3337 -0.6460
   59MOL   C12411840   7.579   5.599   3.892  0.1455 -0.1126 -0.3375
   59MOL   C12511841   7.655   5.587   3.752  0.2603  0.7164 -0.2723
   59MOL   H12611842   7.369   5.629   3.950 -0.1843 -1.0828 -0.6895
   59MOL   H12711843   7.410   5.702   3.803 -0.6144  0.1845 -0.6061
   59MOL   H12811844   7.599   5.685   3.957 -2.6433 -0.8200  1.5851
   59MOL   H12911845   7.589   5.502   3.942 -0.5256  0.4392  0.8898
   59MOL   H13011846   7.612   5.662   3.686 -0.8472  0.3102 -0.0214
   59MOL   H13111847   7.625   5.493   3.707  2.8974 -0.4752  0.3289
   59MOL   O13211848   0.010   5.596   3.753 -0.2322 -1.1126 -0.1144
   59MOL   C13311849   0.080   5.493   3.822  0.3515  0.3494 -0.1650
   59MOL   C13411850   0.105   5.363   3.734  0.3021 -0.1982  0.5594
   59MOL   C13511851   0.143   5.243   3.821 -0.6189 -0.2807 -0.3694
   59MOL   H13611852   0.035   5.460   3.916  2.6248 -1.7588  0.2158
   59MOL   H13711853   0.179   5.533   3.841  1.2015 -0.4661 -2.7646
   59MOL   H13811854   0.015   5.345   3.674  0.8336 -1.8229  0.2494
   59MOL   H13911855   0.168   5.394   3.650 -0.7164  1.5014  0.3906
   59MOL   H14011856   0.069   5.220   3.898 -1.4563 -0.2878 -1.1717
   59MOL   H14111857   0.235   5.271   3.873 -0.5824 -2.6543  0.9423
   59MOL   O14211858   0.156   5.128   3.742  0.0374  0.0689  0.1767
   59MOL   C14311859   0.202   5.017   3.814 -1.0929  0.1134  0.0649
   59MOL   C14411860   0.225   4.898   3.721 -0.0983  0.2812 -0.0988
   59MOL   C14511861   0.267   4.767   3.798 -0.3403 -0.1812 -0.0309
   59MOL   H14611862   0.114   4.992   3.873 -2.2619 -0.0751 -1.7100
   59MOL   H14711863   0.278   5.056   3.881 -0.7229  1.1889 -0.9618
   59MOL   H14811864   0.140   4.868   3.660 -0.6719 -0.2430  0.9515
   59MOL   H14911865   0.306   4.921   3.652 -0.5976  1.2312 -0.3908
   59MOL   H15011866   0.191   4.724   3.862 -1.5738  0.1879 -1.2146
   59MOL   H15111867   0.346   4.788   3.870  1.2769  0.2133 -1.8697
   59MOL   O15211868   0.315   4.672   3.705  0.0347  0.0488 -0.3513
   59MOL   C15311869   0.301   4.540   3.758 -1.0511 -0.2322 -0.0415
   59MOL   C15411870   0.364   4.459   3.640 -0.8364 -0.2213 -0.7355
   59MOL   C15511871   0.364   4.309   3.694 -0.7807 -0.6632 -1.3635
   59MOL   H15611872   0.194   4.518   3.761 -1.1338  0.1190 -0.4162
   59MOL   H15711873   0.355   4.513   3.849 -0.3881  1.2271  0.0096
   59MOL   H15811874   0.323   4.484   3.542 -2.3304 -1.3074 -0.3983
   59MOL   H15911875   0.469   4.485   3.628 -0.9450 -0.2155 -1.7096
   59MOL   H16011876   0.270   4.290   3.745  0.5205 -1.6945  0.6961
   59MOL   H16111877   0.441   4.298   3.770 -1.9068 -1.0582 -0.2693
   59MOL   O16211878   0.409   4.222   3.597  0.0147 -0.0886 -0.1018
   59MOL   C16311879   0.302   4.180   3.511  0.0891 -0.3916  0.5982
   59MOL   C16411880   0.352   4.084   3.406 -0.1268 -0.2521  0.3254
   59MOL   C16511881   0.249   3.994   3.347 -0.3550  0.0174  0.0021
   59MOL   H16611882   0.260   4.268   3.462 -0.9134 -1.0093  0.3489
   59MOL   H16711883   0.227   4.138   3.577  0.3737 -0.2581  1.0180
   59MOL   H16811884   0.409   4.142   3.334 -1.2415  0.8956  0.3580
   59MOL   H16911885   0.429   4.021   3.451  0.0691  0.2868  0.7523
   59MOL   H17011886   0.186   4.060   3.287 -0.4455  0.0896  0.1750
   59MOL   H17111887   0.192   3.953   3.430 -0.0885 -0.1083  0.1216
   59MOL   O17211888   0.298   3.886   3.272 -0.0395 -0.2880 -0.2872
   59MOL   C17311889   0.354   3.911   3.146  0.5992 -0.7700 -0.3164
   59MOL   C17411890   0.378   3.776   3.086 -0.2941  0.4502 -0.2477
   59MOL   C17511891   0.423   3.793   2.940 -0.4384  1.0240  0.1699
   59MOL   H17611892   0.441   3.971   3.175  0.3607 -1.1829  1.2995
   59MOL   H17711893   0.289   3.974   3.086  0.3319 -1.0418 -0.3131
   59MOL   H17811894   0.444   3.715   3.148 -1.5611 -2.0026 -1.2247
   59MOL   H17911895   0.286   3.717   3.087 -0.6744  1.0015 -2.1328
   59MOL   H18011896   0.513   3.853   2.957 -0.5813  1.5674 -0.9361
   59MOL   H18111897   0.342   3.850   2.893  0.0039 -0.4566 -2.4556
   59MOL   O18211898   0.413   3.671   2.880 -0.1508  0.2171  0.6781
   59MOL   C18311899   0.441   3.680   2.736  0.0738 -0.4977 -0.5182
   59MOL   C18411900   0.439   3.535   2.690  0.4399  0.1216  0.6316
   59MOL   C18511901   0.480   3.519   2.543  0.0279 -0.1503 -0.4488
   59MOL   H18611902   0.538   3.728   2.723 -0.3063  0.1010 -1.2133
   59MOL   H18711903   0.363   3.739   2.687  0.8409  1.4049  0.4976
   59MOL   H18811904   0.502   3.478   2.758  1.7749 -1.1180 -1.5805
   59MOL   H18911905   0.344   3.481   2.695  0.0169  0.7746 -0.2124
   59MOL   H19011906   0.577   3.569   2.536  0.2338  0.0420  2.9514
   59MOL   H19111907   0.421   3.583   2.478 -1.1809  1.3784  2.0773
   59MOL   O19211908   0.484   3.382   2.517  0.2013  0.0364 -0.6045
   59MOL   C19311909   0.567   3.343   2.406 -0.6046 -0.8455  0.7528
   59MOL   C19411910   0.522   3.198   2.363  0.0772 -0.2236 -0.6169
   59MOL   C19511911   0.502   3.109   2.488  0.1710 -0.6251 -0.2921
   59MOL   H19611912   0.673   3.353   2.432 -0.2772  0.2198 -0.8753
   59MOL   H19711913   0.549   3.408   2.320  0.0831  0.6974  1.7479
   59MOL   H19811914   0.428   3.222   2.315 -0.3227  0.9647  0.7409
   59MOL   H19911915   0.586   3.142   2.295 -1.7889 -3.7866  0.4016
   59MOL   H20011916   0.588   3.110   2.554  1.5367 -4.3562 -1.8467
   59MOL   H20111917   0.477   3.005   2.465 -0.2362 -0.4536 -0.6327
   59MOL   H20211918   0.423   3.142   2.556 -0.4583 -1.1425 -0.7697
   60MOL     O111919   3.106   6.203   3.776  0.6346  0.7475  0.0386
   60MOL     C211920   3.146   6.337   3.778  0.1011  0.5600  0.4057
   60MOL     C311921   3.298   6.355   3.800 -0.3134 -0.5727 -0.3338
   60MOL     C411922   3.350   6.497   3.771 -0.0524 -0.0208  0.1277
   60MOL     H511923   3.098   6.390   3.860 -0.0564  0.6653  0.2465
   60MOL     H611924   3.107   6.384   3.688  0.3510  0.2773  0.1482
   60MOL     H711925   3.331   6.335   3.902  0.6443  0.6558 -0.3858
   60MOL     H811926   3.341   6.273   3.743  0.8899  1.4316 -2.3872
   60MOL     H911927   3.297   6.564   3.839  1.7094  1.0018  0.5325
   60MOL    H1011928   3.322   6.530   3.671  1.3763 -1.7002 -0.8620
   60MOL    H1111929   3.102   6.173   3.866  0.0760 -0.7318 -0.4510
   60MOL    O1211930   3.484   6.514   3.818 -0.2437 -0.4414 -0.0723
   60MOL    C1311931   3.578   6.464   3.728  0.1171  0.3355 -0.4601
   60MOL    C1411932   3.625   6.325   3.771  0.0696  0.3359  0.0178
   60MOL    C1511933   3.689   6.244   3.657  0.2488  0.3037  0.0630
   60MOL    H1611934   3.660   6.537   3.730 -0.4127  0.9052  1.4913
   60MOL    H1711935   3.531   6.465   3.630 -0.3442  1.0065 -0.2345
   60MOL    H1811936   3.698   6.344   3.850  1.7231 -0.8319 -1.1846
   60MOL    H1911937   3.549   6.258   3.812 -0.7741 -0.2408 -2.4164
   60MOL    H2011938   3.730   6.147   3.684 -0.4390  0.0913  0.3399
   60MOL    H2111939   3.780   6.294   3.622  1.8307 -1.3428  1.7229
   60MOL    O2211940   3.594   6.233   3.552 -0.3051  0.1362  0.0349
   60MOL    C2311941   3.640   6.129   3.457  0.1361 -0.6692 -0.0547
   60MOL    C2411942   3.520   6.098   3.369 -0.2230 -0.1884  0.4183
   60MOL    C2511943   3.544   5.988   3.258  0.3792 -0.3398 -0.3175
   60MOL    H2611944   3.659   6.038   3.514 -2.1301 -2.4275 -2.0153
   60MOL    H2711945   3.730   6.155   3.402  1.5570  0.7210  2.7840
   60MOL    H2811946   3.435   6.071   3.432 -0.1601  0.3371  0.7311
   60MOL    H2911947   3.487   6.185   3.311  0.6035 -0.1787 -0.0407
   60MOL    H3011948   3.524   5.889   3.298 -1.9802  0.6994  1.1958
   60MOL    H3111949   3.648   5.992   3.224  1.4237 -0.8525  2.6929
   60MOL    O3211950   3.460   6.021   3.149  0.0183  0.0484 -0.0096
   60MOL    C3311951   3.486   5.939   3.035  0.3264  0.4311 -0.5392
   60MOL    C3411952   3.407   5.987   2.918  0.3656  0.2282  1.4221
   60MOL    C3511953   3.400   5.892   2.802 -0.8867 -0.5860 -0.6499
   60MOL    H3611954   3.454   5.838   3.063  3.4905 -0.1396  1.3017
   60MOL    H3711955   3.593   5.939   3.013  0.7548 -0.5532  1.3999
   60MOL    H3811956   3.305   6.004   2.952 -1.6509 -1.3978 -3.4722
   60MOL    H3911957   3.448   6.082   2.884  2.1142 -0.7381  0.7512
   60MOL    H4011958   3.347   5.935   2.717 -2.6080  1.5228  1.4023
   60MOL    H4111959   3.336   5.808   2.828  0.4724 -1.4937 -0.1792
   60MOL    O4211960   3.527   5.863   2.761 -0.4013 -0.2410  0.0174
   60MOL    C4311961   3.536   5.780   2.638  0.1410  0.2137  0.4304
   60MOL    C4411962   3.680   5.785   2.598 -0.5762 -0.2498 -0.0872
   60MOL    C4511963   3.699   5.706   2.473 -0.0055  0.7553  0.2669
   60MOL    H4611964   3.488   5.830   2.554 -0.0497 -2.7406 -1.2965
   60MOL    H4711965   3.482   5.686   2.648 -3.8443  2.2341 -0.9165
   60MOL    H4811966   3.732   5.880   2.584  0.0410 -0.6838 -0.8364
   60MOL    H4911967   3.728   5.739   2.684  2.1292  1.8504 -0.3774
   60MOL    H5011968   3.653   5.760   2.390  2.5908  2.3332 -0.2037
   60MOL    H5111969   3.650   5.609   2.479  0.9806 -0.0556 -3.5704
   60MOL    O5211970   3.833   5.690   2.448 -0.3685 -0.2944 -0.3567
   60MOL    C5311971   3.869   5.651   2.318 -0.4105 -0.4566  1.4938
   60MOL    C5411972   4.011   5.612   2.307  0.0829 -0.1473  0.4607
   60MOL    C5511973   4.038   5.576   2.163 -0.2264 -0.2327  0.1029
   60MOL    H5611974   3.848   5.734   2.251  1.2403  0.3366  1.9386
   60MOL    H5711975   3.798   5.569   2.308 -0.0986 -0.9580  3.2525
   60MOL    H5811976   4.077   5.690   2.346  0.3053  0.3251 -0.8278
   60MOL    H5911977   4.026   5.522   2.365  0.6751  0.6435  1.5548
   60MOL    H6011978   4.033   5.665   2.099 -0.2437 -0.2551  0.0734
   60MOL    H6111979   3.963   5.508   2.122  0.3825 -1.0309  0.3091
   60MOL    O6211980   4.171   5.524   2.149  0.2209  0.3820  0.5382
   60MOL    C6311981   4.198   5.488   2.014 -0.6999  0.0696  0.3836
   60MOL    C6411982   4.350   5.446   2.009  0.2828 -0.0059 -0.4641
   60MOL    C6511983   4.387   5.313   2.057  0.3875 -0.2012  0.5259
   60MOL    H6611984   4.191   5.565   1.937 -2.4833 -1.0929 -0.6506
   60MOL    H6711985   4.132   5.406   1.985  0.6167 -0.3554 -1.5064
   60MOL    H6811986   4.373   5.452   1.903  2.8149 -0.8675  0.0132
   60MOL    H6911987   4.415   5.516   2.062  1.6836 -1.2509 -0.5125
   60MOL    H7011988   4.351   5.233   1.992 -2.0466  0.5054  0.9616
   60MOL    H7111989   4.369   5.304   2.164 -2.9569 -0.5665 -0.0191
   60MOL    O7211990   4.522   5.314   2.028 -0.4622 -0.0080 -0.4706
   60MOL    C7311991   4.597   5.203   2.076 -0.2679 -0.8829  0.7336
   60MOL    C7411992   4.746   5.226   2.043  0.1986 -0.7182 -0.3578
   60MOL    C7511993   4.826   5.116   2.101 -0.7902  1.1383 -0.3123
   60MOL    H7611994   4.578   5.109   2.024  0.0391 -0.8461  0.5549
   60MOL    H7711995   4.578   5.191   2.183  1.3455 -0.8699  1.0361
   60MOL    H7811996   4.754   5.230   1.935  0.3937 -1.2270 -0.3598
   60MOL    H7911997   4.784   5.318   2.089 -1.5406 -1.1752  2.1155
   60MOL    H8011998   4.801   5.088   2.203 -1.3857 -2.7599 -1.4397
   60MOL    H8111999   4.931   5.143   2.101 -0.6766  0.7032  0.6274
   60MOL    O8212000   4.814   5.002   2.017 -0.4801  0.4896 -0.0012
   60MOL    C8312001   4.873   4.889   2.080  0.3768  0.2043  0.1127
   60MOL    C8412002   4.878   4.769   1.984 -0.0106  0.5224 -0.3186
   60MOL    C8512003   4.743   4.725   1.933 -0.2306 -0.5700  0.1646
   60MOL    H8612004   4.814   4.862   2.167 -0.5351  3.0246  0.3968
   60MOL    H8712005   4.974   4.914   2.112  0.4559  0.7161 -0.5132
   60MOL    H8812006   4.948   4.785   1.902 -0.4566 -1.6438 -1.1618
   60MOL    H8912007   4.915   4.678   2.032 -0.2557 -0.3527 -1.7511
   60MOL    H9012008   4.703   4.811   1.879 -0.8010 -0.3488  0.9176
   60MOL    H9112009   4.670   4.682   2.001  0.5832 -1.4212  0.5189
   60MOL    O9212010   4.759   4.624   1.837  0.5069 -0.3206 -0.6159
   60MOL    C9312011   4.642   4.584   1.779  0.3885  0.0491 -0.1384
   60MOL    C9412012   4.694   4.497   1.668 -0.7732  0.8657  0.0968
   60MOL    C9512013   4.585   4.470   1.567  0.2085  0.1815  0.7101
   60MOL    H9612014   4.590   4.670   1.735 -0.3117  0.1593  0.8807
   60MOL    H9712015   4.570   4.529   1.839  2.7703 -0.9691  1.8709
   60MOL    H9812016   4.762   4.557   1.607  0.5419 -1.4417 -0.7800
   60MOL    H9912017   4.753   4.411   1.699 -0.6278  1.6292  2.0052
   60MOL   H10012018   4.635   4.404   1.497 -2.0634 -0.9769  0.1178
   60MOL   H10112019   4.562   4.568   1.525 -0.3244  0.5549  1.8569
   60MOL   O10212020   4.468   4.410   1.627  0.3733  0.0914  0.0282
   60MOL   C10312021   4.352   4.473   1.571  0.8793 -0.6853  0.0655
   60MOL   C10412022   4.227   4.391   1.601 -0.3483 -0.0642  0.0226
   60MOL   C10512023   4.105   4.444   1.517 -0.2463 -0.2598  0.2263
   60MOL   H10612024   4.352   4.479   1.462  0.0545 -1.5061  0.0114
   60MOL   H10712025   4.352   4.574   1.611 -2.8866  0.9006 -3.5808
   60MOL   H10812026   4.250   4.287   1.581 -0.2839  0.4355 -2.7218
   60MOL   H10912027   4.212   4.395   1.709  0.8126 -2.3761  0.3050
   60MOL   H11012028   4.035   4.361   1.509 -0.6045  0.2060 -1.7326
   60MOL   H11112029   4.142   4.455   1.415 -4.1366 -2.3508 -1.5364
   60MOL   O11212030   4.054   4.561   1.575  0.2848 -0.0157  0.5225
   60MOL   C11312031   3.952   4.531   1.667 -0.4134  0.0340 -0.1369
   60MOL   C11412032   3.891   4.672   1.710 -0.6528 -0.4690 -0.3434
   60MOL   C11512033   3.781   4.655   1.815 -0.2170  0.3887  0.0832
   60MOL   H11612034   3.973   4.482   1.762 -0.5408  1.0210  0.4032
   60MOL   H11712035   3.872   4.468   1.629 -0.1608 -1.2010  1.3379
   60MOL   H11812036   3.975   4.726   1.752  0.3849 -2.5946  0.4036
   60MOL   H11912037   3.858   4.724   1.620 -0.8019  0.0140 -0.0132
   60MOL   H12012038   3.808   4.586   1.896 -1.7866 -0.9816 -0.5223
   60MOL   H12112039   3.694   4.618   1.761 -0.7485  2.2586 -0.3601
   60MOL   O12212040   3.747   4.788   1.858  0.0240 -1.1771  0.0404
   60MOL   C12312041   3.664   4.793   1.975  0.1284  0.5026  0.1474
   60MOL   C12412042   3.624   4.929   2.000  0.1787 -0.4643  0.1496
   60MOL   C12512043   3.559   4.957   2.137  0.3716  0.0790  0.2224
   60MOL   H12612044   3.726   4.742   2.049  1.3900  0.6708 -0.7803
   60MOL   H12712045   3.577   4.728   1.966 -0.0654  0.9156 -0.9966
   60MOL   H12812046   3.715   4.989   2.000  0.3546 -0.7288  0.9753
   60MOL   H12912047   3.568   4.971   1.917 -0.3641 -0.8230  0.3332
   60MOL   H13012048   3.460   4.912   2.143  0.2852  0.3825  1.1858
   60MOL   H13112049   3.544   5.061   2.166 -1.1811 -0.4982  1.5418
   60MOL   O13212050   3.650   4.907   2.239 -0.0061 -0.1209  0.1868
   60MOL   C13312051   3.614   4.923   2.374  0.2597 -0.2696  0.2877
   60MOL   C13412052   3.712   4.842   2.460 -0.0158  0.5212  0.1075
   60MOL   C13512053   3.667   4.824   2.605  0.2913  0.6651  0.3157
   60MOL   H13612054   3.511   4.887   2.376 -0.6985  2.1794 -2.3041
   60MOL   H13712055   3.618   5.026   2.409 -2.7460  0.3021 -0.8487
   60MOL   H13812056   3.713   4.743   2.414 -0.8099  1.0877 -1.1681
   60MOL   H13912057   3.813   4.882   2.459  0.2305 -0.1201 -1.1883
   60MOL   H14012058   3.704   4.728   2.640 -1.4479 -0.5445 -1.0618
   60MOL   H14112059   3.562   4.833   2.632 -0.4560 -2.0332 -1.5573
   60MOL   O14212060   3.736   4.930   2.671  0.4043 -0.4525 -0.2705
   60MOL   C14312061   3.728   4.905   2.810 -0.5018 -0.6286 -0.1462
   60MOL   C14412062   3.793   5.016   2.896 -0.5288  0.6477 -0.1606
   60MOL   C14512063   3.698   5.129   2.916  0.4530 -0.0572  0.0576
   60MOL   H14612064   3.774   4.810   2.839  1.1742 -0.2347 -1.4415
   60MOL   H14712065   3.624   4.901   2.844 -0.0097 -0.5914  1.4208
   60MOL   H14812066   3.823   4.980   2.995 -1.8659  3.3455  1.2883
   60MOL   H14912067   3.885   5.050   2.848 -1.0957  1.4473 -0.6776
   60MOL   H15012068   3.616   5.091   2.976  1.0113 -2.3958 -0.6249
   60MOL   H15112069   3.641   5.152   2.825  1.6218  0.9936 -0.4254
   60MOL   O15212070   3.752   5.237   2.986 -0.8878 -0.1391 -0.2575
   60MOL   C15312071   3.654   5.340   3.012 -0.1214  0.1361  0.9442
   60MOL   C15412072   3.740   5.470   3.047  0.1809 -0.3378  0.2199
   60MOL   C15512073   3.756   5.498   3.197  0.3744 -0.3999  0.1785
   60MOL   H15612074   3.588   5.317   3.096  1.6530  0.6504  2.5159
   60MOL   H15712075   3.591   5.356   2.924  0.1710  0.4258  0.7880
   60MOL   H15812076   3.832   5.460   2.989 -0.6770 -1.1856 -1.0334
   60MOL   H15912077   3.686   5.556   3.009  0.3658 -0.4124 -0.2200
   60MOL   H16012078   3.807   5.406   3.226  1.3198 -0.5605 -1.9431
   60MOL   H16112079   3.663   5.525   3.247  0.1962 -0.4171 -0.1441
   60MOL   O16212080   3.848   5.604   3.205 -0.0696  0.3583 -0.2782
   60MOL   C16312081   3.864   5.653   3.334  0.9199 -0.1083 -0.4373
   60MOL   C16412082   3.911   5.801   3.332 -0.0043  0.0873  0.1298
   60MOL   C16512083   3.983   5.833   3.459 -0.1182  0.2267  0.1642
   60MOL   H16612084   3.937   5.589   3.383 -0.4314  0.1286  1.9397
   60MOL   H16712085   3.775   5.642   3.396  0.9024  0.9026 -0.2847
   60MOL   H16812086   3.978   5.823   3.248  0.0753  1.1012  0.4534
   60MOL   H16912087   3.822   5.863   3.330 -0.1091 -0.0569  0.2770
   60MOL   H17012088   4.015   5.936   3.443  1.9190 -0.1962  1.4728
   60MOL   H17112089   4.065   5.765   3.480 -1.0908 -1.1460 -0.3998
   60MOL   O17212090   3.881   5.843   3.559 -0.3799 -0.1761 -0.2348
   60MOL   C17312091   3.920   5.822   3.696 -0.1279 -0.0325  0.4544
   60MOL   C17412092   3.930   5.677   3.727  0.6061  0.7952 -0.3829
   60MOL   C17512093   3.800   5.602   3.730  0.0869 -0.7587  0.0109
   60MOL   H17612094   3.839   5.865   3.755  0.2505  0.7844  0.3810
   60MOL   H17712095   4.010   5.877   3.722  0.1658 -0.5577  0.5474
   60MOL   H17812096   3.979   5.622   3.647  2.4794  1.4012  0.3176
   60MOL   H17912097   3.988   5.666   3.819  0.7196 -2.7392 -0.8342
   60MOL   H18012098   3.730   5.643   3.657  0.1159  0.1004  0.4621
   60MOL   H18112099   3.749   5.625   3.824  0.5151  2.8406 -0.5582
   60MOL   O18212100   3.829   5.462   3.718  0.2629  0.6510 -0.1478
   60MOL   C18312101   3.715   5.392   3.675  0.2967 -0.8454 -0.1711
   60MOL   C18412102   3.743   5.239   3.690  0.8440 -0.6873  0.6886
   60MOL   C18512103   3.743   5.202   3.846 -0.0438 -0.1992  0.4571
   60MOL   H18612104   3.691   5.402   3.569  0.5271  1.6112 -0.0187
   60MOL   H18712105   3.625   5.414   3.733 -0.2322  0.0699 -1.3105
   60MOL   H18812106   3.659   5.187   3.644  0.2125  0.7588  0.1613
   60MOL   H18912107   3.826   5.202   3.630  0.7626 -1.2940  0.9508
   60MOL   H19012108   3.649   5.232   3.891 -0.2882 -1.4278  0.7887
   60MOL   H19112109   3.830   5.254   3.887  0.4846 -1.2410  0.6835
   60MOL   O19212110   3.736   5.058   3.872  0.0923  0.1889 -0.8959
   60MOL   C19312111   3.860   4.998   3.906  0.3571 -0.2801 -0.4971
   60MOL   C19412112   3.975   5.012   3.797 -0.2204 -0.3338 -0.4392
   60MOL   C19512113   3.958   4.936   3.672  0.0301  0.1596 -0.4914
   60MOL   H19612114   3.834   4.895   3.930 -0.7680  0.5813  2.1546
   60MOL   H19712115   3.889   5.050   3.997 -2.4697  1.2827 -0.4358
   60MOL   H19812116   3.992   5.115   3.768  1.2202 -0.9536 -1.9222
   60MOL   H19912117   4.064   4.975   3.847  0.4832  0.7145 -0.9180
   60MOL   H20012118   4.045   4.947   3.608  0.8564 -0.1675  0.5581
   60MOL   H20112119   3.867   4.969   3.622 -0.3846 -1.8801 -1.0961
   60MOL   H20212120   3.951   4.832   3.702  0.4938  0.2870  0.0889
   61MOL     O112121   5.821   7.121   3.620 -0.0357 -0.5654  0.0280
   61MOL     C212122   5.925   7.214   3.609 -0.4287 -0.2505  0.0809
   61MOL     C312123   5.885   7.307   3.496 -0.7168  0.2541 -0.6912
   61MOL     C412124   5.988   7.428   3.474  0.5827  0.2093 -0.3534
   61MOL     H512125   6.016   7.156   3.595 -0.0461  0.3125  0.2454
   61MOL     H612126   5.943   7.265   3.703  1.0965 -1.5736  0.5220
   61MOL     H712127   5.885   7.241   3.410 -1.1136 -0.7604  0.0756
   61MOL     H812128   5.786   7.351   3.508 -1.6625 -1.9618 -0.0880
   61MOL     H912129   6.093   7.401   3.466  0.2372 -1.7572  1.4365
   61MOL    H1012130   5.995   7.482   3.568 -1.3849 -2.3600  1.3235
   61MOL    H1112131   5.855   7.036   3.594 -0.8788 -0.5561 -1.1717
   61MOL    O1212132   5.948   7.503   3.362  0.0220  0.5267  0.4187
   61MOL    C1312133   6.007   7.458   3.244 -0.9330 -1.1229 -0.5655
   61MOL    C1412134   5.946   7.533   3.130  0.9728 -0.3346  0.9123
   61MOL    C1512135   5.812   7.485   3.096  1.0586 -0.8575  0.4193
   61MOL    H1612136   6.002   7.352   3.219 -0.6332 -1.5907  1.2653
   61MOL    H1712137   6.113   7.486   3.249 -0.8870 -1.2364 -0.8753
   61MOL    H1812138   5.927   7.635   3.163 -0.1506 -1.0318  2.4563
   61MOL    H1912139   6.011   7.544   3.043 -0.2387  2.2045  0.2964
   61MOL    H2012140   5.762   7.564   3.041  1.1421  1.5326  3.6559
   61MOL    H2112141   5.755   7.473   3.188 -2.1593  1.3716 -1.1942
   61MOL    O2212142   5.827   7.368   3.018  0.3280  0.0958 -0.4755
   61MOL    C2312143   5.701   7.298   3.008 -0.8550  0.0985 -0.2962
   61MOL    C2412144   5.608   7.377   2.911 -0.6279  0.4566 -0.2682
   61MOL    C2512145   5.469   7.323   2.919 -0.0031 -0.6102  0.6482
   61MOL    H2612146   5.660   7.290   3.109  0.2323 -1.9167  0.0128
   61MOL    H2712147   5.730   7.199   2.974 -1.0208 -0.5068  1.2909
   61MOL    H2812148   5.603   7.482   2.941  0.4047  0.3362  0.3653
   61MOL    H2912149   5.651   7.374   2.811 -0.7006 -3.7755 -0.2745
   61MOL    H3012150   5.452   7.229   2.867  0.4816 -0.8623  0.9463
   61MOL    H3112151   5.410   7.384   2.850 -2.3801  0.6246  3.6482
   61MOL    O3212152   5.409   7.316   3.044  0.1809 -0.1619 -0.3487
   61MOL    C3312153   5.356   7.441   3.089 -0.6797  0.1653  0.1149
   61MOL    C3412154   5.312   7.418   3.236  0.8659 -0.0889 -0.3388
   61MOL    C3512155   5.249   7.545   3.287 -0.0432 -0.0719  0.6411
   61MOL    H3612156   5.294   7.475   3.005 -0.0707 -0.2832 -0.5248
   61MOL    H3712157   5.437   7.514   3.086 -0.6904  0.1446 -2.7503
   61MOL    H3812158   5.245   7.333   3.236  1.4755 -0.5762 -0.2461
   61MOL    H3912159   5.389   7.376   3.301  0.3695  3.0044  2.3656
   61MOL    H4012160   5.193   7.530   3.380  0.2665  0.3551  0.8996
   61MOL    H4112161   5.182   7.583   3.210 -0.7577  0.7527  1.6583
   61MOL    O4212162   5.355   7.646   3.310  0.0708  0.0476 -0.3656
   61MOL    C4312163   5.313   7.771   3.361 -0.6064 -0.8584  0.3407
   61MOL    C4412164   5.435   0.068   3.389 -0.8159 -0.5854 -0.3576
   61MOL    C4512165   5.561   7.773   3.413 -0.0796 -0.0279  0.4078
   61MOL    H4612166   5.275   7.752   3.461 -0.6373 -0.0943  0.4726
   61MOL    H4712167   5.243   0.041   3.300 -0.6041 -0.7041  0.4858
   61MOL    H4812168   5.468   0.121   3.299 -0.7937  0.4554  0.2597
   61MOL    H4912169   5.416   0.147   3.462 -2.9504 -0.9657 -0.4731
   61MOL    H5012170   5.644   0.052   3.434 -0.4467  0.3406  0.6939
   61MOL    H5112171   5.597   7.712   3.331  1.9550 -0.5182  1.6376
   61MOL    O5212172   5.538   7.696   3.527  0.2847 -0.3341 -0.1246
   61MOL    C5312173   5.628   7.591   3.546  0.6558 -0.0955 -1.0044
   61MOL    C5412174   5.579   7.520   3.679 -0.5077 -0.1198  0.3751
   61MOL    C5512175   5.428   7.496   3.672  0.1642  0.1968  0.4782
   61MOL    H5612176   5.724   7.640   3.562  0.4395  0.0231 -0.0388
   61MOL    H5712177   5.629   7.523   3.461  0.0853 -0.4661 -0.7213
   61MOL    H5812178   5.631   7.426   3.700 -2.4095 -0.9692  1.4040
   61MOL    H5912179   5.596   7.589   3.761 -2.4572 -0.8684  1.4442
   61MOL    H6012180   5.401   7.453   3.575  0.9528  2.9553 -0.9866
   61MOL    H6112181   5.378   7.592   3.684 -0.3581  0.0324 -0.3686
   61MOL    O6212182   5.395   7.405   3.775 -0.7463  0.5457  0.1889
   61MOL    C6312183   5.260   7.403   3.797 -0.1143  0.3474 -0.1664
   61MOL    C6412184   5.233   7.284   3.885 -1.0280 -0.3959 -0.3028
   61MOL    C6512185   5.290   7.146   3.838  0.1610 -1.1045 -0.3395
   61MOL    H6612186   5.230   7.364   3.700  1.3568 -1.3889  0.0297
   61MOL    H6712187   5.210   7.495   3.826 -1.8620 -0.3374 -0.9560
   61MOL    H6812188   5.272   7.316   3.982  0.2886  0.0965 -0.9733
   61MOL    H6912189   5.127   7.266   3.903 -0.2548 -2.4016  2.6729
   61MOL    H7012190   5.398   7.141   3.852  0.0626 -5.1525 -0.4696
   61MOL    H7112191   5.278   7.134   3.730  0.5506 -1.5805 -0.3298
   61MOL    O7212192   5.214   7.042   3.904 -0.2788 -0.0141  0.2534
   61MOL    C7312193   5.234   6.917   3.850  0.0480  0.5468  0.7817
   61MOL    C7412194   5.195   6.815   3.961 -0.0279  0.8439 -0.1764
   61MOL    C7512195   5.165   6.678   3.903  1.3454 -0.1017 -0.4040
   61MOL    H7612196   5.331   6.893   3.807 -0.9257 -0.7781 -0.6999
   61MOL    H7712197   5.164   6.906   3.768  1.2582 -0.8827 -0.0909
   61MOL    H7812198   5.271   6.812   4.038 -0.5106  0.0042  0.2666
   61MOL    H7912199   5.108   6.835   4.023 -0.2135  1.7484 -0.7076
   61MOL    H8012200   5.104   6.687   3.813 -1.8963 -0.0737  1.7091
   61MOL    H8112201   5.117   6.622   3.983 -0.0751  0.9780 -0.4727
   61MOL    O8212202   5.276   6.615   3.850  0.0613 -0.1551 -0.9302
   61MOL    C8312203   5.243   6.483   3.808 -0.7469  0.2967  0.1090
   61MOL    C8412204   5.363   6.413   3.731 -0.3809 -0.0977 -0.0267
   61MOL    C8512205   5.482   6.389   3.824 -0.1592  0.6612 -0.0001
   61MOL    H8612206   5.162   6.483   3.736 -0.3505 -0.1602 -0.3424
   61MOL    H8712207   5.213   6.422   3.893  3.3289  0.7581  2.0173
   61MOL    H8812208   5.331   6.318   3.688 -0.4647  0.4164 -1.1158
   61MOL    H8912209   5.399   6.470   3.645  0.7529  2.1714  1.8881
   61MOL    H9012210   5.447   6.331   3.909 -0.3810  0.0091 -0.5398
   61MOL    H9112211   5.519   6.482   3.867 -1.6174  1.0526  0.4239
   61MOL    O9212212   5.587   6.321   3.752  0.8574 -0.6095 -0.0248
   61MOL    C9312213   5.579   6.179   3.762  1.0473  0.0833 -0.7663
   61MOL    C9412214   5.672   6.109   3.657  0.5221  0.1190 -0.3739
   61MOL    C9512215   5.820   6.090   3.696  0.2202  0.2338 -0.4233
   61MOL    H9612216   5.477   6.142   3.761  0.4413  1.6063  1.7534
   61MOL    H9712217   5.622   6.148   3.857 -0.5984  1.3980  0.4165
   61MOL    H9812218   5.621   6.016   3.633 -1.2233  0.8679  0.2803
   61MOL    H9912219   5.666   6.162   3.562 -0.3049 -1.1233 -1.0313
   61MOL   H10012220   5.832   6.005   3.762 -0.4535 -0.7614 -1.5779
   61MOL   H10112221   5.864   6.174   3.752  0.6516 -0.6351  0.5584
   61MOL   O10212222   5.900   6.058   3.588 -0.3143 -0.3000  0.6359
   61MOL   C10312223   5.888   5.921   3.540 -1.0679  0.3009  0.4315
   61MOL   C10412224   5.960   5.912   3.404 -0.3649  0.0511 -0.0498
   61MOL   C10512225   6.117   5.906   3.424 -0.0518 -0.5970 -0.7242
   61MOL   H10612226   5.784   5.890   3.532 -0.8939 -0.2271  0.1507
   61MOL   H10712227   5.922   5.861   3.625 -1.1826  1.4702  1.3220
   61MOL   H10812228   5.924   5.829   3.344  0.9857 -1.1297  0.7338
   61MOL   H10912229   5.931   5.998   3.344  0.6383 -0.4466 -1.2586
   61MOL   H11012230   6.143   5.822   3.488 -1.1038  0.4198  1.0596
   61MOL   H11112231   6.154   5.987   3.487  0.2240 -1.4046  0.1523
   61MOL   O11212232   6.191   5.903   3.301  0.0125 -0.0524 -0.6733
   61MOL   C11312233   6.332   5.865   3.308 -0.5972  0.0475 -0.7069
   61MOL   C11412234   6.423   5.984   3.294  0.3604 -0.1808 -0.1313
   61MOL   C11512235   6.436   6.034   3.146  0.3508  0.4496 -0.4580
   61MOL   H11612236   6.345   5.787   3.234 -0.3626 -1.8123  1.2544
   61MOL   H11712237   6.344   5.823   3.408  0.9047  0.4255 -0.7118
   61MOL   H11812238   6.402   6.065   3.365 -1.8311  0.5337 -1.5259
   61MOL   H11912239   6.516   5.946   3.334  0.4930 -0.1911 -0.4452
   61MOL   H12012240   6.341   6.068   3.104  0.1470  0.4664  0.0070
   61MOL   H12112241   6.471   5.960   3.075 -1.0510 -1.5837  0.9266
   61MOL   O12212242   6.535   6.139   3.150 -0.5721  0.3164  0.1129
   61MOL   C12312243   6.554   6.218   3.031  0.0432 -0.7800  0.4501
   61MOL   C12412244   6.675   6.316   3.043  0.1852 -0.4394 -0.2534
   61MOL   C12512245   6.659   6.429   3.142  0.7279 -0.2765  0.5219
   61MOL   H12612246   6.465   6.279   3.013 -1.3803 -2.7246  0.6967
   61MOL   H12712247   6.569   6.150   2.947  1.5896  0.2180 -0.0929
   61MOL   H12812248   6.771   6.268   3.059  1.0509  1.3933  0.1941
   61MOL   H12912249   6.675   6.375   2.952  0.1804  0.8088  0.5333
   61MOL   H13012250   6.650   6.384   3.241  2.5797 -1.6188  0.1020
   61MOL   H13112251   6.561   6.477   3.134  1.4353  0.8546 -2.0870
   61MOL   O13212252   6.765   6.524   3.129  0.4443  0.3032  0.4289
   61MOL   C13312253   6.748   6.624   3.227 -0.3249 -0.0713  0.0693
   61MOL   C13412254   6.856   6.733   3.195  0.4647  0.0356  0.2782
   61MOL   C13512255   6.876   6.836   3.306  1.0474  0.3925 -0.0062
   61MOL   H13612256   6.765   6.577   3.324  1.4850 -1.4126 -0.8773
   61MOL   H13712257   6.648   6.668   3.225 -1.1251 -1.7888  1.0765
   61MOL   H13812258   6.943   6.668   3.189 -0.1272 -0.6499 -1.2428
   61MOL   H13912259   6.839   6.776   3.096  1.6714  0.3633  0.2056
   61MOL   H14012260   6.949   6.912   3.277 -0.3721  0.2197 -4.3716
   61MOL   H14112261   6.914   6.781   3.392 -0.5130  2.2184  1.8812
   61MOL   O14212262   6.753   6.907   3.325 -0.1231  0.4595  0.2048
   61MOL   C14312263   6.724   6.942   3.463 -0.0539 -0.7413  0.4110
   61MOL   C14412264   6.584   6.979   3.492  0.1793 -0.1494  0.7140
   61MOL   C14512265   6.499   6.858   3.446 -0.0804  0.1962  0.3459
   61MOL   H14612266   6.798   7.010   3.506 -0.9786 -0.7810  2.0973
   61MOL   H14712267   6.747   6.863   3.533  1.4000 -0.9198 -0.2476
   61MOL   H14812268   6.576   6.998   3.600  1.3293 -1.7960  1.1022
   61MOL   H14912269   6.552   7.071   3.443 -0.6794  0.2632  2.0214
   61MOL   H15012270   6.537   6.768   3.493 -0.2205  1.2103  2.4533
   61MOL   H15112271   6.500   6.834   3.339  1.6740 -1.0990  0.6362
   61MOL   O15212272   6.358   6.882   3.474 -0.6068 -0.0393  0.0930
   61MOL   C15312273   6.269   6.791   3.424  0.4596 -0.2437 -0.7103
   61MOL   C15412274   6.126   6.836   3.461  0.3811  0.3102 -0.6434
   61MOL   C15512275   6.101   6.836   3.613 -0.9143 -0.1154  0.2281
   61MOL   H15612276   6.293   6.700   3.478 -1.1926 -0.5230 -0.4175
   61MOL   H15712277   6.288   6.785   3.317 -1.2818  1.2039 -1.1430
   61MOL   H15812278   6.119   6.934   3.414 -0.6629  0.0234 -1.1198
   61MOL   H15912279   6.053   6.767   3.417 -1.5059  1.4224  0.6605
   61MOL   H16012280   6.162   6.912   3.661 -1.0297 -0.5534  1.0931
   61MOL   H16112281   6.126   6.743   3.665 -1.3563 -0.1509  0.3811
   61MOL   O16212282   5.963   6.865   3.629 -0.0642  0.1075 -0.2140
   61MOL   C16312283   5.937   6.839   3.766 -0.0125 -0.0826  0.2507
   61MOL   C16412284   5.785   6.806   3.759  0.4276  0.2172 -0.1644
   61MOL   C16512285   5.727   6.773   3.898  0.3223  0.0099  0.0468
   61MOL   H16612286   5.952   6.925   3.831  2.7114 -0.7046  0.5045
   61MOL   H16712287   5.992   6.759   3.816  0.1833 -0.8315 -1.1324
   61MOL   H16812288   5.718   6.872   3.704  0.4376 -1.6923 -2.5704
   61MOL   H16912289   5.783   6.716   3.698 -0.4281  1.4648 -2.0031
   61MOL   H17012290   5.778   6.691   3.948 -1.2769 -0.4778  0.8884
   61MOL   H17112291   5.622   6.752   3.880  0.6518 -0.7598 -1.0280
   61MOL   O17212292   5.756   6.876   3.986  0.2587  0.3820 -0.3541
   61MOL   C17312293   5.653   6.974   3.981 -0.1578 -0.6574 -0.0798
   61MOL   C17412294   5.680   7.104   4.061  0.0797 -0.5385 -0.2180
   61MOL   C17512295   5.590   7.222   4.041 -0.5333  0.0930 -0.0761
   61MOL   H17612296   5.556   6.934   4.009 -0.2717 -0.9889 -0.9368
   61MOL   H17712297   5.632   7.004   3.879  0.7217 -0.4057 -0.1935
   61MOL   H17812298   5.669   7.076   4.166  1.2877 -1.4010 -0.3058
   61MOL   H17912299   5.784   7.136   4.053 -0.0802  0.1784  0.5262
   61MOL   H18012300   5.487   7.192   4.061 -0.2713 -0.1067  0.9884
   61MOL   H18112301   5.602   7.248   3.936  0.7855 -0.7435 -0.1390
   61MOL   O18212302   5.623   7.329   4.123  0.4053 -0.6566  0.0395
   61MOL   C18312303   5.522   7.428   4.118  0.2005  0.1608  0.1226
   61MOL   C18412304   5.552   7.541   4.218 -0.1112  0.5539 -0.0895
   61MOL   C18512305   5.476   7.675   4.211  0.2697  0.4278 -0.0956
   61MOL   H18612306   5.420   7.396   4.141  0.1883  1.1019  1.4555
   61MOL   H18712307   5.510   7.447   4.012  0.7288 -2.3405 -0.4163
   61MOL   H18812308   5.534   7.498   4.316 -4.1749  2.5055  0.1452
   61MOL   H18912309   5.660   7.555   4.216 -0.1439  0.8340  0.1071
   61MOL   H19012310   5.372   7.661   4.241  0.8732  2.7394  3.3144
   61MOL   H19112311   5.483   7.704   4.106 -1.5560  1.1565 -0.0483
   61MOL   O19212312   5.542   7.776   4.294 -0.1390 -0.2999 -0.0958
   61MOL   C19312313   5.508   0.122   4.254 -0.5518 -0.5780  0.6836
   61MOL   C19412314   5.562   0.232   4.346 -0.0926  0.0628  0.3061
   61MOL   C19512315   5.524   0.372   4.305 -0.5159 -0.4316  0.3185
   61MOL   H19612316   5.400   0.123   4.238 -0.4797 -1.3759  0.1140
   61MOL   H19712317   5.542   0.143   4.153 -2.8085 -2.4630 -0.5356
   61MOL   H19812318   5.511   0.199   4.437 -0.5090 -1.0293 -0.3123
   61MOL   H19912319   5.670   0.226   4.363  0.0268 -1.9668 -1.0207
   61MOL   H20012320   5.607   0.415   4.249 -1.6542  0.7909 -0.4713
   61MOL   H20112321   5.515   0.432   4.395  2.0341  0.1678  0.2169
   61MOL   H20212322   5.428   0.382   4.255 -0.4408 -2.9418 -0.4013
   62MOL     O112323   7.265   4.829   1.047 -0.2071  0.0046  0.1875
   62MOL     C212324   7.283   4.895   0.930 -0.5792 -0.1607  0.0143
   62MOL     C312325   7.430   4.923   0.909  0.1012 -0.6206 -0.7779
   62MOL     C412326   7.459   4.970   0.766  0.8664  0.4682 -0.2255
   62MOL     H512327   7.214   4.977   0.945 -1.6931 -1.7754  4.2904
   62MOL     H612328   7.244   4.834   0.848  0.7605 -0.4510 -0.4145
   62MOL     H712329   7.470   4.993   0.983  0.2015 -1.3664 -0.1260
   62MOL     H812330   7.487   4.830   0.918  0.2355 -0.6339 -1.7102
   62MOL     H912331   7.382   5.046   0.753 -2.5789 -2.7320  0.6777
   62MOL    H1012332   7.437   4.893   0.692  0.1944 -0.1495  0.6108
   62MOL    H1112333   7.201   4.760   1.042 -0.2187  0.0477 -0.3331
   62MOL    O1212334   7.593   5.015   0.760  0.1632  0.4470  0.3883
   62MOL    C1312335   7.610   5.148   0.799  0.1431  1.1434  0.4660
   62MOL    C1412336   7.755   5.197   0.782  0.3896  0.0742  0.2499
   62MOL    C1512337   7.777   5.263   0.639 -0.1057 -0.0359  0.3736
   62MOL    H1612338   7.580   5.163   0.903 -1.1517 -0.0390  0.2770
   62MOL    H1712339   7.537   5.209   0.746  0.1856  2.4132  1.8503
   62MOL    H1812340   7.771   5.269   0.862 -0.4018  1.8899 -1.1873
   62MOL    H1912341   0.048   5.126   0.797 -0.0358 -0.7894 -1.3752
   62MOL    H2012342   7.747   5.188   0.566  0.4798 -1.7907  1.8955
   62MOL    H2112343   0.094   5.282   0.618 -0.2685 -1.5773 -2.0120
   62MOL    O2212344   7.696   5.377   0.630 -0.2850  0.4908  0.0171
   62MOL    C2312345   7.722   5.448   0.511  0.3821  0.2537  0.3662
   62MOL    C2412346   7.612   5.547   0.479  0.1609 -0.2794  0.2686
   62MOL    C2512347   7.620   5.604   0.336 -0.2059  0.2120 -0.8175
   62MOL    H2612348   7.728   5.374   0.432 -0.6097 -0.1746  0.6834
   62MOL    H2712349   0.037   5.483   0.505  1.9635 -4.2862 -0.5269
   62MOL    H2812350   7.523   5.485   0.479  0.0160 -0.0737  0.3028
   62MOL    H2912351   7.608   5.627   0.553  0.1881  0.3308 -0.3796
   62MOL    H3012352   7.519   5.644   0.328  0.7902  2.9094 -0.3472
   62MOL    H3112353   7.635   5.523   0.265  1.0364 -3.4827  3.3679
   62MOL    O3212354   7.728   5.702   0.322 -0.0105 -0.1857  0.4089
   62MOL    C3312355   7.685   5.818   0.251 -0.2907  0.0718 -0.1903
   62MOL    C3412356   0.001   5.934   0.242 -0.2936 -0.0395 -0.0753
   62MOL    C3512357   0.122   5.908   0.159 -0.1340  0.0964 -0.6191
   62MOL    H3612358   7.597   5.858   0.300  0.4156  1.3589  0.0458
   62MOL    H3712359   7.649   5.795   0.151 -0.1342  1.3597 -0.5529
   62MOL    H3812360   7.742   6.020   0.195  0.4848  1.7067  2.2447
   62MOL    H3912361   0.028   5.963   0.344  0.9211 -3.0421  0.4920
   62MOL    H4012362   0.083   5.858   0.070  1.5533 -2.3659 -0.0247
   62MOL    H4112363   0.200   5.856   0.214 -0.7486 -0.7594 -0.5405
   62MOL    O4212364   0.168   6.038   0.131 -0.0232  0.3570 -0.1129
   62MOL    C4312365   0.220   6.053   0.005  0.2239  0.2062  0.5153
   62MOL    C4412366   0.239   6.201   7.751 -0.3675 -0.5180  0.9556
   62MOL    C4512367   0.362   6.271   0.028  0.8231 -0.5671  0.4500
   62MOL    H4612368   0.157   6.012   7.715  0.1984  0.6877  0.2842
   62MOL    H4712369   0.312   5.995   0.012  0.4961  0.4624 -0.9000
   62MOL    H4812370   0.255   6.208   7.644 -0.8091 -0.3554  0.9000
   62MOL    H4912371   0.149   6.261   7.767  1.8946  2.9102  1.3942
   62MOL    H5012372   0.360   6.259   0.137 -1.9855  2.6527  0.8516
   62MOL    H5112373   0.374   6.378   0.009 -1.5896 -0.4033 -0.3566
   62MOL    O5212374   0.468   6.193   7.768 -0.4206 -0.0482  0.4024
   62MOL    C5312375   0.592   6.235   0.045  0.0301  0.2953  0.0581
   62MOL    C5412376   0.721   6.172   7.766 -0.0450  0.9319  0.2903
   62MOL    C5512377   0.853   6.225   0.021 -0.4762  0.0801  0.6089
   62MOL    H5612378   0.588   6.187   0.143 -1.2036  1.4322  0.5797
   62MOL    H5712379   0.607   6.341   0.068  0.3417  0.3632 -0.4541
   62MOL    H5812380   0.712   6.065   7.786 -0.5634  1.1545  1.2801
   62MOL    H5912381   0.728   6.183   7.657  0.4411  0.0808  0.2322
   62MOL    H6012382   0.863   6.332   0.001  1.0239  0.2824  2.3181
   62MOL    H6112383   0.933   6.180   7.749  0.6428 -0.1249  2.2110
   62MOL    O6212384   0.866   6.201   0.162 -0.4433  0.1216 -0.0075
   62MOL    C6312385   0.986   6.259   0.209 -0.1035  0.1565 -0.0066
   62MOL    C6412386   1.005   6.247   0.361  0.6744 -0.0193 -0.0687
   62MOL    C6512387   0.995   6.103   0.400  0.7100  0.7611 -0.0063
   62MOL    H6612388   0.973   6.366   0.195 -1.7401 -0.1185 -0.7726
   62MOL    H6712389   1.069   6.221   0.149 -1.8765 -1.6046 -1.4347
   62MOL    H6812390   1.106   6.286   0.373  0.6010 -0.1730  1.0558
   62MOL    H6912391   0.935   6.310   0.415 -0.4889 -0.3821 -1.1290
   62MOL    H7012392   1.083   6.048   0.367  1.1808  2.2191 -1.2222
   62MOL    H7112393   0.906   6.061   0.352  0.1480  0.8405  0.9518
   62MOL    O7212394   0.965   6.093   0.539 -0.0087  0.1950  0.1053
   62MOL    C7312395   0.975   5.962   0.593  0.6617 -0.4395  0.5399
   62MOL    C7412396   0.905   5.950   0.730  0.1197 -0.1930  0.0988
   62MOL    C7512397   0.753   5.931   0.709  0.0384  0.2655 -0.2336
   62MOL    H7612398   1.081   5.942   0.609  0.9248  0.7448  0.2546
   62MOL    H7712399   0.936   5.883   0.528 -1.7420  1.8902 -0.9165
   62MOL    H7812400   0.953   5.863   0.777 -1.5677 -1.5276 -0.5854
   62MOL    H7912401   0.926   6.044   0.780 -3.3422  1.7311 -1.9358
   62MOL    H8012402   0.738   5.827   0.680  1.2335 -0.2532  0.9036
   62MOL    H8112403   0.722   6.003   0.634  2.2671 -1.0285 -2.4798
   62MOL    O8212404   0.693   5.947   0.842  0.6941 -0.2551  0.4598
   62MOL    C8312405   0.554   5.977   0.821  0.1061  0.2294  0.3779
   62MOL    C8412406   0.492   6.012   0.963  0.1240  0.4462  0.6495
   62MOL    C8512407   0.350   6.053   0.928 -0.3469  0.6090 -0.0050
   62MOL    H8612408   0.513   5.888   0.774 -2.5400  1.5124  0.1431
   62MOL    H8712409   0.548   6.053   0.743  1.4196  0.1141  0.1516
   62MOL    H8812410   0.501   5.921   1.023  3.3446  1.3438  1.6318
   62MOL    H8912411   0.545   6.090   1.016  3.6981 -1.0855 -0.4870
   62MOL    H9012412   0.299   5.975   0.873  2.3052 -1.7957  0.8289
   62MOL    H9112413   0.350   6.143   0.866  0.4871  1.7164  1.5545
   62MOL    O9212414   0.261   6.075   1.038  0.3053  0.0745  0.5726
   62MOL    C9312415   0.136   6.124   0.999  0.2143 -0.0254 -0.1590
   62MOL    C9412416   0.058   6.124   1.136 -0.0593  0.0911  0.1426
   62MOL    C9512417   7.720   6.190   1.122  0.2500  0.0609 -0.2808
   62MOL    H9612418   0.082   6.066   0.924 -0.3510  1.1157 -0.6494
   62MOL    H9712419   0.150   6.223   0.955 -0.0386  0.3174  0.5276
   62MOL    H9812420   0.053   6.019   1.167  1.1203 -0.1782 -0.5329
   62MOL    H9912421   0.103   6.186   1.213 -0.0578 -1.2151  1.2233
   62MOL   H10012422   7.713   6.270   1.048 -0.6268  0.4210  0.1865
   62MOL   H10112423   7.693   6.235   1.217 -2.4230 -2.1282  0.0539
   62MOL   O10212424   7.614   6.112   1.073 -0.2932  0.2860 -0.4148
   62MOL   C10312425   7.517   6.078   1.169  0.1612 -0.1693 -0.5017
   62MOL   C10412426   7.412   6.001   1.086 -0.5225  0.0625  0.0961
   62MOL   C10512427   7.273   6.009   1.151  0.1345 -0.4221  0.0242
   62MOL   H10612428   7.478   6.173   1.206  2.6479  0.3912  0.7154
   62MOL   H10712429   7.574   6.022   1.242 -0.2291 -1.5383 -1.2253
   62MOL   H10812430   7.404   6.055   0.992  1.4816  1.1255  0.5085
   62MOL   H10912431   7.432   5.898   1.057 -1.6439 -0.2548  0.4121
   62MOL   H11012432   7.194   5.993   1.079 -1.6207  1.8422  1.3868
   62MOL   H11112433   7.254   6.108   1.192  1.6501  0.2267 -0.7735
   62MOL   O11212434   7.270   5.916   1.264  0.3957  0.7432  0.3016
   62MOL   C11312435   7.166   5.937   1.362 -0.2720 -0.1768 -0.3731
   62MOL   C11412436   7.026   5.920   1.302 -0.7098  0.0177 -0.3284
   62MOL   C11512437   6.913   5.930   1.409  0.1276  0.2262 -0.3148
   62MOL   H11612438   7.176   6.033   1.413 -0.2670 -0.6649  0.5520
   62MOL   H11712439   7.181   5.862   1.439  0.0715 -0.5237 -0.7767
   62MOL   H11812440   7.019   5.994   1.222  2.1105 -1.1828 -1.7930
   62MOL   H11912441   7.012   5.820   1.260 -0.9172 -0.3855  0.6944
   62MOL   H12012442   6.821   5.955   1.355  0.9017 -0.2377 -1.8784
   62MOL   H12112443   6.932   6.010   1.481  0.7580 -1.6209  1.6003
   62MOL   O12212444   6.893   5.815   1.489  0.8030  0.1643 -0.2461
   62MOL   C12312445   6.800   5.824   1.602 -1.1159 -0.5271  0.4428
   62MOL   C12412446   6.782   5.685   1.651 -0.1925  0.0730  0.0980
   62MOL   C12512447   6.690   5.594   1.567 -0.0840  0.5815  0.5498
   62MOL   H12612448   6.701   5.855   1.568 -0.1258  0.7832 -1.3443
   62MOL   H12712449   6.828   5.889   1.684  2.0892  1.0355 -1.7658
   62MOL   H12812450   6.874   5.630   1.672 -1.0544 -1.9347 -1.2378
   62MOL   H12912451   6.729   5.702   1.745 -1.3817  1.3544 -0.7716
   62MOL   H13012452   6.716   5.576   1.462 -1.1672  0.8273  0.2364
   62MOL   H13112453   6.586   5.618   1.584 -0.9405 -0.8532 -2.3919
   62MOL   O13212454   6.696   5.464   1.625 -0.0326  0.5961  0.0316
   62MOL   C13312455   6.614   5.370   1.569 -0.6536  0.5962  0.8601
   62MOL   C13412456   6.630   5.237   1.637  0.8655 -0.4405  0.0743
   62MOL   C13512457   6.774   5.184   1.658  0.0820 -0.1978 -0.5027
   62MOL   H13612458   6.643   5.350   1.465  1.6253 -1.1133  1.7756
   62MOL   H13712459   6.513   5.410   1.576 -0.5871  0.7259  1.0640
   62MOL   H13812460   6.591   5.249   1.738 -0.0597 -0.0580 -0.3292
   62MOL   H13912461   6.568   5.163   1.587 -1.0986  0.0144  1.7734
   62MOL   H14012462   6.826   5.251   1.727 -1.7045  1.9754 -1.2262
   62MOL   H14112463   6.823   5.181   1.561  3.1379 -2.8031  1.0061
   62MOL   O14212464   6.773   5.048   1.702  0.5751  0.0414  0.1639
   62MOL   C14312465   6.894   5.003   1.762  0.0917  0.0886  0.1907
   62MOL   C14412466   6.884   4.852   1.811  0.1665 -0.2909  0.2761
   62MOL   C14512467   7.018   4.791   1.857 -0.1384  0.1391 -0.2842
   62MOL   H14612468   6.909   5.055   1.857 -0.8846 -0.5411  0.6897
   62MOL   H14712469   6.984   5.018   1.702 -1.2913 -0.5956 -2.1165
   62MOL   H14812470   6.811   4.833   1.889  0.4825 -2.8459 -0.0087
   62MOL   H14912471   6.860   4.789   1.726  0.1326 -2.3738  1.7722
   62MOL   H15012472   7.056   4.846   1.943 -0.7005  1.4794 -0.8797
   62MOL   H15112473   7.098   4.799   1.783 -0.3937  0.2371 -0.5484
   62MOL   O15212474   6.993   4.666   1.916  0.7677  0.1251 -0.3701
   62MOL   C15312475   7.118   4.613   1.969 -0.5993 -0.2362 -0.4105
   62MOL   C15412476   7.088   4.477   2.042  0.0486  0.1261 -0.0014
   62MOL   C15512477   7.212   4.431   2.109  0.5812 -0.5772 -0.1849
   62MOL   H15612478   7.176   4.675   2.038 -1.3149  2.0510 -1.8063
   62MOL   H15712479   7.186   4.587   1.888  1.0149  1.4698  0.3481
   62MOL   H15812480   7.006   4.485   2.112 -1.3695 -1.1422 -1.4574
   62MOL   H15912481   7.066   4.397   1.971 -0.5337  0.3319 -0.0510
   62MOL   H16012482   7.251   4.504   2.180 -0.6350 -0.1893  0.0998
   62MOL   H16112483   7.290   4.424   2.034 -1.9260  0.8245 -3.0197
   62MOL   O16212484   7.194   4.309   2.176 -0.4220 -0.3918 -0.0926
   62MOL   C16312485   7.301   4.265   2.255 -0.2046  0.8526  0.5163
   62MOL   C16412486   7.258   4.144   2.331  0.2421 -0.0752  0.6303
   62MOL   C16512487   7.228   4.021   2.248 -0.9295 -0.1676  0.2195
   62MOL   H16612488   7.331   4.342   2.326  0.3177 -0.2528  1.5151
   62MOL   H16712489   7.383   4.231   2.192 -0.9071 -3.1046  1.5784
   62MOL   H16812490   7.331   4.116   2.407  0.1336  0.6464  1.0052
   62MOL   H16912491   7.166   4.169   2.385 -1.9167 -2.3496 -1.8527
   62MOL   H17012492   7.322   3.991   2.202 -1.2643 -1.2593  0.2221
   62MOL   H17112493   7.162   4.053   2.167  0.8126  0.3369 -1.0274
   62MOL   O17212494   7.176   3.907   2.318 -0.3051  0.7339 -0.3238
   62MOL   C17312495   7.123   3.817   2.223  0.2694  0.5286 -0.5683
   62MOL   C17412496   7.088   3.678   2.282 -0.3843  0.0953 -0.0965
   62MOL   C17512497   6.972   3.683   2.382  0.7975  0.0122 -0.3074
   62MOL   H17612498   7.191   3.814   2.138 -0.8283 -0.1502 -1.4364
   62MOL   H17712499   7.029   3.863   2.192 -0.5919 -1.7387 -1.4353
   62MOL   H17812500   7.062   3.614   2.197 -0.0463 -0.6249  0.3360
   62MOL   H17912501   7.173   3.635   2.335 -0.3865  2.4746  1.9096
   62MOL   H18012502   6.985   3.762   2.457  0.5605 -0.1254 -0.1173
   62MOL   H18112503   6.984   3.586   2.431  0.3768  0.7814  1.3665
   62MOL   O18212504   6.850   3.694   2.306 -0.1228 -0.2913 -0.0098
   62MOL   C18312505   6.738   3.705   2.398 -0.3847 -0.1927  0.1983
   62MOL   C18412506   6.606   3.656   2.327  0.6354  0.6383  0.0908
   62MOL   C18512507   6.503   3.611   2.425  0.7393 -0.9917  0.0323
   62MOL   H18612508   6.725   3.810   2.425  3.0117  0.9988 -2.5475
   62MOL   H18712509   6.759   3.639   2.483  0.4781  0.7690  0.7448
   62MOL   H18812510   6.566   3.733   2.261 -1.2129 -1.1509 -0.9391
   62MOL   H18912511   6.628   3.566   2.270 -0.2773  0.6485 -0.2900
   62MOL   H19012512   6.455   3.695   2.474  1.8736  0.4570 -1.2721
   62MOL   H19112513   6.544   3.536   2.493 -1.8277 -1.4452  1.1046
   62MOL   O19212514   6.398   3.541   2.355  0.0132 -0.3859 -0.6957
   62MOL   C19312515   6.289   3.492   2.438 -0.3994  0.0952  0.4025
   62MOL   C19412516   6.186   3.418   2.354 -0.4060 -0.2811 -0.7508
   62MOL   C19512517   6.100   3.320   2.450  0.4214 -1.1125 -0.1145
   62MOL   H19612518   6.234   3.564   2.499 -2.0537 -1.6377  0.9872
   62MOL   H19712519   6.328   3.423   2.514  0.1360 -0.9493 -0.8024
   62MOL   H19812520   6.130   3.495   2.301  0.2606  0.3775 -0.5075
   62MOL   H19912521   6.249   3.354   2.293  3.0391  0.7236  1.5783
   62MOL   H20012522   6.031   3.376   2.514 -0.2115  1.7464 -3.1898
   62MOL   H20112523   6.172   3.267   2.513  0.6487  1.5307  1.9254
   62MOL   H20212524   6.042   3.254   2.385 -0.2709 -0.1638 -0.4728
   63MOL     O112525   6.536   3.108   6.970 -0.5187 -0.5736 -0.5821
   63MOL     C212526   6.500   2.982   7.023 -0.5867 -0.0367  0.5254
   63MOL     C312527   6.553   2.874   6.923  0.3059 -0.1420  0.7146
   63MOL     C412528   6.489   2.746   6.943  0.0948  0.4455  0.8374
   63MOL     H512529   6.395   2.978   7.049 -1.0147 -2.3660 -1.3896
   63MOL     H612530   6.547   2.957   7.118  1.5951  1.1853 -0.1765
   63MOL     H712531   6.523   2.910   6.825  0.4094  0.3259  0.8491
   63MOL     H812532   6.662   2.876   6.934  0.3860 -0.7273  0.0217
   63MOL     H912533   6.381   2.758   6.951  0.0893 -0.1796  1.7251
   63MOL    H1012534   6.518   2.701   7.038  0.5826  0.6724  0.7975
   63MOL    H1112535   6.474   3.165   7.013 -1.7389 -2.1264 -0.2393
   63MOL    O1212536   6.531   2.654   6.842  0.6997  0.2931  0.7033
   63MOL    C1312537   6.473   2.529   6.855 -0.5876 -1.0074  0.2386
   63MOL    C1412538   6.450   2.466   6.719  0.6541  0.2453  0.3457
   63MOL    C1512539   6.447   2.312   6.719  0.1209  0.2975  0.7880
   63MOL    H1612540   6.378   2.534   6.909 -0.4326 -2.9267  0.7384
   63MOL    H1712541   6.545   2.469   6.911  1.3005  1.2027  0.2328
   63MOL    H1812542   6.355   2.506   6.683  0.0592 -0.6754  0.8810
   63MOL    H1912543   6.530   2.490   6.649  0.8728 -2.1837 -0.2782
   63MOL    H2012544   6.362   2.280   6.780  0.9260  0.1139  1.8197
   63MOL    H2112545   6.525   2.263   6.776  0.4831  1.5833  1.3996
   63MOL    O2212546   6.424   2.264   6.590  0.3654 -0.2317 -0.0714
   63MOL    C2312547   6.403   2.124   6.588 -0.1378  0.3744  0.4990
   63MOL    C2412548   6.380   2.089   6.438 -0.1638 -0.2828 -0.0391
   63MOL    C2512549   6.344   1.942   6.438  1.4496  0.6788  0.7712
   63MOL    H2612550   6.327   2.088   6.658 -0.4924 -1.6932 -0.8875
   63MOL    H2712551   6.483   2.065   6.633 -0.9618 -3.3718 -2.6679
   63MOL    H2812552   6.311   2.153   6.384  0.2853 -0.6281 -1.0351
   63MOL    H2912553   6.471   2.121   6.388  0.6891 -1.9042  0.4207
   63MOL    H3012554   6.320   1.906   6.339 -2.0296 -1.7029  2.3841
   63MOL    H3112555   6.252   1.927   6.494  1.3468 -0.7629  0.2216
   63MOL    O3212556   6.440   1.848   6.489 -0.8314  0.1872  0.3009
   63MOL    C3312557   6.550   1.817   6.405 -0.1774  0.2110  0.0340
   63MOL    C3412558   6.682   1.888   6.439  0.2788  0.3592 -0.8909
   63MOL    C3512559   6.785   1.868   6.335 -0.3638 -0.0883 -0.0220
   63MOL    H3612560   6.534   1.830   6.298 -0.8119  1.6376  0.2881
   63MOL    H3712561   6.564   1.711   6.423  0.0798  0.2923  0.3336
   63MOL    H3812562   6.658   1.993   6.452 -2.0544 -0.4451  1.7014
   63MOL    H3912563   6.717   1.853   6.536  1.2002  0.7212 -1.0784
   63MOL    H4012564   6.737   1.902   6.243 -0.4840 -0.9416 -0.2795
   63MOL    H4112565   6.814   1.762   6.332  3.0910  0.8197 -1.2005
   63MOL    O4212566   6.904   1.946   6.353 -0.0397  0.6473  1.0980
   63MOL    C4312567   7.007   1.910   6.261 -0.2338  0.3988 -0.2898
   63MOL    C4412568   7.122   2.022   6.274 -0.3750  0.2525  0.0796
   63MOL    C4512569   7.088   2.146   6.198 -0.0438  0.2113 -0.1407
   63MOL    H4612570   6.960   1.896   6.164  1.6513  1.1388 -1.3366
   63MOL    H4712571   7.053   1.819   6.300  0.5500  1.6788  1.8607
   63MOL    H4812572   7.138   2.042   6.380 -0.9156  1.7354 -0.1040
   63MOL    H4912573   7.219   1.990   6.235 -0.4704  1.4228 -1.1473
   63MOL    H5012574   7.006   2.182   6.261 -0.3570  0.3509 -0.6182
   63MOL    H5112575   7.045   2.125   6.100 -0.0423  1.2116 -0.3632
   63MOL    O5212576   7.198   2.234   6.191  0.4958  0.3415 -0.0378
   63MOL    C5312577   7.169   2.369   6.159 -0.4643  0.1024  0.3695
   63MOL    C5412578   7.262   2.477   6.216 -0.4653 -0.1561  0.5045
   63MOL    C5512579   7.283   2.453   6.373  0.1220  0.1148 -0.1904
   63MOL    H5612580   7.072   2.392   6.204 -0.4222 -1.5126  1.3407
   63MOL    H5712581   7.156   2.370   6.051 -0.4577  1.2552  0.3825
   63MOL    H5812582   7.360   2.470   6.170 -0.6132  0.0519  0.1570
   63MOL    H5912583   7.229   2.578   6.191 -1.7947 -1.0177 -1.4139
   63MOL    H6012584   7.334   2.359   6.390  0.9017  0.7073  0.7627
   63MOL    H6112585   7.190   2.451   6.430 -0.4078 -2.4165 -1.0560
   63MOL    O6212586   7.358   2.563   6.419 -1.2293  0.8814 -0.3237
   63MOL    C6312587   7.497   2.557   6.386  0.8113 -0.0415 -0.1208
   63MOL    C6412588   7.575   2.665   6.467  0.5622  0.2812  0.9866
   63MOL    C6512589   7.722   2.665   6.413  0.0889 -0.0709 -0.2108
   63MOL    H6612590   7.506   2.572   6.278 -1.7704  1.7049 -0.1256
   63MOL    H6712591   7.540   2.458   6.403 -0.3443 -0.3277  1.2351
   63MOL    H6812592   7.528   2.761   6.448  2.4824  0.8622 -0.9637
   63MOL    H6912593   7.566   2.644   6.574  0.1238 -0.1954  0.8574
   63MOL    H7012594   7.765   2.745   6.474  1.2795 -0.1247 -0.9674
   63MOL    H7112595   7.723   2.689   6.306  1.8977  1.5695  0.1339
   63MOL    O7212596   0.017   2.554   6.430 -0.5565  0.1311  0.3884
   63MOL    C7312597   0.008   2.474   6.551 -0.1967  0.0586  0.5972
   63MOL    C7412598   0.118   2.363   6.539  0.2945  0.2314  0.8516
   63MOL    C7512599   0.115   2.247   6.635  0.6833  0.1334  0.4214
   63MOL    H7612600   7.699   2.427   6.557  0.0349 -0.3424  1.2754
   63MOL    H7712601   0.013   2.535   6.642 -3.2963  2.1182 -0.4994
   63MOL    H7812602   0.123   2.335   6.434 -0.1617  1.1784  0.5709
   63MOL    H7912603   0.210   2.420   6.553  0.0855  0.3824  1.6449
   63MOL    H8012604   0.112   2.270   6.741 -1.4359 -0.3483  0.4931
   63MOL    H8112605   0.203   2.186   6.616  0.5918  0.3089 -0.5949
   63MOL    O8212606   7.787   2.165   6.608 -0.4631  0.0927 -0.1261
   63MOL    C8312607   7.763   2.068   6.703  0.5622  0.4275 -0.0233
   63MOL    C8412608   7.698   1.953   6.622  0.0834 -0.0677 -0.1030
   63MOL    C8512609   7.684   1.818   6.695 -0.3472 -0.6973  0.1575
   63MOL    H8612610   7.694   2.089   6.785  3.2824  2.5085  1.8260
   63MOL    H8712611   0.063   2.023   6.748 -0.6973 -0.9606  1.1015
   63MOL    H8812612   7.594   1.970   6.593  0.0586  0.3946  0.2566
   63MOL    H8912613   7.738   1.925   6.525  0.9139 -1.3805  0.5973
   63MOL    H9012614   7.618   1.837   6.780 -0.3363 -1.9637  0.4665
   63MOL    H9112615   7.779   1.796   6.744  0.1590  0.2118 -0.4039
   63MOL    O9212616   7.629   1.713   6.614 -0.0120 -0.1599  0.4519
   63MOL    C9312617   7.609   1.597   6.694  0.1128  0.3230 -0.2119
   63MOL    C9412618   7.554   1.476   6.613  0.1249  0.3988  0.0377
   63MOL    C9512619   7.533   1.347   6.699  0.1444  0.1366  0.3186
   63MOL    H9612620   7.533   1.633   6.763 -1.4899 -3.6003  0.2124
   63MOL    H9712621   7.691   1.573   6.762 -0.7900  0.4586  0.9438
   63MOL    H9812622   7.460   1.499   6.562  0.8955  1.3778 -0.9624
   63MOL    H9912623   7.632   1.451   6.541 -0.8325  0.0054 -0.8872
   63MOL   H10012624   7.468   1.381   6.780 -3.3225 -2.1591 -1.3879
   63MOL   H10112625   7.631   1.307   6.723  0.4009  1.8538  2.2705
   63MOL   O10212626   7.464   1.245   6.624  0.5598  0.2667  0.1308
   63MOL   C10312627   7.464   1.127   6.698 -0.0366 -0.6045 -0.2272
   63MOL   C10412628   7.401   1.017   6.606  0.1579 -0.2819  0.4724
   63MOL   C10512629   7.462   0.999   6.466 -0.5821  0.1646  0.3807
   63MOL   H10612630   7.409   1.148   6.790 -0.0970  1.3850 -0.7007
   63MOL   H10712631   7.564   1.100   6.731 -0.0681 -1.0740 -0.4997
   63MOL   H10812632   7.392   0.923   6.661 -0.6029  0.3103  1.3773
   63MOL   H10912633   7.299   1.047   6.584 -0.2737 -2.3008 -0.3727
   63MOL   H11012634   7.570   0.992   6.479 -0.4549 -0.8982 -1.1777
   63MOL   H11112635   7.439   1.081   6.398 -0.6917  0.0824  0.3194
   63MOL   O11212636   7.414   0.873   6.421  0.0018  0.3421  0.2371
   63MOL   C11312637   7.452   0.833   6.289 -0.1765  0.4584 -0.0408
   63MOL   C11412638   7.406   0.692   6.270  0.1821 -0.0378  0.3388
   63MOL   C11512639   7.415   0.641   6.127  0.0014 -0.1735 -0.1983
   63MOL   H11612640   7.560   0.833   6.274 -0.0354 -1.4994  0.8312
   63MOL   H11712641   7.395   0.895   6.219  0.8270  0.3003 -1.0031
   63MOL   H11812642   7.459   0.623   6.336 -0.7062 -0.0893  1.0074
   63MOL   H11912643   7.305   0.677   6.307  0.2175 -0.8398  0.1228
   63MOL   H12012644   7.515   0.639   6.083 -0.4990 -4.0140 -1.3562
   63MOL   H12112645   7.353   0.706   6.065  0.1280  1.4428  1.3330
   63MOL   O12212646   7.359   0.511   6.116 -0.2244  0.1075  0.2572
   63MOL   C12312647   7.390   0.444   5.992  1.0560 -0.8358 -0.3842
   63MOL   C12412648   7.362   0.290   5.997  0.1472  0.0605 -0.0468
   63MOL   C12512649   7.404   0.229   5.862 -0.0769  0.8881 -0.2347
   63MOL   H12612650   7.492   0.463   5.958  0.7306  0.2349 -0.7678
   63MOL   H12712651   7.323   0.492   5.921  0.9876  2.0888  1.5767
   63MOL   H12812652   7.422   0.248   6.078  0.9548 -0.3409 -0.8432
   63MOL   H12912653   7.257   0.269   6.018 -0.1828  2.3628  0.7510
   63MOL   H13012654   7.509   0.248   5.840 -0.3737  1.1117 -1.5362
   63MOL   H13112655   7.337   0.272   5.787 -1.8795 -0.3329  0.6223
   63MOL   O13212656   7.388   0.084   5.862 -0.1309 -0.0929 -0.2017
   63MOL   C13312657   7.405   0.017   5.731  0.1213  0.1493 -0.4289
   63MOL   C13412658   7.397   7.653   5.741  0.6963  0.1881 -0.4225
   63MOL   C13512659   7.274   7.590   5.812 -0.9810 -0.1915  0.4615
   63MOL   H13612660   7.495   0.055   5.685  0.0759 -0.4045 -0.9780
   63MOL   H13712661   7.329   0.059   5.665 -0.1659  0.3592  0.0317
   63MOL   H13812662   7.404   7.611   5.640 -0.8840  2.5061 -1.5513
   63MOL   H13912663   7.483   7.616   5.795  1.6827 -1.8748 -3.2835
   63MOL   H14012664   7.190   7.616   5.747 -0.1043  1.4898 -0.0286
   63MOL   H14112665   7.250   7.631   5.910 -0.4145  0.1916  0.4370
   63MOL   O14212666   7.271   7.448   5.815 -0.9859  0.1019 -0.6099
   63MOL   C14312667   7.334   7.403   5.938  0.5567 -0.0828  0.5300
   63MOL   C14412668   7.358   7.248   5.923  0.2619 -0.4168 -0.2094
   63MOL   C14512669   7.427   7.192   6.048 -0.5403  0.4284  0.1594
   63MOL   H14612670   7.274   7.433   6.023 -0.8020 -0.5546 -0.2427
   63MOL   H14712671   7.425   7.463   5.941  0.6888 -0.2198 -0.5450
   63MOL   H14812672   7.258   7.213   5.894  0.0366  0.6553 -0.7365
   63MOL   H14912673   7.424   7.234   5.837  0.7561 -0.0846  0.1184
   63MOL   H15012674   7.368   7.210   6.138 -1.8489  0.6960 -0.7488
   63MOL   H15112675   7.527   7.234   6.062 -0.9912  1.3945  0.4777
   63MOL   O15212676   7.454   7.058   6.016  0.8885  0.1501 -0.2415
   63MOL   C15312677   7.474   6.982   6.139  0.4313 -0.1850 -0.0356
   63MOL   C15412678   7.473   6.831   6.118  0.1464 -0.0292  0.0530
   63MOL   C15512679   7.485   6.753   6.247  0.1263 -0.0387  0.3864
   63MOL   H15612680   7.394   7.004   6.210 -0.1957 -0.0652 -0.7816
   63MOL   H15712681   7.563   7.011   6.195  0.0794 -1.6697  1.3376
   63MOL   H15812682   7.381   6.799   6.069  0.8081  1.3061 -2.1356
   63MOL   H15912683   7.547   6.811   6.040 -1.2737  0.0137 -1.3227
   63MOL   H16012684   7.404   6.777   6.316 -0.5571 -0.5682 -0.2234
   63MOL   H16112685   7.578   6.774   6.299  1.0523 -2.0266 -0.4088
   63MOL   O16212686   7.466   6.614   6.216  0.3859  0.4041 -0.1071
   63MOL   C16312687   7.488   6.534   6.329 -0.3864  0.3191 -0.1654
   63MOL   C16412688   7.408   6.403   6.316 -0.3444  0.5663  0.2907
   63MOL   C16512689   7.355   6.344   6.446  0.1578 -0.1355  0.2059
   63MOL   H16612690   7.438   6.585   6.411 -0.0847  0.0850  0.1657
   63MOL   H16712691   7.595   6.526   6.346 -0.4094 -2.5069 -1.0943
   63MOL   H16812692   7.315   6.425   6.264 -0.7551  0.2133  0.8706
   63MOL   H16912693   7.451   6.330   6.247  0.0519 -0.4108  1.5430
   63MOL   H17012694   7.289   6.419   6.489  0.4417  1.5237 -2.2027
   63MOL   H17112695   7.446   6.331   6.505  0.4123  2.2516  0.3598
   63MOL   O17212696   7.290   6.216   6.434 -0.5962  0.2498  0.3570
   63MOL   C17312697   7.264   6.159   6.558  0.0801 -0.1184 -0.3728
   63MOL   C17412698   7.150   6.054   6.541 -0.1792 -1.2186  0.4113
   63MOL   C17512699   7.175   5.940   6.437  0.0672 -0.6960  0.2030
   63MOL   H17612700   7.246   6.235   6.635  2.6031  0.1611 -0.0120
   63MOL   H17712701   7.355   6.105   6.582 -1.0549 -2.5510 -1.3810
   63MOL   H17812702   7.134   6.009   6.640 -0.7717 -0.5270  0.6350
   63MOL   H17912703   7.060   6.110   6.517  0.4899 -0.9957 -1.6318
   63MOL   H18012704   7.282   5.918   6.436  0.1499 -0.6128  2.6611
   63MOL   H18112705   7.160   5.987   6.340  0.4549 -1.3306 -0.1697
   63MOL   O18212706   7.107   5.815   6.446 -0.3499  0.0329 -0.1117
   63MOL   C18312707   7.138   5.717   6.340 -0.3444 -0.3587 -0.0785
   63MOL   C18412708   7.079   5.580   6.379 -0.5117  0.8356 -0.2416
   63MOL   C18512709   7.098   5.471   6.270 -0.0958  0.0866 -0.4219
   63MOL   H18612710   7.245   5.714   6.318 -0.2499 -2.2865  0.5860
   63MOL   H18712711   7.089   5.758   6.252 -1.4320  2.9469  1.9802
   63MOL   H18812712   7.137   5.553   6.467 -0.5713 -0.6372 -0.6456
   63MOL   H18912713   6.975   5.601   6.404 -0.7667  0.8942 -1.3059
   63MOL   H19012714   7.201   5.436   6.269 -0.7981 -2.1336  1.5005
   63MOL   H19112715   7.063   5.510   6.174  1.6923 -2.0402 -1.9735
   63MOL   O19212716   7.018   5.362   6.317 -0.2141 -0.1682  0.1763
   63MOL   C19312717   7.018   5.260   6.222  0.3423  0.0150 -0.1087
   63MOL   C19412718   7.137   5.162   6.248  0.6671 -0.1748 -0.1766
   63MOL   C19512719   7.145   5.063   6.131  0.0000 -0.1400 -0.8081
   63MOL   H19612720   7.015   5.292   6.118  3.0862  0.2426 -0.1412
   63MOL   H19712721   6.922   5.210   6.235 -0.3649  1.4107  0.1365
   63MOL   H19812722   7.231   5.216   6.255  0.3080  0.3254  0.8584
   63MOL   H19912723   7.128   5.106   6.341  0.0281  2.3761  1.3346
   63MOL   H20012724   7.220   4.989   6.159  0.0193  0.3951  0.6406
   63MOL   H20112725   7.176   5.119   6.043  2.1350 -0.2659 -0.1687
   63MOL   H20212726   7.051   5.010   6.114 -1.4225  1.5778  1.4591
   64MOL     O112727   4.460   6.513   5.759  0.4390  0.0802 -0.3588
   64MOL     C212728   4.343   6.464   5.823  0.2028 -0.8795 -0.5713
   64MOL     C312729   4.337   6.309   5.803 -0.9550 -0.4984 -0.3199
   64MOL     C412730   4.219   6.248   5.876 -0.3093  0.2936 -0.0962
   64MOL     H512731   4.259   6.511   5.772 -0.4309 -1.3543  0.0104
   64MOL     H612732   4.338   6.499   5.927  0.2191  0.4451 -1.0049
   64MOL     H712733   4.312   6.287   5.699 -1.1022  1.2855 -0.6819
   64MOL     H812734   4.431   6.267   5.839  0.1999  1.1462 -1.3644
   64MOL     H912735   4.177   6.158   5.831  0.4866  1.5061 -3.4425
   64MOL    H1012736   4.125   6.302   5.863 -1.5691 -1.9436 -0.6782
   64MOL    H1112737   4.468   6.605   5.778 -1.0507  0.2204 -0.2891
   64MOL    O1212738   4.255   6.229   6.012  0.0419  1.0627  0.6657
   64MOL    C1312739   4.194   6.121   6.081 -0.2567 -0.5100 -0.2420
   64MOL    C1412740   4.048   6.156   6.126  0.2036 -0.0029 -0.4768
   64MOL    C1512741   4.049   6.274   6.235  0.1008  0.2765 -0.5376
   64MOL    H1612742   4.247   6.098   6.172  1.5103 -1.1057 -1.3969
   64MOL    H1712743   4.189   6.026   6.027  0.3385 -0.7301  0.0977
   64MOL    H1812744   3.989   6.181   6.038  1.1512  2.2297 -0.5106
   64MOL    H1912745   4.000   6.066   6.165  0.1591  0.5141  0.6862
   64MOL    H2012746   4.110   6.359   6.204  1.1153 -0.1529  0.2512
   64MOL    H2112747   4.093   6.218   6.318  1.2565  0.4638 -1.0146
   64MOL    O2212748   3.918   6.310   6.273  0.0336  0.1415  0.1215
   64MOL    C2312749   3.883   6.448   6.287  0.1507  0.2456 -0.2178
   64MOL    C2412750   3.755   6.456   6.359  0.2770  0.3171  0.3741
   64MOL    C2512751   3.695   6.599   6.346  0.2390  0.3593 -0.0233
   64MOL    H2612752   3.864   6.468   6.182 -1.6576  1.0266  0.2533
   64MOL    H2712753   3.946   6.521   6.339 -1.1900  1.1116  0.2121
   64MOL    H2812754   3.682   6.393   6.308  1.5554 -0.6990 -0.2239
   64MOL    H2912755   3.758   6.427   6.464 -1.3056  0.4983  0.4895
   64MOL    H3012756   3.758   6.669   6.400  0.7871 -0.8778  0.9659
   64MOL    H3112757   3.597   6.594   6.394 -0.7973  2.1922 -1.8556
   64MOL    O3212758   3.651   6.624   6.216  0.5531  0.2748 -0.0360
   64MOL    C3312759   3.595   6.752   6.203  0.1340 -0.3109 -0.3027
   64MOL    C3412760   3.548   6.778   6.054 -0.0042  0.0735  0.0107
   64MOL    C3512761   3.514   6.927   6.034 -0.5579  0.3750 -0.1114
   64MOL    H3612762   3.656   6.837   6.237 -1.1792  0.4214  0.2555
   64MOL    H3712763   3.503   6.755   6.262  2.6444 -2.1414  4.0032
   64MOL    H3812764   3.631   6.764   5.985 -1.8746  2.2402 -2.8058
   64MOL    H3912765   3.471   6.704   6.032  0.7154 -0.5538 -0.4020
   64MOL    H4012766   3.598   6.995   6.045 -0.1328 -0.4619  1.9732
   64MOL    H4112767   3.440   6.958   6.109 -1.5322  0.7689 -1.2136
   64MOL    O4212768   3.446   6.944   5.911  0.1283 -0.5846  0.3945
   64MOL    C4312769   3.447   7.074   5.858  0.7328  0.0270  0.5458
   64MOL    C4412770   3.559   7.088   5.751  0.2684 -0.0974  0.2046
   64MOL    C4512771   3.622   7.225   5.727  0.3760 -0.9439  0.2141
   64MOL    H4612772   3.458   7.145   5.940 -0.7470 -0.2675  1.0052
   64MOL    H4712773   3.347   7.087   5.816  0.2958 -0.4804  1.4185
   64MOL    H4812774   3.641   7.017   5.766  3.1843  2.7804 -1.3130
   64MOL    H4912775   3.508   7.049   5.664  0.3969 -1.1934  0.6188
   64MOL    H5012776   3.655   7.271   5.820  3.2574 -1.4932 -0.4748
   64MOL    H5112777   3.545   7.289   5.685  3.1503  1.4440 -1.4899
   64MOL    O5212778   3.733   7.211   5.638 -0.3580  0.5357 -0.4474
   64MOL    C5312779   3.689   7.198   5.501  0.1277  0.3023  0.5444
   64MOL    C5412780   3.810   7.224   5.422 -0.6742 -0.0973  0.7587
   64MOL    C5512781   3.784   7.192   5.268 -0.5057 -0.3016 -0.2718
   64MOL    H5612782   3.613   7.272   5.474  2.7099  2.1918 -1.8582
   64MOL    H5712783   3.658   7.098   5.473 -1.5083  1.3890 -1.7724
   64MOL    H5812784   3.843   7.325   5.446  0.6588 -0.6081  1.1353
   64MOL    H5912785   3.893   7.163   5.457  0.3416  0.7824 -0.1024
   64MOL    H6012786   3.716   7.260   5.218  0.4660  0.9382  0.0482
   64MOL    H6112787   3.748   7.090   5.253  0.0214 -0.7515  1.3484
   64MOL    O6212788   3.914   7.207   5.205  0.4059 -0.0456 -0.3125
   64MOL    C6312789   3.912   7.197   5.060 -0.5296 -1.2247  0.5181
   64MOL    C6412790   4.053   7.235   5.009 -0.3404 -0.4804 -0.1687
   64MOL    C6512791   4.104   7.367   5.065 -0.7547  0.3940 -0.0106
   64MOL    H6612792   3.839   7.257   5.005 -0.5907 -1.6820  0.0977
   64MOL    H6712793   3.886   7.095   5.030 -1.2753 -0.7082 -0.6240
   64MOL    H6812794   4.120   7.153   5.036  1.8741  0.3638 -2.8161
   64MOL    H6912795   4.047   7.242   4.900 -0.8539  0.0772 -0.1079
   64MOL    H7012796   4.114   7.359   5.173  1.3638 -0.2065 -0.2252
   64MOL    H7112797   4.030   7.442   5.037 -0.8934 -0.1410 -1.0967
   64MOL    O7212798   4.236   7.396   5.015  0.1260 -0.3057  0.2561
   64MOL    C7312799   4.287   7.526   5.034 -0.8404  0.3981 -0.0803
   64MOL    C7412800   4.431   7.550   4.990  0.3848  0.0671 -0.1534
   64MOL    C7512801   4.481   7.699   5.023  0.6418 -0.0609 -0.2755
   64MOL    H7612802   4.283   7.539   5.142  0.9098  2.0077 -0.1845
   64MOL    H7712803   4.215   7.601   5.003  0.1552  0.5588 -2.0999
   64MOL    H7812804   4.499   7.479   5.037 -0.2354  0.6715  1.6700
   64MOL    H7912805   4.442   7.537   4.882 -1.2360  3.5715 -0.8016
   64MOL    H8012806   4.394   7.762   4.999  0.9434  0.9942  1.3211
   64MOL    H8112807   4.557   7.743   4.958  0.6087 -0.7229 -0.7712
   64MOL    O8212808   4.509   7.719   5.164  0.3056  0.1192  0.5465
   64MOL    C8312809   4.626   7.651   5.206 -0.3409 -0.3114 -0.2121
   64MOL    C8412810   4.667   7.729   5.331  0.0308  0.0156  0.5657
   64MOL    C8512811   4.810   7.708   5.387  0.1019  0.6446 -0.1644
   64MOL    H8612812   4.706   7.650   5.132 -0.4954 -2.2006 -0.3815
   64MOL    H8712813   4.612   7.543   5.217 -0.2431 -0.2086  1.0691
   64MOL    H8812814   4.663   0.048   5.312  1.1399 -0.1638 -0.7283
   64MOL    H8912815   4.595   7.710   5.411 -0.7232 -0.8697 -0.3068
   64MOL    H9012816   4.881   7.701   5.304 -0.0131 -1.1177 -0.1231
   64MOL    H9112817   4.810   7.608   5.430  0.3159  0.7205  0.0146
   64MOL    O9212818   4.853   0.020   5.484 -0.3698 -0.0849 -0.5307
   64MOL    C9312819   4.976   7.781   5.550 -0.1657 -0.3717 -0.1856
   64MOL    C9412820   5.008   0.112   5.631  0.5421 -0.3315 -0.7249
   64MOL    C9512821   4.905   0.151   5.741 -0.8445  0.8447  0.2509
   64MOL    H9612822   5.049   7.764   5.471  0.6957  0.3785  0.4388
   64MOL    H9712823   4.976   7.690   5.610  1.5751 -0.7775 -0.7814
   64MOL    H9812824   5.107   0.088   5.671  0.9581 -2.6891 -3.1070
   64MOL    H9912825   5.016   0.192   5.557  2.3772 -0.4249 -0.6576
   64MOL   H10012826   4.883   0.070   5.810 -1.3165  0.5454 -0.2424
   64MOL   H10112827   4.814   0.173   5.685 -0.6945 -1.2029 -0.8426
   64MOL   O10212828   4.955   0.252   5.818 -0.1025 -0.3341  0.3357
   64MOL   C10312829   4.870   0.280   5.930 -0.5786 -0.7952 -0.4868
   64MOL   C10412830   4.940   0.385   6.013 -0.2587 -0.5935  0.1482
   64MOL   C10512831   4.856   0.423   6.128 -0.0499  0.3806  0.2069
   64MOL   H10612832   4.858   0.192   5.994  0.3991  1.2201  2.5807
   64MOL   H10712833   4.775   0.311   5.886 -0.5354  1.9782  1.2445
   64MOL   H10812834   5.030   0.348   6.061  0.5255 -0.5196 -1.2285
   64MOL   H10912835   4.967   0.469   5.949  0.8122 -0.7984  0.3349
   64MOL   H11012836   4.851   0.348   6.207 -0.0232 -0.6189 -0.7189
   64MOL   H11112837   4.755   0.453   6.100  1.2603  3.3745 -1.5272
   64MOL   O11212838   4.909   0.544   6.181  0.3683  0.7810 -0.4257
   64MOL   C11312839   4.853   0.579   6.311  0.1418  0.1575  0.0424
   64MOL   C11412840   4.865   0.735   6.329  0.1624  0.0170 -0.3855
   64MOL   C11512841   4.773   0.814   6.244 -0.6887 -0.8804  0.4626
   64MOL   H11612842   4.906   0.522   6.387  0.8880 -1.0720 -1.3760
   64MOL   H11712843   4.748   0.549   6.309 -0.1422  1.1365 -0.0523
   64MOL   H11812844   4.836   0.750   6.433 -0.4617  1.8212 -0.7938
   64MOL   H11912845   4.967   0.774   6.333 -0.9857  3.0754  2.0133
   64MOL   H12012846   4.669   0.784   6.258 -0.9791  0.8207  2.1938
   64MOL   H12112847   4.812   0.808   6.143  0.4566  1.7492  0.6972
   64MOL   O12212848   4.795   0.954   6.272 -0.1828 -0.4478  0.1903
   64MOL   C12312849   4.711   1.042   6.201  0.7906 -0.2644 -0.0464
   64MOL   C12412850   4.732   1.189   6.237 -0.3192 -0.2374  0.1930
   64MOL   C12512851   4.622   1.290   6.194 -0.0339 -0.3289  0.1818
   64MOL   H12612852   4.606   1.024   6.222  0.6339  0.1254 -0.4949
   64MOL   H12712853   4.727   1.024   6.095  1.6517  1.1695 -0.1781
   64MOL   H12812854   4.748   1.208   6.343  3.2090  1.8896 -0.6251
   64MOL   H12912855   4.826   1.231   6.200  0.4141 -1.8195  0.2245
   64MOL   H13012856   4.527   1.252   6.234  0.1897  0.5832  1.6232
   64MOL   H13112857   4.627   1.298   6.086  0.1124 -1.7286  0.0715
   64MOL   O13212858   4.649   1.415   6.259  0.0297  0.2972  0.2432
   64MOL   C13312859   4.531   1.480   6.296  0.2572  0.3392 -0.3475
   64MOL   C13412860   4.562   1.598   6.394 -0.1522 -0.2629  0.7514
   64MOL   C13512861   4.441   1.672   6.444  0.1897 -0.4777  0.1441
   64MOL   H13612862   4.456   1.411   6.336 -1.2673  2.2088  0.1328
   64MOL   H13712863   4.482   1.529   6.212 -0.0267  0.2551 -0.2348
   64MOL   H13812864   4.616   1.555   6.478  0.3249 -0.3225  0.4174
   64MOL   H13912865   4.623   1.664   6.332 -1.1682 -0.3514 -0.3592
   64MOL   H14012866   4.465   1.750   6.516  0.3576  0.1065 -0.5462
   64MOL   H14112867   4.387   1.592   6.497  2.8504 -3.0380 -0.8799
   64MOL   O14212868   4.366   1.738   6.342 -0.0198  0.1649 -0.2453
   64MOL   C14312869   4.242   1.794   6.403  0.2872  0.1416  0.0222
   64MOL   C14412870   4.163   1.886   6.305 -0.6448 -0.1139 -0.0822
   64MOL   C14512871   4.019   1.908   6.344 -0.0773 -0.4430  0.2272
   64MOL   H14612872   4.260   1.845   6.497  2.2994  0.1578 -0.3496
   64MOL   H14712873   4.177   1.710   6.430  0.6163 -0.6212 -1.4703
   64MOL   H14812874   4.218   1.980   6.302 -2.1492  0.7763 -0.3279
   64MOL   H14912875   4.164   1.847   6.203  2.1688  0.4882 -0.3277
   64MOL   H15012876   4.004   1.936   6.448  0.5062  3.0092 -0.5679
   64MOL   H15112877   3.963   1.815   6.343 -1.8518  0.5605  2.4084
   64MOL   O15212878   3.972   2.009   6.260  0.5440  0.0791  0.2813
   64MOL   C15312879   3.834   2.044   6.281 -0.6092  0.1589  0.0675
   64MOL   C15412880   3.829   2.184   6.231  0.1069 -0.2429 -0.8440
   64MOL   C15512881   3.683   2.231   6.253  0.8635  0.3071  0.1704
   64MOL   H15612882   3.815   2.051   6.388 -1.3021  2.3351 -0.1886
   64MOL   H15712883   3.755   1.982   6.238 -0.1005 -1.4495  1.3823
   64MOL   H15812884   3.899   2.243   6.290 -0.5413 -1.8254  1.6126
   64MOL   H15912885   3.850   2.203   6.126  0.0719 -0.7947 -0.9473
   64MOL   H16012886   3.664   2.268   6.354  1.7647 -1.2379  0.9285
   64MOL   H16112887   3.616   2.145   6.244  2.0731 -1.0604  3.4514
   64MOL   O16212888   3.652   2.341   6.160  0.5464  0.4025  0.6619
   64MOL   C16312889   3.516   2.381   6.184  0.0364 -0.1700  0.1757
   64MOL   C16412890   3.478   2.500   6.089  0.2682 -0.2909  0.2895
   64MOL   C16512891   3.323   2.519   6.074  0.3443  0.3530  0.3297
   64MOL   H16612892   3.522   2.421   6.286 -2.4122 -0.6276  0.5127
   64MOL   H16712893   3.446   2.300   6.166  1.2304 -0.6974 -2.3716
   64MOL   H16812894   3.528   2.588   6.130 -1.5287  0.2543  1.3655
   64MOL   H16912895   3.525   2.487   5.991 -0.3383 -0.4121  0.0103
   64MOL   H17012896   3.280   2.419   6.062  1.5303 -0.1959  0.5745
   64MOL   H17112897   3.306   2.584   5.988 -0.5487  0.5808  0.6792
   64MOL   O17212898   3.289   2.579   6.205 -0.6697  0.2681  0.1175
   64MOL   C17312899   3.154   2.621   6.214  0.1180  0.4596 -0.3292
   64MOL   C17412900   3.133   2.687   6.354 -0.5197 -0.0879 -0.0269
   64MOL   C17512901   2.988   2.737   6.369 -0.3143  0.3642  0.1308
   64MOL   H17612902   3.090   2.533   6.211 -1.8347  1.8240 -0.2838
   64MOL   H17712903   3.128   2.690   6.134  0.4615 -0.9330 -1.6449
   64MOL   H17812904   3.165   2.627   6.440 -1.4422  0.0953  0.4456
   64MOL   H17912905   3.208   2.766   6.350 -1.5374  0.9056  0.5140
   64MOL   H18012906   2.972   2.787   6.464  0.2438  0.9916 -0.1057
   64MOL   H18112907   2.918   2.653   6.380 -1.2993  1.5651  3.7475
   64MOL   O18212908   2.974   2.812   6.252  0.7011  0.2144 -0.4564
   64MOL   C18312909   2.839   2.846   6.244 -0.0349 -0.7503 -0.7398
   64MOL   C18412910   2.805   2.911   6.111 -0.4065  0.1860  0.6897
   64MOL   C18512911   2.682   2.998   6.120  0.2269  0.0288  0.3808
   64MOL   H18612912   2.811   2.921   6.319  0.9618 -2.4270  1.3495
   64MOL   H18712913   2.771   2.765   6.268 -0.5672 -0.1553 -0.1964
   64MOL   H18812914   2.897   2.960   6.079  1.8030 -3.4519  1.1435
   64MOL   H18912915   2.787   2.836   6.034 -0.0527  2.3251 -1.5281
   64MOL   H19012916   2.601   2.947   6.172 -0.2087 -1.7702 -1.9902
   64MOL   H19112917   2.655   3.021   6.017  1.9709  3.0510  0.5242
   64MOL   O19212918   2.720   3.122   6.192  0.5288  0.4562  0.0536
   64MOL   C19312919   2.604   3.205   6.197  0.3815  0.2638 -0.0107
   64MOL   C19412920   2.621   3.324   6.282 -0.0697  0.1687  0.5994
   64MOL   C19512921   2.504   3.423   6.269  0.1698  0.8045  0.4338
   64MOL   H19612922   2.519   3.152   6.240  0.0042  0.6491 -0.2839
   64MOL   H19712923   2.574   3.246   6.101  1.6959  1.3094  0.0011
   64MOL   H19812924   2.644   3.292   6.384 -0.6094 -2.2180  0.0206
   64MOL   H19912925   2.713   3.378   6.261 -0.1876  0.0304 -0.2848
   64MOL   H20012926   2.522   3.503   6.341  0.6195  0.8559  0.2673
   64MOL   H20112927   2.404   3.384   6.283  0.2248  0.3218 -0.4688
   64MOL   H20212928   2.511   3.479   6.176 -1.0612  0.7254  0.2880
   65MOL     O112929   3.139   2.625   2.381 -0.4589  0.8457 -0.2223
   65MOL     C212930   3.063   2.608   2.263  0.1181 -0.5493  0.0532
   65MOL     C312931   2.960   2.720   2.252  0.0932  0.5764  0.2394
   65MOL     C412932   2.887   2.729   2.114 -0.5714 -0.4252 -0.8241
   65MOL     H512933   3.003   2.518   2.259 -0.0764 -0.3949 -0.7798
   65MOL     H612934   3.137   2.603   2.183  0.4304  2.5597  0.0861
   65MOL     H712935   2.888   2.684   2.325 -0.6292 -0.3046 -0.8902
   65MOL     H812936   3.000   2.814   2.289  0.2031  0.7756 -0.3731
   65MOL     H912937   2.841   2.635   2.083 -1.3083 -0.5360  0.5823
   65MOL    H1012938   2.960   2.740   2.034 -0.6436  3.6858 -0.4286
   65MOL    H1112939   3.187   2.706   2.385  2.4557 -0.8761  1.2530
   65MOL    O1212940   2.795   2.838   2.101  0.1067 -0.1901  0.5136
   65MOL    C1312941   2.725   2.830   1.979 -0.1031 -0.1947  0.5941
   65MOL    C1412942   2.618   2.938   1.968 -0.0364  0.4604 -0.0876
   65MOL    C1512943   2.527   2.903   1.855 -0.4273  0.3882  0.4768
   65MOL    H1612944   2.683   2.730   1.969 -1.9575  0.3342  2.8948
   65MOL    H1712945   2.778   2.856   1.887  1.8716  0.7243  1.9516
   65MOL    H1812946   2.556   2.950   2.057  0.8080  0.2764  0.5281
   65MOL    H1912947   2.667   3.034   1.958  0.2443  0.3789  0.4631
   65MOL    H2012948   2.468   2.813   1.865 -1.1178  0.7070 -0.6205
   65MOL    H2112949   2.589   2.880   1.768  0.8923 -3.5734  2.3803
   65MOL    O2212950   2.435   3.011   1.825  0.6079  0.3326  0.0015
   65MOL    C2312951   2.368   3.006   1.699 -0.3424 -0.3987  0.3230
   65MOL    C2412952   2.276   2.878   1.674  0.1432 -0.0705 -0.1862
   65MOL    C2512953   2.214   2.856   1.539 -0.4730  0.2021 -0.6704
   65MOL    H2612954   2.444   2.991   1.623 -1.3803 -0.7074 -0.6804
   65MOL    H2712955   2.307   3.095   1.683 -1.3032 -1.0396  0.3946
   65MOL    H2812956   2.324   2.785   1.706 -1.1041 -0.6963 -0.0813
   65MOL    H2912957   2.195   2.888   1.746 -0.0395 -0.9776 -0.2555
   65MOL    H3012958   2.158   2.944   1.506  1.0107  1.3611 -0.1509
   65MOL    H3112959   2.136   2.780   1.541  0.7684 -1.1226 -1.4285
   65MOL    O3212960   2.309   2.817   1.442 -0.0018 -0.1454  0.8587
   65MOL    C3312961   2.367   2.686   1.445 -0.3164 -0.3207  0.1715
   65MOL    C3412962   2.394   2.649   1.300  0.5484 -0.8511  0.0439
   65MOL    C3512963   2.416   2.504   1.277  0.0106  0.1354 -0.4492
   65MOL    H3612964   2.301   2.615   1.495  0.5112 -1.6577 -0.6046
   65MOL    H3712965   2.454   2.690   1.510 -0.2196  1.8411 -0.0619
   65MOL    H3812966   2.315   2.675   1.230  1.2907  3.2721  0.6252
   65MOL    H3912967   2.482   2.704   1.268  0.5838 -0.8682  0.1102
   65MOL    H4012968   2.438   2.486   1.172  1.3453  0.6435 -0.2732
   65MOL    H4112969   2.324   2.451   1.299 -0.3235  0.8289 -0.1647
   65MOL    O4212970   2.534   2.455   1.349 -0.0227  0.1135  0.0835
   65MOL    C4312971   2.564   2.320   1.340 -0.2613  0.8826  0.0770
   65MOL    C4412972   2.668   2.308   1.457  0.3649  0.4300  0.4949
   65MOL    C4512973   2.702   2.160   1.490 -0.5311 -0.2010  0.2841
   65MOL    H4612974   2.608   2.285   1.247 -2.2242 -1.4118 -0.0140
   65MOL    H4712975   2.467   2.276   1.359  0.4929 -0.0160  2.0201
   65MOL    H4812976   2.759   2.359   1.427  0.4925 -0.9653 -1.5282
   65MOL    H4912977   2.626   2.349   1.549 -0.3226 -1.0856  0.8672
   65MOL    H5012978   2.746   2.099   1.411 -1.7404 -1.0003  0.2062
   65MOL    H5112979   2.609   2.105   1.507  0.0296 -0.4020  2.9461
   65MOL    O5212980   2.785   2.157   1.603  0.0066 -0.0430 -0.7361
   65MOL    C5312981   2.827   2.029   1.653 -0.8266 -0.0214  0.3161
   65MOL    C5412982   2.716   1.963   1.739  0.6325 -0.2067  0.6310
   65MOL    C5512983   2.715   2.011   1.890  0.2189 -0.0262  0.0396
   65MOL    H5612984   2.919   2.032   1.711 -0.1257 -0.0586 -0.7820
   65MOL    H5712985   2.847   1.964   1.568  0.1393 -0.9631  1.2424
   65MOL    H5812986   2.622   1.981   1.686  0.9516  1.7605  0.7208
   65MOL    H5912987   2.734   1.856   1.737 -3.5294 -1.0101  0.5180
   65MOL    H6012988   2.677   2.113   1.892 -1.1567 -0.5434  3.4402
   65MOL    H6112989   2.815   2.002   1.932 -0.9559 -1.4879  2.5892
   65MOL    O6212990   2.635   1.917   1.955  0.0807  0.2977 -0.1913
   65MOL    C6312991   2.653   1.929   2.092  0.0657 -0.4202  0.2244
   65MOL    C6412992   2.559   1.849   2.170  0.0524  0.1222 -0.4228
   65MOL    C6512993   2.568   1.864   2.316  0.2944  0.4868  0.1983
   65MOL    H6612994   2.639   2.031   2.128  0.9583 -0.0126 -0.5652
   65MOL    H6712995   2.755   1.900   2.118  0.0134 -1.2796 -0.4936
   65MOL    H6812996   2.457   1.859   2.132 -0.3501 -1.6266  0.1758
   65MOL    H6912997   2.594   1.748   2.150 -0.3536  0.1627 -1.3894
   65MOL    H7012998   2.673   1.858   2.346  0.3583  1.0959  0.1035
   65MOL    H7112999   2.518   1.780   2.363  0.8772 -0.0112 -0.0588
   65MOL    O7213000   2.525   1.991   2.349  0.2387 -0.6577 -0.2363
   65MOL    C7313001   2.395   1.999   2.402 -0.6025 -0.3431  0.6057
   65MOL    C7413002   2.366   2.145   2.424  0.2261  0.0377 -0.3905
   65MOL    C7513003   2.314   2.219   2.294  0.5960  0.0500 -0.1108
   65MOL    H7613004   2.386   1.944   2.496 -1.3517 -2.2706 -0.5629
   65MOL    H7713005   2.325   1.949   2.334  1.1792 -0.8751 -0.8882
   65MOL    H7813006   2.288   2.131   2.500 -0.2730  2.4422 -0.4063
   65MOL    H7913007   2.455   2.192   2.465  0.2756  0.2425 -0.7334
   65MOL    H8013008   2.247   2.302   2.318 -0.0856 -0.6279  0.3343
   65MOL    H8113009   2.286   2.155   2.210  1.4604  0.5395 -0.7863
   65MOL    O8213010   2.431   2.277   2.226 -0.5491 -0.5609 -0.0142
   65MOL    C8313011   2.396   2.337   2.101  0.6738 -0.4911  0.4460
   65MOL    C8413012   2.508   2.369   2.007  0.1942 -0.2325  0.5085
   65MOL    C8513013   2.458   2.420   1.869 -0.1302  0.3875  0.7511
   65MOL    H8613014   2.341   2.426   2.133 -0.2489 -0.3479 -1.4761
   65MOL    H8713015   2.320   2.274   2.055 -1.1283  1.8227  0.1350
   65MOL    H8813016   2.586   2.436   2.045 -2.2100  2.3038  1.1652
   65MOL    H8913017   2.561   2.277   1.981  1.0756  0.0863  1.1471
   65MOL    H9013018   2.546   2.443   1.809  0.3972 -0.9592  0.9867
   65MOL    H9113019   2.396   2.509   1.883 -0.8511 -0.2513  1.7068
   65MOL    O9213020   2.384   2.314   1.806 -0.1373 -0.0576 -0.1574
   65MOL    C9313021   2.306   2.352   1.692 -0.2874 -0.0147  0.0181
   65MOL    C9413022   2.293   2.216   1.632  0.6129 -0.3973  0.3826
   65MOL    C9513023   2.224   2.208   1.497 -0.1585 -0.0060 -0.6805
   65MOL    H9613024   2.357   2.423   1.627 -0.3302 -0.4435 -0.4895
   65MOL    H9713025   2.214   2.402   1.722  0.0255  1.0369 -0.7473
   65MOL    H9813026   2.395   2.179   1.617  2.1393  3.4601  0.6527
   65MOL    H9913027   2.241   2.146   1.698  0.1254 -1.0525 -0.6832
   65MOL   H10013028   2.270   2.119   1.454 -0.1321  0.0106 -0.6863
   65MOL   H10113029   2.266   2.291   1.440  1.5572  0.8973  1.8396
   65MOL   O10213030   2.083   2.214   1.518  0.2360  0.6389  0.0701
   65MOL   C10313031   2.025   2.232   1.386 -0.5678 -0.3614 -0.0231
   65MOL   C10413032   1.876   2.221   1.409 -0.4348  0.2428  0.7279
   65MOL   C10513033   1.790   2.166   1.298 -0.6668  0.2100 -0.2638
   65MOL   H10613034   2.047   2.143   1.327  0.5929 -0.1304  0.0498
   65MOL   H10713035   2.051   2.320   1.329  0.1698 -0.3644  0.2998
   65MOL   H10813036   1.859   2.155   1.495 -0.0078  0.7083  1.1726
   65MOL   H10913037   1.835   2.321   1.425  0.3242  0.6575  0.1193
   65MOL   H11013038   1.688   2.158   1.334 -0.4277  0.3262  0.4341
   65MOL   H11113039   1.829   2.066   1.280  2.0822  1.2972 -0.6735
   65MOL   O11213040   1.795   2.252   1.182  0.1199 -0.5060 -0.4116
   65MOL   C11313041   1.702   2.201   1.084  0.0982  0.4154  0.4348
   65MOL   C11413042   1.729   2.282   0.962  0.9996  0.2693 -0.3374
   65MOL   C11513043   1.631   2.245   0.847  0.2731  0.2675  1.0596
   65MOL   H11613044   1.596   2.218   1.104 -0.2226  0.0431 -0.9135
   65MOL   H11713045   1.721   2.097   1.057  0.8955  0.4530  0.8615
   65MOL   H11813046   1.714   2.387   0.987  0.9799 -0.2015  1.7283
   65MOL   H11913047   1.828   2.272   0.916 -0.5192 -2.9565 -3.1767
   65MOL   H12013048   1.649   2.312   0.763 -1.0451  0.5214  0.9662
   65MOL   H12113049   1.526   2.262   0.871  0.3072  0.9945  0.7064
   65MOL   O12213050   1.649   2.105   0.817 -0.9096 -0.3075  0.0288
   65MOL   C12313051   1.577   2.076   0.694 -0.0529  0.8076  0.2154
   65MOL   C12413052   1.592   1.921   0.674  1.2924  0.6483  0.3296
   65MOL   C12513053   1.551   1.875   0.535  0.0027 -0.4116  0.0188
   65MOL   H12613054   1.622   2.123   0.607  1.4777 -1.2151 -0.1285
   65MOL   H12713055   1.470   2.100   0.695 -0.2110  0.2261 -1.3933
   65MOL   H12813056   1.697   1.895   0.691  0.6853  0.0159  3.2517
   65MOL   H12913057   1.534   1.874   0.753  0.9085  1.4600  0.5353
   65MOL   H13013058   1.550   1.766   0.529  1.8335 -0.4627  0.2231
   65MOL   H13113059   1.615   1.912   0.455  0.1414  2.6260  1.4251
   65MOL   O13213060   1.415   1.920   0.507 -0.6418  0.1369 -0.7016
   65MOL   C13313061   1.350   1.840   0.408 -0.5822  0.1341  0.1254
   65MOL   C13413062   1.252   1.919   0.321  0.2330  0.4173  0.3621
   65MOL   C13513063   1.303   2.032   0.243  0.4763  0.3482  0.1383
   65MOL   H13613064   1.308   1.747   0.447  2.2839 -1.2617 -0.0093
   65MOL   H13713065   1.431   1.799   0.348  1.6497 -0.6551  3.5747
   65MOL   H13813066   1.217   1.844   0.251  1.5298  0.0130  0.1193
   65MOL   H13913067   1.168   1.941   0.386  1.7932  0.9322  2.2684
   65MOL   H14013068   1.382   2.007   0.172 -1.0817 -0.7196 -1.2443
   65MOL   H14113069   1.348   2.101   0.314  0.0508 -0.4821  1.2265
   65MOL   O14213070   1.200   2.103   0.179  0.6916  0.6223 -0.7644
   65MOL   C14313071   1.135   2.043   0.063  0.7084  0.6582  0.6264
   65MOL   C14413072   1.061   2.151   7.774 -0.0843  0.5064  0.4675
   65MOL   C14513073   0.938   2.199   0.058  0.3894 -0.4077  0.4037
   65MOL   H14613074   1.077   1.954   0.088 -1.1294  1.8929  0.8790
   65MOL   H14713075   1.208   2.001   7.782 -1.1151  1.1428 -1.6599
   65MOL   H14813076   1.134   2.231   7.766 -0.8131  1.5311  3.1860
   65MOL   H14913077   1.029   2.107   7.680  0.8287  0.7416  0.0522
   65MOL   H15013078   0.976   2.247   0.148  2.4241  2.3759 -1.8527
   65MOL   H15113079   0.861   2.123   0.071 -0.6478  0.8195  1.4835
   65MOL   O15213080   0.879   2.301   7.775  0.2206 -0.0771  0.5960
   65MOL   C15313081   0.791   2.386   0.055  0.1857  0.4203 -0.1050
   65MOL   C15413082   0.690   2.452   7.740 -0.1027  0.2704 -0.3617
   65MOL   C15513083   0.589   2.537   0.034 -0.3756  0.0067 -0.8138
   65MOL   H15613084   0.854   2.463   0.100  1.0357 -0.5713  0.4382
   65MOL   H15713085   0.732   2.340   0.134 -1.5504  0.7309 -1.2024
   65MOL   H15813086   0.750   2.497   7.661 -1.2139  0.9766 -0.8148
   65MOL   H15913087   0.623   2.383   7.691 -1.7679  2.0404 -0.6449
   65MOL   H16013088   0.635   2.604   0.106  0.6779 -0.5364 -0.9720
   65MOL   H16113089   0.515   2.472   0.081  0.9445 -0.3209  0.8753
   65MOL   O16213090   0.524   2.611   7.715  0.1415  0.6655  0.3330
   65MOL   C16313091   0.440   2.710   7.771  0.2242  0.5352 -0.0787
   65MOL   C16413092   0.380   2.790   7.657 -0.1787  0.3483  0.3651
   65MOL   C16513093   0.307   2.917   7.707 -0.8311  0.7608  0.6253
   65MOL   H16613094   0.501   2.783   0.038  2.1439 -2.6046  2.1040
   65MOL   H16713095   0.363   2.668   0.048  0.7792 -3.2056 -1.7566
   65MOL   H16813096   0.459   2.817   7.586 -0.4953  2.9652  0.9623
   65MOL   H16913097   0.317   2.726   7.595 -0.0519  0.0948  0.4973
   65MOL   H17013098   0.374   2.980   7.766  0.6171 -0.9722  0.8669
   65MOL   H17113099   0.230   2.877   7.773 -1.6579 -0.5418 -1.1028
   65MOL   O17213100   0.241   2.989   7.606  0.0522 -0.1621 -0.0455
   65MOL   C17313101   0.128   3.066   7.665 -0.5036 -0.1758 -0.2977
   65MOL   C17413102   0.051   3.149   7.564 -0.8375 -0.8802 -0.0828
   65MOL   C17513103   7.757   3.260   7.622  0.3752  0.1608 -0.2169
   65MOL   H17613104   0.175   3.128   7.742 -2.0583  0.6451  0.0048
   65MOL   H17713105   0.059   3.002   7.720  0.5438  1.0185  2.5405
   65MOL   H17813106   0.130   3.191   7.502 -0.3982  0.1122  1.1467
   65MOL   H17913107   7.778   3.087   7.499 -0.5206  0.3897 -1.6123
   65MOL   H18013108   7.728   3.334   7.548 -1.0285 -0.2124 -0.0562
   65MOL   H18113109   0.036   3.318   7.685 -0.7498  1.1090  0.1287
   65MOL   O18213110   7.655   3.200   7.698 -0.4060 -0.2078  0.0943
   65MOL   C18313111   7.574   3.296   7.763 -0.4532 -0.0297  0.1400
   65MOL   C18413112   7.488   3.214   0.078  0.0579  0.6995 -0.7062
   65MOL   C18513113   7.355   3.159   0.033 -0.0264 -0.1525  0.4730
   65MOL   H18613114   7.514   3.360   7.698 -0.4309  0.9028  1.0152
   65MOL   H18713115   7.636   3.373   0.021 -0.1926 -0.9812  1.4017
   65MOL   H18813116   7.533   3.124   0.120  0.5585  1.5708  0.6641
   65MOL   H18913117   7.463   3.276   0.164 -1.0739  3.0471 -2.6767
   65MOL   H19013118   7.379   3.099   7.733  1.7692  1.2281  0.0067
   65MOL   H19113119   7.301   3.246   7.782 -0.7016 -2.2043 -3.4525
   65MOL   O19213120   7.285   3.082   0.126  1.0741 -0.0137  0.1310
   65MOL   C19313121   7.159   3.041   0.072 -0.5101 -0.0214 -0.1224
   65MOL   C19413122   7.087   2.977   0.184  0.1269 -0.2454 -0.1177
   65MOL   C19513123   7.143   2.849   0.239 -0.1653 -0.2611  0.2530
   65MOL   H19613124   7.168   2.964   7.783  1.0186  0.0381 -0.0169
   65MOL   H19713125   7.101   3.128   0.041 -0.0727 -0.2689 -1.7236
   65MOL   H19813126   7.097   3.048   0.266  1.9580 -1.5006  0.7789
   65MOL   H19913127   6.980   2.969   0.161 -0.4853  1.4739  1.9586
   65MOL   H20013128   7.088   2.819   0.328  0.6632 -0.8703  0.5656
   65MOL   H20113129   7.247   2.866   0.265 -0.1942  0.0573  0.1585
   65MOL   H20213130   7.135   2.777   0.158  0.6689  1.0036 -0.9744
   66MOL     O113131   0.850   5.515   2.376 -0.0779 -0.6149  0.2730
   66MOL     C213132   0.846   5.388   2.433 -0.2573  0.3973  1.0141
   66MOL     C313133   0.696   5.337   2.398  0.2340 -0.5960  0.7116
   66MOL     C413134   0.693   5.190   2.446 -0.0383  0.7398 -0.1449
   66MOL     H513135   0.878   5.394   2.537 -1.4046 -0.2127  1.4124
   66MOL     H613136   0.921   5.335   2.374 -2.9967  0.5941 -2.8752
   66MOL     H713137   0.614   5.398   2.436  0.3713  0.4349 -0.6349
   66MOL     H813138   0.680   5.332   2.290  0.4730 -0.1717  0.6601
   66MOL     H913139   0.672   5.178   2.552 -0.4095 -2.1377 -0.5037
   66MOL    H1013140   0.791   5.145   2.431 -0.8199 -1.2770  0.7058
   66MOL    H1113141   0.936   5.552   2.386 -0.4303 -0.2867  2.3882
   66MOL    O1213142   0.597   5.129   2.368 -0.0393  0.4593  0.0501
   66MOL    C1313143   0.478   5.086   2.432 -0.1994  0.6133 -0.5235
   66MOL    C1413144   0.358   5.075   2.333  0.1659 -0.4143 -0.2560
   66MOL    C1513145   0.346   5.193   2.246 -0.1180 -0.3250  0.2227
   66MOL    H1613146   0.453   5.155   2.513 -2.9247 -1.1833  0.1999
   66MOL    H1713147   0.496   4.994   2.487  0.8484  1.2503  0.2416
   66MOL    H1813148   0.384   4.994   2.265  2.3454  1.1867 -1.3933
   66MOL    H1913149   0.260   5.042   2.367 -0.7171  0.9362 -1.4056
   66MOL    H2013150   0.439   5.216   2.194 -0.7834 -0.2292 -0.9265
   66MOL    H2113151   0.335   5.275   2.317  0.4759 -1.0797  1.2005
   66MOL    O2213152   0.231   5.178   2.160  0.4642  0.1525 -0.0350
   66MOL    C2313153   0.224   5.273   2.060  0.4591 -0.3733  0.1546
   66MOL    C2413154   0.118   5.223   1.960  0.0445 -0.9494  0.9403
   66MOL    C2513155   0.101   5.321   1.843  1.2760 -0.2923  0.0008
   66MOL    H2613156   0.322   5.270   2.012  2.0270  3.3234  2.9369
   66MOL    H2713157   0.197   5.371   2.100  2.0621  0.0788  0.1679
   66MOL    H2813158   0.128   5.118   1.934 -0.9171 -0.1487 -2.8681
   66MOL    H2913159   0.027   5.229   2.019 -1.2759 -1.2531 -1.0290
   66MOL    H3013160   0.204   5.331   1.809  0.8292  1.3398 -0.9836
   66MOL    H3113161   0.048   5.411   1.875 -0.1017 -1.3016  0.5930
   66MOL    O3213162   0.019   5.248   1.748 -0.1893  0.0324  0.1229
   66MOL    C3313163   7.680   5.298   1.703 -0.1616  0.2810 -1.0185
   66MOL    C3413164   7.605   5.201   1.616  0.3713 -0.1941 -0.2546
   66MOL    C3513165   7.652   5.187   1.470 -0.5241 -0.3459 -0.2047
   66MOL    H3613166   7.692   5.400   1.667 -2.5407  0.5121 -1.2364
   66MOL    H3713167   7.624   5.304   1.796 -3.0611 -0.9977 -2.6176
   66MOL    H3813168   7.596   5.105   1.666 -0.8978  0.2374  0.3902
   66MOL    H3913169   7.504   5.242   1.610  0.4197  0.0033  0.2724
   66MOL    H4013170   7.756   5.163   1.491 -0.4361  0.1493 -0.0756
   66MOL    H4113171   7.652   5.284   1.421  0.0419 -0.5322 -0.5728
   66MOL    O4213172   7.584   5.080   1.402 -0.1489  0.1195  0.8812
   66MOL    C4313173   7.519   5.118   1.289 -0.6515  0.0698  0.0505
   66MOL    C4413174   7.385   5.186   1.315 -0.5978  0.1571 -0.2362
   66MOL    C4513175   7.298   5.191   1.189  0.1525 -0.4820  0.3295
   66MOL    H4613176   7.496   5.028   1.231 -1.4396  1.0880 -1.2655
   66MOL    H4713177   7.586   5.156   1.212 -1.2706  1.9534  0.4147
   66MOL    H4813178   7.337   5.124   1.391 -1.0516  0.5320 -0.2138
   66MOL    H4913179   7.405   5.281   1.365  0.8134  1.0016 -2.3622
   66MOL    H5013180   7.215   5.257   1.216  1.4714  1.5530 -0.4518
   66MOL    H5113181   7.277   5.097   1.139 -1.0873  0.2854 -0.6086
   66MOL    O5213182   7.365   5.258   1.077 -0.0462  0.0202 -0.1245
   66MOL    C5313183   7.277   5.266   0.962 -0.4703  1.0464 -0.3802
   66MOL    C5413184   7.329   5.391   0.889  0.1689 -0.4358  0.4594
   66MOL    C5513185   7.238   5.428   0.773 -0.1685 -0.5147  0.0833
   66MOL    H5613186   7.172   5.273   0.989  0.0452  1.8141  1.5229
   66MOL    H5713187   7.279   5.175   0.902 -0.0393  1.0606 -0.3874
   66MOL    H5813188   7.324   5.468   0.965  3.4080 -1.4880  1.8157
   66MOL    H5913189   7.428   5.381   0.845  0.8132  3.5973  0.8470
   66MOL    H6013190   7.131   5.424   0.795  0.4130 -0.2965  3.2962
   66MOL    H6113191   7.242   5.346   0.701 -0.3640 -0.2313 -0.2491
   66MOL    O6213192   7.277   5.559   0.717 -0.2188 -0.1896  0.9007
   66MOL    C6313193   7.179   5.666   0.738  0.0806 -0.4168 -0.0809
   66MOL    C6413194   7.224   5.802   0.676  0.0638  0.8661  0.2014
   66MOL    C6513195   7.367   5.845   0.721 -0.1490  0.2992  0.2897
   66MOL    H6613196   7.170   5.677   0.846 -0.7934 -0.1552 -0.1753
   66MOL    H6713197   7.087   5.631   0.691  0.0137 -0.5636  0.1583
   66MOL    H6813198   7.232   5.789   0.568 -1.2652  2.8185 -0.1640
   66MOL    H6913199   7.149   5.879   0.693 -0.8368 -0.4443  2.2517
   66MOL    H7013200   7.433   5.758   0.724 -0.4077 -0.0304 -2.6245
   66MOL    H7113201   7.380   5.890   0.819 -0.9513  1.0922  0.0364
   66MOL    O7213202   7.402   5.952   0.630  0.0840  0.7326 -0.2807
   66MOL    C7313203   7.523   6.017   0.664 -0.0052  0.0453 -0.5393
   66MOL    C7413204   7.567   6.102   0.542 -0.0689  0.5572  0.1169
   66MOL    C7513205   7.705   6.166   0.560  0.3535 -0.0349 -0.0309
   66MOL    H7613206   7.602   5.948   0.693  0.3167  0.4012 -0.5634
   66MOL    H7713207   7.509   6.083   0.750  0.1755 -2.3930  1.4195
   66MOL    H7813208   7.560   6.036   0.456  2.3293  2.1300 -1.3351
   66MOL    H7913209   7.487   6.176   0.534  1.7284  2.5355 -0.0969
   66MOL    H8013210   7.781   6.101   0.602  2.0471 -0.1642 -3.1983
   66MOL    H8113211   7.689   6.243   0.637  0.9392 -1.5031  1.5941
   66MOL    O8213212   7.749   6.213   0.430  0.2616 -0.0552 -0.5491
   66MOL    C8313213   0.046   6.327   0.449  0.1181 -0.0220  0.0475
   66MOL    C8413214   0.098   6.378   0.320  0.6066 -0.1262  0.3785
   66MOL    C8513215   0.194   6.497   0.331 -0.0268 -0.0606 -0.9109
   66MOL    H8613216   0.132   6.290   0.506  1.7684 -0.7105 -2.7757
   66MOL    H8713217   7.783   6.402   0.508  0.9822  2.2848 -2.0339
   66MOL    H8813218   0.149   6.297   0.267  2.0667 -0.4352  2.2231
   66MOL    H8913219   0.015   6.417   0.260  1.9105  1.3717 -0.4864
   66MOL    H9013220   0.280   6.470   0.394 -1.0738 -2.3210 -0.3860
   66MOL    H9113221   0.145   6.576   0.388  0.0985 -0.3454 -0.3980
   66MOL    O9213222   0.231   6.534   0.197  0.4414 -0.1003  0.1757
   66MOL    C9313223   0.341   6.616   0.199  0.7056 -0.1320 -0.3738
   66MOL    C9413224   0.374   6.670   0.055  0.0702 -0.3920 -0.3852
   66MOL    C9513225   0.507   6.758   0.060  0.3584  0.4277  1.1250
   66MOL    H9613226   0.430   6.564   0.235  1.5635  1.8242  0.4284
   66MOL    H9713227   0.327   6.696   0.271 -0.8662 -0.1987 -0.5959
   66MOL    H9813228   0.396   6.583   7.781  0.5040 -1.5093  1.3153
   66MOL    H9913229   0.288   6.727   0.018  0.8558  1.6708  0.8615
   66MOL   H10013230   0.585   6.699   0.108  0.2806 -0.4370  0.2010
   66MOL   H10113231   0.486   6.853   0.109  0.3178  0.9690  0.0755
   66MOL   O10213232   0.544   6.787   7.718  0.3030  0.1641 -0.5373
   66MOL   C10313233   0.640   6.891   7.704 -0.5006  0.1516 -0.5072
   66MOL   C10413234   0.786   6.860   7.765 -0.0746  0.4951 -0.3048
   66MOL   C10513235   0.847   6.735   7.704 -0.1929 -0.2483 -0.4566
   66MOL   H10613236   0.604   6.977   7.760 -1.1539 -0.6745  0.3512
   66MOL   H10713237   0.629   6.917   7.599 -1.8202  0.1725 -0.3800
   66MOL   H10813238   0.854   6.941   7.741  0.9018 -0.1262  0.3148
   66MOL   H10913239   0.787   6.851   0.086 -0.4887  3.4036 -0.0432
   66MOL   H11013240   0.829   6.740   7.596 -2.2067 -3.0724 -0.3136
   66MOL   H11113241   0.794   6.649   7.745 -0.3010  0.2607  0.4966
   66MOL   O11213242   0.981   6.727   7.748 -0.1075  0.2966 -0.0219
   66MOL   C11313243   1.039   6.612   7.680 -0.1037 -0.5948  0.2919
   66MOL   C11413244   1.185   6.611   7.693  0.4633  0.1639  0.4268
   66MOL   C11513245   1.228   6.575   0.047  0.0118 -0.2336 -0.5679
   66MOL   H11613246   1.010   6.605   7.575  1.0340  0.8513 -0.1565
   66MOL   H11713247   0.999   6.523   7.727 -1.0795 -2.1165 -3.2849
   66MOL   H11813248   1.224   6.536   7.624 -1.4268  0.5686 -1.0965
   66MOL   H11913249   1.234   6.703   7.664  0.9894 -0.4541 -0.6807
   66MOL   H12013250   1.178   6.481   0.067 -1.2387  0.0812 -2.0680
   66MOL   H12113251   1.207   6.658   0.114  3.4042  0.5588 -0.3937
   66MOL   O12213252   1.367   6.539   0.050 -0.7531  0.1568 -0.1250
   66MOL   C12313253   1.432   6.564   0.172 -0.0921  0.3066  1.1392
   66MOL   C12413254   1.391   6.475   0.283 -0.7944  0.1036  0.2826
   66MOL   C12513255   1.478   6.484   0.402 -0.0432 -0.9325  0.1274
   66MOL   H12613256   1.420   6.668   0.203 -2.6102  0.6841 -0.9918
   66MOL   H12713257   1.538   6.556   0.144 -0.1638  1.5890  0.4440
   66MOL   H12813258   1.288   6.499   0.310 -1.1499 -2.2593  1.1516
   66MOL   H12913259   1.391   6.372   0.247  2.1547 -0.7998  2.6602
   66MOL   H13013260   1.554   6.560   0.384 -1.1943  0.3538  0.6037
   66MOL   H13113261   1.527   6.389   0.424  0.1071 -1.2210 -1.3755
   66MOL   O13213262   1.400   6.522   0.520 -0.4695 -0.2993  0.5647
   66MOL   C13313263   1.441   6.634   0.590 -0.4499  0.5986 -0.1364
   66MOL   C13413264   1.394   6.765   0.523  0.0941  0.3423  0.2668
   66MOL   C13513265   1.418   6.891   0.608  0.3243  0.2025 -0.1021
   66MOL   H13613266   1.550   6.624   0.592 -0.6395 -2.8679 -2.8919
   66MOL   H13713267   1.408   6.625   0.693 -1.5219 -3.4920 -0.7565
   66MOL   H13813268   1.444   6.763   0.426 -1.0336 -2.3381 -0.2997
   66MOL   H13913269   1.289   6.773   0.495  0.2307  0.7782 -0.1381
   66MOL   H14013270   1.358   6.977   0.578  0.2633  0.3291  0.3865
   66MOL   H14113271   1.521   6.914   0.582  0.1461  0.0142 -0.9974
   66MOL   O14213272   1.397   6.880   0.754  0.5730 -0.7424 -0.2515
   66MOL   C14313273   1.469   6.965   0.838 -0.0030 -0.0199 -0.9765
   66MOL   C14413274   1.454   7.115   0.809  0.3124  0.9984  0.0394
   66MOL   C14513275   1.512   7.195   0.925  0.0090  0.0630 -0.5708
   66MOL   H14613276   1.571   6.928   0.830 -0.3230 -0.8910 -1.0568
   66MOL   H14713277   1.439   6.959   0.943 -0.1368  0.4732 -0.9871
   66MOL   H14813278   1.512   7.146   0.722  0.4510  1.3834  0.2691
   66MOL   H14913279   1.351   7.147   0.794 -0.2050 -0.4032  0.5200
   66MOL   H15013280   1.615   7.167   0.947  0.2895  1.0742 -0.5502
   66MOL   H15113281   1.464   7.175   1.021  1.2233 -0.2698 -0.0349
   66MOL   O15213282   1.506   7.334   0.901  0.6139 -0.4972 -0.5166
   66MOL   C15313283   1.587   7.407   0.992  0.6856 -0.0194  0.2074
   66MOL   C15413284   1.606   7.544   0.922  0.2649 -0.0459 -0.7408
   66MOL   C15513285   1.697   7.532   0.797 -0.2519  0.0011  0.0539
   66MOL   H15613286   1.681   7.352   0.998  0.8661  0.3056  0.3933
   66MOL   H15713287   1.543   7.419   1.091  0.6525 -1.9202  0.4249
   66MOL   H15813288   1.508   7.581   0.892  0.2452  1.8953  1.5542
   66MOL   H15913289   1.652   7.613   0.993 -0.6167 -0.4827  0.2650
   66MOL   H16013290   1.666   7.443   0.743 -0.0856  0.4455 -0.7767
   66MOL   H16113291   1.797   7.509   0.832  1.7664 -1.4482 -6.0955
   66MOL   O16213292   1.721   7.664   0.747  0.3140  0.7651 -0.3388
   66MOL   C16313293   1.781   7.664   0.618 -0.6698 -0.2296  1.4634
   66MOL   C16413294   1.732   7.788   0.549  0.2635  0.0080  0.5320
   66MOL   C16513295   1.781   0.017   0.404 -0.6487 -0.1438  0.5149
   66MOL   H16613296   1.741   7.581   0.559 -1.5343  1.0850  0.1795
   66MOL   H16713297   1.889   7.658   0.632 -0.5456  0.7025  0.9277
   66MOL   H16813298   1.624   7.769   0.549 -0.0916  1.9247 -0.1698
   66MOL   H16913299   1.754   0.088   0.608  2.9040  0.1392 -0.5832
   66MOL   H17013300   1.888   0.002   0.393 -0.8232 -0.5527 -0.8044
   66MOL   H17113301   1.768   0.121   0.374  1.9475 -0.2168 -1.0576
   66MOL   O17213302   1.710   7.712   0.321  0.1995 -0.4575 -0.0337
   66MOL   C17313303   1.724   7.726   0.181  0.6498  0.2281  0.6122
   66MOL   C17413304   1.675   7.601   0.123  0.1477  0.8718  0.6997
   66MOL   C17513305   1.662   7.593   7.764 -0.2178  0.2292  0.4352
   66MOL   H17613306   1.825   7.747   0.147  0.4497  1.3534  0.7175
   66MOL   H17713307   1.651   0.015   0.160  1.2405  0.7859  0.5992
   66MOL   H17813308   1.750   7.523   0.137  0.0494  1.2744  3.8415
   66MOL   H17913309   1.580   7.572   0.169  0.2673  2.1273  1.7506
   66MOL   H18013310   1.752   7.607   7.703 -1.3258 -1.7051 -1.7362
   66MOL   H18113311   1.584   7.656   7.723  0.5914 -0.1910 -1.8584
   66MOL   O18213312   1.620   7.463   7.737 -0.7452 -0.2456  0.2098
   66MOL   C18313313   1.591   7.419   7.604 -0.5693  0.3620 -0.6619
   66MOL   C18413314   1.612   7.269   7.616 -0.3105 -0.3049  0.4335
   66MOL   C18513315   1.509   7.191   7.692  0.0163 -0.0766  0.4984
   66MOL   H18613316   1.671   7.462   7.544 -0.6985  0.9700 -0.3987
   66MOL   H18713317   1.497   7.446   7.557 -0.2943  0.3961 -1.1922
   66MOL   H18813318   1.615   7.238   7.512 -0.6057  2.7021 -0.5246
   66MOL   H18913319   1.714   7.241   7.640 -1.1987 -1.0879  3.5830
   66MOL   H19013320   1.409   7.219   7.656 -1.2231 -2.9912  1.5429
   66MOL   H19113321   1.521   7.232   0.004 -1.5775  1.7834 -0.0163
   66MOL   O19213322   1.538   7.055   7.676  0.5256 -0.3367 -0.0520
   66MOL   C19313323   1.450   6.965   7.731  0.7220  0.4499 -0.8030
   66MOL   C19413324   1.503   6.820   7.707 -0.2704 -1.1440 -1.1811
   66MOL   C19513325   1.644   6.798   7.755 -0.0055 -0.8092  0.3537
   66MOL   H19613326   1.350   6.965   7.689 -0.1192  0.6564  1.1280
   66MOL   H19713327   1.449   6.986   0.050 -1.3341 -1.1451 -0.4827
   66MOL   H19813328   1.431   6.751   7.753  0.4628 -0.0269  1.7914
   66MOL   H19913329   1.505   6.810   7.599  1.0343 -1.0331 -1.1739
   66MOL   H20013330   1.655   6.691   7.769  0.7774 -0.9192 -0.9447
   66MOL   H20113331   1.662   6.859   0.055  1.9737 -0.0148 -0.5603
   66MOL   H20213332   1.711   6.842   7.680 -1.3299 -0.3707 -0.5892
   67MOL     O113333   0.729   1.190   6.313 -0.2871  0.9367 -0.3035
   67MOL     C213334   0.864   1.221   6.328  0.6719 -0.0505 -0.1490
   67MOL     C313335   0.917   1.192   6.466 -0.0277 -0.1258  0.0667
   67MOL     C413336   1.070   1.187   6.486 -0.3853  0.3246  0.5512
   67MOL     H513337   0.876   1.327   6.310  2.6913  0.4905  3.8313
   67MOL     H613338   0.918   1.167   6.251 -1.7987  0.4291 -2.2814
   67MOL     H713339   0.884   1.276   6.527  2.1594  0.0329  1.0608
   67MOL     H813340   0.877   1.100   6.509 -2.2715 -0.0796 -1.7976
   67MOL     H913341   1.111   1.286   6.466 -2.0177  1.3081  1.9253
   67MOL    H1013342   1.125   1.108   6.433  0.6661  0.6960  1.0650
   67MOL    H1113343   0.677   1.245   6.369 -0.4820 -1.1024  1.5954
   67MOL    O1213344   1.104   1.179   6.625  0.6026  0.5352  0.3032
   67MOL    C1313345   1.126   1.046   6.670 -0.6457  0.0892 -0.8983
   67MOL    C1413346   1.078   1.037   6.816  0.2018  0.6182  0.7440
   67MOL    C1513347   1.147   0.917   6.888  0.8595  0.4888  0.1199
   67MOL    H1613348   1.233   1.030   6.664 -0.3014  1.6823  0.5509
   67MOL    H1713349   1.071   0.971   6.613 -3.1127  1.5636 -0.5487
   67MOL    H1813350   1.099   1.133   6.865  0.3269  2.3177 -2.4724
   67MOL    H1913351   0.973   1.015   6.831  0.4039  0.5751  2.1541
   67MOL    H2013352   1.256   0.917   6.879  0.7658 -0.4547 -1.1674
   67MOL    H2113353   1.114   0.820   6.851 -1.1765  1.4851 -0.7181
   67MOL    O2213354   1.114   0.923   7.020 -0.1751  0.5513  0.1399
   67MOL    C2313355   1.171   0.828   7.104 -0.0736  0.4862  0.6136
   67MOL    C2413356   1.255   0.911   7.200  0.0531 -0.2174 -0.1991
   67MOL    C2513357   1.303   0.822   7.315  0.4149  0.4468 -0.1190
   67MOL    H2613358   1.229   0.759   7.043  1.5779  1.4861  1.0090
   67MOL    H2713359   1.095   0.770   7.156 -0.4229 -0.6745 -1.1318
   67MOL    H2813360   1.346   0.950   7.154  0.0338 -0.8145 -0.7498
   67MOL    H2913361   1.194   0.988   7.249  1.8521  1.5148 -0.6178
   67MOL    H3013362   1.352   0.731   7.279 -0.7902 -0.2062 -0.1522
   67MOL    H3113363   1.209   0.797   7.364 -0.3057  1.2478 -1.0762
   67MOL    O3213364   1.383   0.892   7.406  0.3697  0.0789  0.0468
   67MOL    C3313365   1.429   0.803   7.511  0.0860 -0.2376  0.4800
   67MOL    C3413366   1.540   0.877   7.592 -0.5588  0.0425  0.4938
   67MOL    C3513367   1.577   0.812   7.726 -0.3111 -0.0888 -1.2146
   67MOL    H3613368   1.459   0.706   7.470  0.9477  0.7056 -1.1946
   67MOL    H3713369   1.347   0.783   7.580  0.4021 -1.1215  0.5991
   67MOL    H3813370   1.633   0.885   7.535 -1.9167  2.0782 -1.4926
   67MOL    H3913371   1.507   0.979   7.610  0.0648  0.3397 -0.0209
   67MOL    H4013372   1.682   0.826   7.748 -0.2114  0.2337 -1.8666
   67MOL    H4113373   1.569   0.704   7.716  0.3639 -0.2375 -0.2357
   67MOL    O4213374   1.497   0.866   0.045 -0.1238 -0.2966 -0.3475
   67MOL    C4313375   1.529   0.824   0.181  0.1728  0.2468  0.6752
   67MOL    C4413376   1.421   0.874   0.282 -0.1388  0.4739  0.5708
   67MOL    C4513377   1.434   0.791   0.415  0.2986  0.2566  0.4501
   67MOL    H4613378   1.632   0.850   0.207 -0.0256  1.2711  0.4354
   67MOL    H4713379   1.523   0.715   0.178  1.6216  0.1838 -2.2507
   67MOL    H4813380   1.438   0.981   0.295  1.0702  0.4010 -0.3412
   67MOL    H4913381   1.318   0.857   0.252  0.3184 -0.0779 -0.7021
   67MOL    H5013382   1.542   0.785   0.424  0.4986  2.7321  0.0279
   67MOL    H5113383   1.404   0.687   0.397 -0.0396  0.5536 -0.7849
   67MOL    O5213384   1.382   0.850   0.532 -0.0608  0.1659 -0.1538
   67MOL    C5313385   1.408   0.767   0.650 -0.3778  0.1792  0.1897
   67MOL    C5413386   1.344   0.841   0.780  0.0507  0.0872 -0.2149
   67MOL    C5513387   1.400   0.802   0.915 -0.8822 -0.3020  0.5075
   67MOL    H5613388   1.513   0.742   0.657 -0.4251  0.4465  1.8677
   67MOL    H5713389   1.379   0.664   0.626 -0.9637 -0.3663  3.1066
   67MOL    H5813390   1.341   0.949   0.761 -3.0536  0.1346  0.4193
   67MOL    H5913391   1.239   0.815   0.785  0.0651  0.3017  1.3132
   67MOL    H6013392   1.377   0.867   0.999  0.7477  0.3452  0.4674
   67MOL    H6113393   1.509   0.812   0.918 -0.8870 -0.5652  1.4777
   67MOL    O6213394   1.355   0.676   0.950  0.1060  0.0133  0.3817
   67MOL    C6313395   1.418   0.622   1.068  0.2286  0.0559  0.2057
   67MOL    C6413396   1.336   0.501   1.104  0.1199  0.0163 -0.4309
   67MOL    C6513397   1.392   0.427   1.224  0.6459 -0.1649  0.2312
   67MOL    H6613398   1.410   0.697   1.147 -1.0344 -0.7990  0.9007
   67MOL    H6713399   1.525   0.608   1.049  0.1783  2.0387 -1.7399
   67MOL    H6813400   1.233   0.528   1.127 -0.1738 -2.5506  1.4675
   67MOL    H6913401   1.328   0.438   1.015 -2.6016  0.8451 -0.7973
   67MOL    H7013402   1.329   0.346   1.262  2.0147 -1.3302  0.0775
   67MOL    H7113403   1.430   0.498   1.298  0.8221 -1.2831  1.2320
   67MOL    O7213404   1.517   0.371   1.178 -0.7531 -0.8139  0.0572
   67MOL    C7313405   1.576   0.295   1.280  0.3307 -0.4237  0.5060
   67MOL    C7413406   1.715   0.242   1.249 -0.3274  1.0978  0.1698
   67MOL    C7513407   1.735   0.156   1.118  0.7955  0.1310  0.8814
   67MOL    H7613408   1.508   0.211   1.290  0.1830 -0.2171  1.2449
   67MOL    H7713409   1.588   0.346   1.375 -0.6873  1.3348 -0.2989
   67MOL    H7813410   1.783   0.327   1.248  0.5640  0.3947 -2.3781
   67MOL    H7913411   1.755   0.177   1.327 -1.8961 -0.1297 -0.0299
   67MOL    H8013412   1.695   0.210   1.033 -0.9043  0.5630  1.9301
   67MOL    H8113413   1.678   0.066   1.138  0.1036  0.1553 -0.9785
   67MOL    O8213414   1.868   0.125   1.116  0.3079 -0.1297 -0.0218
   67MOL    C8313415   1.897   0.042   1.005 -0.2517 -0.1458 -1.2617
   67MOL    C8413416   2.039   7.781   1.015  0.4735 -0.4059  0.2440
   67MOL    C8513417   2.090   7.693   0.895  0.2478 -0.3893 -0.0434
   67MOL    H8613418   1.892   0.094   0.909  2.4577  0.7729 -0.9443
   67MOL    H8713419   1.826   7.748   1.005  1.7277 -1.9243 -0.2983
   67MOL    H8813420   2.105   0.079   1.024  1.1417 -0.9313  0.3937
   67MOL    H8913421   2.069   7.734   1.108  1.8290 -0.3862 -0.1770
   67MOL    H9013422   2.058   7.737   0.801 -0.1507 -2.2012 -0.7805
   67MOL    H9113423   2.029   7.603   0.900  1.6301 -1.3255  0.4446
   67MOL    O9213424   2.226   7.648   0.904 -0.0409 -0.6781  0.4662
   67MOL    C9313425   2.261   7.548   0.807 -0.2284 -0.1734  0.3972
   67MOL    C9413426   2.410   7.534   0.826 -0.4241 -0.1029 -0.8367
   67MOL    C9513427   2.467   7.423   0.738 -1.1855 -0.1487 -0.5047
   67MOL    H9613428   2.231   7.576   0.706  0.0679  0.9297  0.6125
   67MOL    H9713429   2.217   7.451   0.827  1.2568 -1.1075 -0.7293
   67MOL    H9813430   2.463   7.627   0.808 -2.6492  1.4290  0.2328
   67MOL    H9913431   2.437   7.504   0.928 -0.5022 -1.0290 -1.0830
   67MOL   H10013432   2.407   7.333   0.756  0.8035 -1.3619  0.2068
   67MOL   H10113433   2.571   7.404   0.763 -1.0886 -0.0807 -0.8457
   67MOL   O10213434   2.449   7.471   0.604  0.0300  0.1471  0.0303
   67MOL   C10313435   2.500   7.374   0.514 -0.7533 -0.0075 -0.0698
   67MOL   C10413436   2.464   7.399   0.364  0.2179  0.9205 -0.1574
   67MOL   C10513437   2.510   7.291   0.276  0.9415  0.0773 -0.3689
   67MOL   H10613438   2.463   7.276   0.545 -1.3276  1.0547  2.7565
   67MOL   H10713439   2.608   7.388   0.518 -1.2262  3.8280  0.6577
   67MOL   H10813440   2.355   7.404   0.365  0.2987  4.0211  0.7696
   67MOL   H10913441   2.503   7.500   0.347  0.2402  0.9850  0.2532
   67MOL   H11013442   2.490   7.193   0.319 -0.8400  0.3936 -0.4440
   67MOL   H11113443   2.619   7.298   0.275  0.8202  2.4423 -0.3483
   67MOL   O11213444   2.450   7.313   0.145 -0.0593 -0.5739  0.2486
   67MOL   C11313445   2.487   7.213   0.049  0.1051 -0.4267 -0.0624
   67MOL   C11413446   2.389   7.222   7.724 -0.0801  0.5153 -0.0369
   67MOL   C11513447   2.413   7.126   7.604  0.3419  0.1558 -0.2222
   67MOL   H11613448   2.458   7.116   0.087 -1.3432 -0.3143 -0.8390
   67MOL   H11713449   2.592   7.204   0.020  0.7360 -0.4394  2.1723
   67MOL   H11813450   2.291   7.222   7.772 -0.7051  2.3816 -1.2497
   67MOL   H11913451   2.388   7.324   7.684 -1.1475 -0.0520 -1.4996
   67MOL   H12013452   2.429   7.024   7.637 -2.0301  0.1536  1.0272
   67MOL   H12113453   2.507   7.153   7.555  1.2201 -0.4629  1.1141
   67MOL   O12213454   2.313   7.134   7.504  0.1552  0.3205 -0.0097
   67MOL   C12313455   2.324   7.040   7.402 -0.0334 -0.3556 -0.1121
   67MOL   C12413456   2.199   7.040   7.321  0.5781 -0.0908 -0.2234
   67MOL   C12513457   2.207   6.941   7.200 -0.6690  0.1917 -0.2544
   67MOL   H12613458   2.355   6.940   7.433  1.5689 -0.0087 -0.5350
   67MOL   H12713459   2.403   7.070   7.334 -0.8653 -0.5579 -1.1695
   67MOL   H12813460   2.112   7.017   7.382  0.6333 -0.1672 -0.1728
   67MOL   H12913461   2.178   7.137   7.277  0.6500  1.0007  2.0950
   67MOL   H13013462   2.225   6.837   7.228  3.5731  0.6130 -0.9870
   67MOL   H13113463   2.284   6.967   7.127 -0.6405  1.7825  0.3188
   67MOL   O13213464   2.091   6.947   7.120 -0.6500  0.7184  0.0151
   67MOL   C13313465   2.087   6.846   7.019 -0.2407  1.0130 -0.6633
   67MOL   C13413466   1.948   6.849   6.963  0.0085 -0.5094 -0.4161
   67MOL   C13513467   1.905   6.760   6.849 -0.2443 -0.0255 -0.2457
   67MOL   H13613468   2.101   6.751   7.071 -2.4657  0.8976 -0.2429
   67MOL   H13713469   2.164   6.855   6.942  0.9010  0.6450  0.4081
   67MOL   H13813470   1.871   6.834   7.039  0.2497  0.0567 -0.0551
   67MOL   H13913471   1.942   6.953   6.929 -0.9256 -0.7507 -1.0033
   67MOL   H14013472   1.959   6.666   6.835 -0.5393  0.0904 -2.2846
   67MOL   H14113473   1.929   6.808   6.754 -0.7501 -0.2717 -0.5022
   67MOL   O14213474   1.765   6.760   6.834  0.0807  0.0001  0.2593
   67MOL   C14313475   1.696   6.654   6.896  0.4351 -0.9266  0.6264
   67MOL   C14413476   1.545   6.661   6.868  0.0014  0.0565  0.6702
   67MOL   C14513477   1.475   6.777   6.949 -0.0059  0.0347  0.4179
   67MOL   H14613478   1.722   6.650   7.001  0.0763 -0.9875  0.7156
   67MOL   H14713479   1.738   6.563   6.853  1.9332  1.0581 -2.3081
   67MOL   H14813480   1.520   6.669   6.762 -1.6664  1.3744  1.1404
   67MOL   H14913481   1.501   6.569   6.909  2.1302 -1.6253 -0.7134
   67MOL   H15013482   1.540   6.863   6.937  1.0095 -1.1241 -2.9929
   67MOL   H15113483   1.472   6.754   7.055 -1.0916 -0.1258  0.3621
   67MOL   O15213484   1.341   6.804   6.897 -0.0403 -0.0190 -0.1284
   67MOL   C15313485   1.272   6.912   6.951  0.2692 -0.2284 -0.3195
   67MOL   C15413486   1.119   6.876   6.962  0.6788  0.0344  0.1383
   67MOL   C15513487   1.038   7.002   7.020  0.3643 -0.0938 -0.1627
   67MOL   H15613488   1.292   6.995   6.883 -2.9754  1.1541  0.3270
   67MOL   H15713489   1.303   6.943   7.051  0.4112  1.2563 -0.8128
   67MOL   H15813490   1.078   6.866   6.862  0.7465  0.3175  0.0814
   67MOL   H15913491   1.098   6.786   7.021 -0.7724  1.2702  1.5425
   67MOL   H16013492   1.044   7.088   6.953  1.6428 -0.2960 -0.3350
   67MOL   H16113493   1.081   7.039   7.113 -0.6903  2.7161 -0.7734
   67MOL   O16213494   0.900   6.966   7.044  0.3325  0.2116 -0.7401
   67MOL   C16313495   0.816   6.963   6.929 -0.1517 -0.1858 -0.6192
   67MOL   C16413496   0.685   6.899   6.957  0.1305 -0.1650 -0.0448
   67MOL   C16513497   0.618   6.985   7.061 -0.7639  0.1789  0.3968
   67MOL   H16613498   0.872   6.910   6.853  0.8628  4.3936 -3.2318
   67MOL   H16713499   0.792   7.061   6.887 -0.1521 -0.3855 -1.0824
   67MOL   H16813500   0.619   6.884   6.872 -1.6940 -1.5712  1.5632
   67MOL   H16913501   0.690   6.793   6.983  1.5780  0.2443  1.4209
   67MOL   H17013502   0.586   7.082   7.023  1.5317  0.5045 -0.7525
   67MOL   H17113503   0.680   7.004   7.149  0.5967  0.7252 -0.6773
   67MOL   O17213504   0.493   6.926   7.091  0.4986  0.1099  0.0500
   67MOL   C17313505   0.452   6.934   7.228  0.2069  0.1434  0.6987
   67MOL   C17413506   0.300   6.904   7.241 -0.1888 -0.8345  0.0499
   67MOL   C17513507   0.234   6.900   7.375 -0.0870 -0.3287  0.1385
   67MOL   H17613508   0.475   7.031   7.272  0.6143  0.4684 -0.2199
   67MOL   H17713509   0.508   6.857   7.281  1.9771  0.7906 -0.1587
   67MOL   H17813510   0.247   6.973   7.174  0.3591 -1.9130 -1.5293
   67MOL   H17913511   0.283   6.806   7.196 -0.0623 -1.0266  0.4180
   67MOL   H18013512   0.271   6.982   7.437  0.5964 -1.6426  1.5034
   67MOL   H18113513   0.254   6.807   7.428 -1.0084  0.3376  1.6795
   67MOL   O18213514   0.100   6.908   7.336  0.0754  0.0373  0.0862
   67MOL   C18313515   7.784   6.931   7.433 -0.7757 -0.4813  0.4584
   67MOL   C18413516   7.655   6.908   7.360  0.1351 -0.3122  0.5783
   67MOL   C18513517   7.639   6.766   7.306  0.1402  0.3873  1.1710
   67MOL   H18613518   7.784   7.033   7.471  0.1116  0.3521 -1.6674
   67MOL   H18713519   7.786   6.868   7.521 -0.3425 -0.9756  0.1020
   67MOL   H18813520   7.565   6.936   7.415 -1.2053 -1.9709 -0.7393
   67MOL   H18913521   7.668   6.982   7.281 -2.2921  1.3069  1.6244
   67MOL   H19013522   7.614   6.693   7.383  0.0671 -0.2655  0.5363
   67MOL   H19113523   7.722   6.714   7.258 -1.1550 -2.0268  1.4593
   67MOL   O19213524   7.535   6.766   7.204 -0.4306 -0.0706  0.2119
   67MOL   C19313525   7.501   6.633   7.164  0.0979  0.7537 -0.2379
   67MOL   C19413526   7.435   6.549   7.270 -0.1596  0.0143  0.0123
   67MOL   C19513527   7.307   6.614   7.320 -0.4811 -0.7582  0.4837
   67MOL   H19613528   7.589   6.585   7.123  0.1958 -0.3072  1.2059
   67MOL   H19713529   7.421   6.638   7.089 -0.7276 -1.8681  0.4383
   67MOL   H19813530   7.397   6.464   7.213 -0.4071 -0.1194  0.3801
   67MOL   H19913531   7.514   6.506   7.332  0.9225 -2.0670 -2.7033
   67MOL   H20013532   7.253   6.636   7.228  0.0699 -1.4299 -0.0051
   67MOL   H20113533   7.325   6.714   7.361  1.7512 -0.5088 -0.9659
   67MOL   H20213534   7.243   6.558   7.387 -1.4951 -0.8346 -0.5449
   68MOL     O113535   0.986   2.664   7.611  0.2708  0.2183 -0.5057
   68MOL     C213536   1.007   2.541   7.544 -0.2219 -0.4926  0.1601
   68MOL     C313537   1.141   2.520   7.487 -0.5106  0.2630 -0.2890
   68MOL     C413538   1.159   2.372   7.440  0.7919 -0.0972 -0.1062
   68MOL     H513539   0.941   2.527   7.459 -0.6177  0.5746  0.2923
   68MOL     H613540   1.002   2.454   7.610  1.8456 -1.0186 -0.3474
   68MOL     H713541   1.171   2.590   7.409 -2.6608  0.5969 -0.8404
   68MOL     H813542   1.215   2.538   7.565 -1.1482 -0.2340  0.4396
   68MOL     H913543   1.080   2.340   7.372 -2.0802 -0.6431  3.3084
   68MOL    H1013544   1.150   2.302   7.523  0.4789 -1.6021 -1.3803
   68MOL    H1113545   1.034   2.670   7.692 -1.3952  0.4742  0.4881
   68MOL    O1213546   1.288   2.345   7.381  0.0127  0.2249  0.4949
   68MOL    C1313547   1.298   2.207   7.354  0.5246 -0.8859  0.2964
   68MOL    C1413548   1.430   2.189   7.273 -0.0749 -0.0809  0.0157
   68MOL    C1513549   1.418   2.265   7.136  0.5157  0.0207 -0.4470
   68MOL    H1613550   1.211   2.177   7.296  0.6888  0.8087 -0.8641
   68MOL    H1713551   1.301   2.152   7.448  0.7244 -1.9693 -0.3258
   68MOL    H1813552   1.516   2.236   7.322 -1.0104 -1.5307  3.1383
   68MOL    H1913553   1.446   2.082   7.264 -0.1851 -0.2751  1.9412
   68MOL    H2013554   1.392   2.370   7.150 -1.4191 -0.2891 -1.6399
   68MOL    H2113555   1.333   2.221   7.085 -0.3008  1.1390 -0.0915
   68MOL    O2213556   1.541   2.251   7.059 -0.0810 -0.2976  0.0206
   68MOL    C2313557   1.528   2.256   6.915 -0.9931  0.7528  0.0502
   68MOL    C2413558   1.669   2.265   6.848 -0.5182  0.3021  0.2836
   68MOL    C2513559   1.655   2.309   6.697  0.8502  0.6317  0.3971
   68MOL    H2613560   1.472   2.343   6.882 -1.9480  0.8909  2.0375
   68MOL    H2713561   1.481   2.167   6.872  0.6832 -0.3128  0.3657
   68MOL    H2813562   1.735   2.328   6.908 -1.9358  0.9231  1.2110
   68MOL    H2913563   1.713   2.167   6.862 -1.2099  0.0655  0.7911
   68MOL    H3013564   1.594   2.397   6.678 -1.5789 -1.3886 -1.6003
   68MOL    H3113565   1.609   2.224   6.646 -2.3043  0.9321  2.5899
   68MOL    O3213566   1.786   2.323   6.657  0.2548  0.8460  0.0801
   68MOL    C3313567   1.792   2.316   6.517  0.3228 -0.2717 -0.1523
   68MOL    C3413568   1.918   2.383   6.467  0.2220 -0.1914  0.4512
   68MOL    C3513569   1.959   2.351   6.322 -0.0186 -0.0879  0.1811
   68MOL    H3613570   1.703   2.357   6.467  1.8600 -2.8866 -5.4433
   68MOL    H3713571   1.804   2.211   6.492  1.7462 -0.6504  2.0105
   68MOL    H3813572   1.897   2.490   6.470  0.0178 -0.1578 -1.5113
   68MOL    H3913573   1.993   2.353   6.541 -0.1407 -1.3163  0.3803
   68MOL    H4013574   2.006   2.253   6.315  1.5420  0.6418  0.3825
   68MOL    H4113575   2.043   2.418   6.302 -1.3690  0.6680 -3.3530
   68MOL    O4213576   1.863   2.383   6.218 -0.5528 -0.1550 -0.0661
   68MOL    C4313577   1.905   2.334   6.093 -0.1519 -0.7669  0.1344
   68MOL    C4413578   1.794   2.360   5.992 -0.3216  0.7132  0.2421
   68MOL    C4513579   1.832   2.353   5.836  0.0225  0.3823 -0.5239
   68MOL    H4613580   1.927   2.228   6.084 -0.6905 -0.8403 -0.3598
   68MOL    H4713581   1.995   2.389   6.064 -1.5717  1.0659 -0.9226
   68MOL    H4813582   1.718   2.283   6.004 -0.3182  0.5198 -0.9360
   68MOL    H4913583   1.740   2.452   6.013  0.4700  1.3789 -0.5871
   68MOL    H5013584   1.909   2.429   5.824  2.9339 -2.3675 -0.1214
   68MOL    H5113585   1.745   2.378   5.775  0.2103 -1.3611 -1.5634
   68MOL    O5213586   1.866   2.220   5.806 -0.5421  0.0255 -0.4169
   68MOL    C5313587   1.948   2.201   5.685  0.8686  0.1323 -0.0157
   68MOL    C5413588   2.092   2.257   5.716 -0.9629 -0.2388  0.1372
   68MOL    C5513589   2.175   2.187   5.828  0.2185 -0.3249 -0.2721
   68MOL    H5613590   1.904   2.258   5.604  1.3952  0.8543  0.2071
   68MOL    H5713591   1.946   2.098   5.647 -1.7082 -0.4572  1.6016
   68MOL    H5813592   2.146   2.254   5.622  0.5574  1.5651  0.9137
   68MOL    H5913593   2.082   2.365   5.733 -1.6617 -0.0548 -1.4076
   68MOL    H6013594   2.174   2.079   5.817  1.4304 -0.3328 -0.3657
   68MOL    H6113595   2.135   2.209   5.927 -0.7376 -1.2278 -0.4542
   68MOL    O6213596   2.316   2.221   5.816 -0.1161  0.0592 -0.0500
   68MOL    C6313597   2.408   2.148   5.887 -0.2936  0.6866 -0.2432
   68MOL    C6413598   2.556   2.186   5.865  0.2934 -0.3214  0.7812
   68MOL    C6513599   2.650   2.105   5.955  0.0888 -0.0371  0.5719
   68MOL    H6613600   2.405   2.043   5.858 -1.1285  0.7278 -0.3318
   68MOL    H6713601   2.376   2.133   5.991 -2.0894  0.6817 -0.7860
   68MOL    H6813602   2.578   2.166   5.760 -1.7757  0.8945  0.0741
   68MOL    H6913603   2.568   2.293   5.878 -2.9298  0.6172 -3.2045
   68MOL    H7013604   2.627   2.000   5.940  1.1351 -0.3459  1.1125
   68MOL    H7113605   2.623   2.127   6.058  1.1217 -0.5224  0.9502
   68MOL    O7213606   2.782   2.140   5.935 -0.5356 -0.2182 -0.4412
   68MOL    C7313607   2.840   2.098   5.820 -0.5167  0.1964 -0.2061
   68MOL    C7413608   2.989   2.141   5.811 -0.3563  0.3019  0.0366
   68MOL    C7513609   3.070   2.045   5.725  1.1736  1.0494 -0.2089
   68MOL    H7613610   2.777   2.134   5.738 -1.5254 -1.1878 -0.0579
   68MOL    H7713611   2.842   1.989   5.820  1.4964  0.2130 -0.6685
   68MOL    H7813612   2.982   2.241   5.767 -0.4226 -0.3564 -1.4779
   68MOL    H7913613   3.036   2.146   5.909 -1.3847 -0.3015  0.5761
   68MOL    H8013614   3.162   2.089   5.686  0.5422  1.4197 -1.2864
   68MOL    H8113615   2.997   2.024   5.647  0.5259 -0.8967  0.8739
   68MOL    O8213616   3.093   1.925   5.800  0.0944  0.1123 -0.2421
   68MOL    C8313617   3.155   1.828   5.729 -0.5322  0.1598 -0.0288
   68MOL    C8413618   3.193   1.718   5.840 -0.2951 -0.3162  0.0054
   68MOL    C8513619   3.097   1.601   5.864 -0.1978 -0.5156  0.7473
   68MOL    H8613620   3.253   1.861   5.694  0.2115 -0.4537  1.4444
   68MOL    H8713621   3.106   1.792   5.638 -2.2786  0.1426  0.9065
   68MOL    H8813622   3.283   1.670   5.800 -0.2080 -0.3292  0.2162
   68MOL    H8913623   3.226   1.755   5.937  1.6626  0.3937 -0.9103
   68MOL    H9013624   3.104   1.533   5.779 -2.5567 -1.0073  0.9041
   68MOL    H9113625   2.996   1.631   5.892  0.8082  0.6645  3.2877
   68MOL    O9213626   3.143   1.525   5.976 -0.0516  0.0446 -0.3608
   68MOL    C9313627   3.102   1.571   6.102 -0.5298 -0.1411 -0.3469
   68MOL    C9413628   3.157   1.473   6.206  0.2473  0.6417  0.7615
   68MOL    C9513629   3.097   1.500   6.351  0.1224 -0.1345 -0.1174
   68MOL    H9613630   2.994   1.583   6.109 -0.4544  1.3818 -1.5312
   68MOL    H9713631   3.149   1.662   6.138  1.5005 -0.6705 -1.5361
   68MOL    H9813632   3.127   1.371   6.185  3.2367 -0.5792  2.0682
   68MOL    H9913633   3.265   1.463   6.197  0.1840  0.7379 -0.1438
   68MOL   H10013634   3.097   1.402   6.398  0.3815 -1.0325 -1.9228
   68MOL   H10113635   2.997   1.540   6.362 -0.1515 -0.4947 -1.2276
   68MOL   O10213636   3.191   1.589   6.409  0.9141 -0.2260 -0.1754
   68MOL   C10313637   3.138   1.639   6.534  0.3690 -0.2689  0.3293
   68MOL   C10413638   3.240   1.737   6.600  0.0258  0.4058 -0.3992
   68MOL   C10513639   3.194   1.794   6.737  0.1551  0.1003  0.8264
   68MOL   H10613640   3.108   1.558   6.600 -3.1190  1.4727  0.9995
   68MOL   H10713641   3.050   1.701   6.514 -0.3031 -1.6378 -1.0249
   68MOL   H10813642   3.326   1.672   6.585 -0.4505 -1.1383  2.9899
   68MOL   H10913643   3.264   1.824   6.540 -1.1422  1.8824  1.2209
   68MOL   H11013644   3.186   1.715   6.812 -2.6817 -0.6938 -0.2339
   68MOL   H11113645   3.092   1.832   6.730 -0.0432 -0.6081 -0.1908
   68MOL   O11213646   3.286   1.896   6.777 -0.2077 -0.0886  0.3590
   68MOL   C11313647   3.280   1.930   6.917 -0.3915  0.5060  0.2333
   68MOL   C11413648   3.396   2.013   6.974 -0.0860  0.1882 -0.7529
   68MOL   C11513649   3.375   2.023   7.127  0.7258  0.2614  0.3674
   68MOL   H11613650   3.295   1.838   6.973 -0.5524 -0.0845 -0.6739
   68MOL   H11713651   3.181   1.973   6.932 -0.4584 -0.4545  2.8740
   68MOL   H11813652   3.478   1.943   6.961 -0.8403 -1.4068  2.6039
   68MOL   H11913653   3.398   2.105   6.916 -0.3154  0.1012 -0.9044
   68MOL   H12013654   3.387   1.922   7.167 -0.3451  0.2652  0.7230
   68MOL   H12113655   3.271   2.048   7.146  0.2135 -1.7169  0.2545
   68MOL   O12213656   3.461   2.111   7.186  0.2567 -0.1095 -0.3801
   68MOL   C12313657   3.590   2.048   7.237 -0.1910  0.1673 -0.1366
   68MOL   C12413658   3.711   2.136   7.262  0.0438 -0.6651 -0.4394
   68MOL   C12513659   3.827   2.055   7.316  0.6267 -0.3852  0.2349
   68MOL   H12613660   3.632   1.963   7.182 -1.9903 -1.2991  0.7158
   68MOL   H12713661   3.566   2.000   7.332  2.6768  0.6315  0.8856
   68MOL   H12813662   3.739   2.188   7.171  0.5789 -0.1607  0.0103
   68MOL   H12913663   3.672   2.206   7.336 -1.7715 -1.2669 -0.8000
   68MOL   H13013664   3.860   1.987   7.238 -0.9786 -0.0815 -0.7217
   68MOL   H13113665   3.790   1.997   7.401 -2.8899 -1.8255 -2.1665
   68MOL   O13213666   3.936   2.142   7.354 -0.3513 -0.5540  0.6768
   68MOL   C13313667   3.943   2.185   7.490  0.1372  0.1837  0.1408
   68MOL   C13413668   4.059   2.278   7.529 -0.3776  0.4422  0.4809
   68MOL   C13513669   4.191   2.201   7.528 -0.2220  0.8612 -0.0704
   68MOL   H13613670   3.948   2.102   7.561  1.1747  1.7365  1.9512
   68MOL   H13713671   3.847   2.236   7.503 -0.6313 -0.9611 -1.0114
   68MOL   H13813672   4.072   2.358   7.456  0.0386 -0.9742 -1.0349
   68MOL   H13913673   4.053   2.327   7.626  1.2202  1.9243 -0.1369
   68MOL   H14013674   4.197   2.133   7.443  0.5362  0.0744  0.6045
   68MOL   H14113675   4.165   2.122   7.599 -0.7179 -0.4708 -1.7002
   68MOL   O14213676   4.306   2.279   7.571  0.0357 -0.2022 -0.0288
   68MOL   C14313677   4.419   2.194   7.598 -0.1238  0.3982  0.1879
   68MOL   C14413678   4.542   2.276   7.610 -0.3781  0.0697  0.1913
   68MOL   C14513679   4.552   2.366   7.730  0.9823  0.4573  0.3509
   68MOL   H14613680   4.425   2.106   7.533  0.9747  0.5148  0.1261
   68MOL   H14713681   4.398   2.146   7.693 -2.6457  1.0101 -0.0231
   68MOL   H14813682   4.628   2.210   7.618 -1.6258 -1.4650  1.1739
   68MOL   H14913683   4.564   2.322   7.513  0.4919 -1.2346 -0.2498
   68MOL   H15013684   4.478   2.444   7.715 -0.1668 -0.1410  2.6317
   68MOL   H15113685   4.652   2.408   7.735  1.0913  0.2126  0.2373
   68MOL   O15213686   4.510   2.297   0.064 -0.3605  0.1820 -0.1831
   68MOL   C15313687   4.512   2.379   0.174 -0.0922 -0.1233 -0.0686
   68MOL   C15413688   4.434   2.298   0.281  0.5123 -0.0451 -0.2791
   68MOL   C15513689   4.396   2.377   0.406  0.3248  0.2404  0.1254
   68MOL   H15613690   4.457   2.469   0.144 -0.3118 -0.7537 -1.6098
   68MOL   H15713691   4.612   2.409   0.206 -0.1949  0.2053 -0.0515
   68MOL   H15813692   4.353   2.236   0.242  0.3980 -1.9209  2.7234
   68MOL   H15913693   4.509   2.228   0.319  0.4522 -0.0756 -0.2141
   68MOL   H16013694   4.305   2.431   0.382  0.6702  0.8287  0.1524
   68MOL   H16113695   4.474   2.443   0.441  1.1761  0.0610 -1.4076
   68MOL   O16213696   4.358   2.272   0.495 -0.9428 -0.1660 -0.4809
   68MOL   C16313697   4.337   2.329   0.626  0.4466 -0.0573 -0.2654
   68MOL   C16413698   4.289   2.216   0.714 -0.2255 -0.8524  0.1770
   68MOL   C16513699   4.290   2.274   0.856  0.9404 -0.0377 -0.1327
   68MOL   H16613700   4.270   2.415   0.625 -0.3374 -0.6644 -2.3114
   68MOL   H16713701   4.435   2.356   0.665  1.3398 -1.5570 -1.4663
   68MOL   H16813702   4.186   2.190   0.688 -0.5035 -0.7172  1.1259
   68MOL   H16913703   4.351   2.127   0.706 -2.1382 -2.2639  0.5927
   68MOL   H17013704   4.364   2.350   0.883 -0.1964  1.3897 -0.9802
   68MOL   H17113705   4.294   2.196   0.932 -1.0567  2.0605  2.2201
   68MOL   O17213706   4.164   2.352   0.859 -0.8570  0.3829 -0.3333
   68MOL   C17313707   4.142   2.424   0.980 -0.4539  0.4389 -0.4852
   68MOL   C17413708   3.991   2.419   1.013 -0.0727 -0.5370 -0.2701
   68MOL   C17513709   3.918   2.516   0.918  0.8064 -0.2154  0.1016
   68MOL   H17613710   4.174   2.528   0.981 -1.4231  0.7466  2.4199
   68MOL   H17713711   4.190   2.373   1.063 -1.0351  0.2740 -0.2423
   68MOL   H17813712   3.968   2.314   0.998  1.2837 -0.5466 -2.6096
   68MOL   H17913713   3.975   2.443   1.118 -0.2767 -1.7877 -0.0099
   68MOL   H18013714   3.926   2.473   0.818 -1.6091  0.1418 -0.2616
   68MOL   H18113715   3.954   2.618   0.931  0.8749 -0.6297  3.7914
   68MOL   O18213716   3.785   2.495   0.954 -0.0198  0.0634  0.0911
   68MOL   C18313717   3.682   2.558   0.882 -0.0952 -0.6143 -0.5258
   68MOL   C18413718   3.640   2.685   0.960 -0.4195 -0.7475  0.4952
   68MOL   C18513719   3.519   2.762   0.900 -0.0814  0.4278  0.0774
   68MOL   H18613720   3.599   2.488   0.873 -0.2851 -0.6566  1.2350
   68MOL   H18713721   3.713   2.581   0.780  0.3950 -2.7928 -0.8944
   68MOL   H18813722   3.621   2.661   1.064  2.7431  1.3606  1.6478
   68MOL   H18913723   3.727   2.751   0.968 -0.9784 -0.0289  0.7690
   68MOL   H19013724   3.537   2.794   0.798  1.9415  0.0449  0.2874
   68MOL   H19113725   3.506   2.854   0.957  1.4975 -0.7990  2.5094
   68MOL   O19213726   3.403   2.679   0.897  0.3163 -0.4295  0.5433
   68MOL   C19313727   3.280   2.739   0.853 -1.0860 -0.0617 -0.8479
   68MOL   C19413728   3.166   2.640   0.842  0.2518  0.1633 -0.0359
   68MOL   C19513729   3.031   2.707   0.820  0.5786  0.4589  0.0693
   68MOL   H19613730   3.303   2.800   0.765 -0.4247  0.5832 -0.2361
   68MOL   H19713731   3.265   2.818   0.927  4.3655 -1.3830  1.9294
   68MOL   H19813732   3.195   2.567   0.767 -0.2040  2.1054 -2.1497
   68MOL   H19913733   3.160   2.584   0.935  2.9182 -1.0753 -0.5575
   68MOL   H20013734   3.038   2.758   0.724 -0.0006 -0.9265 -0.7232
   68MOL   H20113735   3.020   2.781   0.899  1.5901 -0.7388  1.3587
   68MOL   H20213736   2.939   2.648   0.827  0.2111  0.7291 -2.1941
   69MOL     O113737   6.468   6.639   4.600  0.3076  0.0890  0.0006
   69MOL     C213738   6.359   6.569   4.529 -0.3174  1.1657 -0.1992
   69MOL     C313739   6.244   6.527   4.623  0.0660 -0.1197  0.3267
   69MOL     C413740   6.129   6.473   4.532  0.2529  0.2104  0.4554
   69MOL     H513741   6.403   6.486   4.475 -1.4246 -0.1024  0.8248
   69MOL     H613742   6.329   6.631   4.444  2.6280  1.5600 -1.0194
   69MOL     H713743   6.282   6.447   4.686 -0.3345 -1.6370 -1.3063
   69MOL     H813744   6.206   6.607   4.687 -0.4493 -0.5667  0.5861
   69MOL     H913745   6.151   6.400   4.455 -1.2371  1.3242 -1.0623
   69MOL    H1013746   6.080   6.558   4.484  1.8750  0.9164  0.0078
   69MOL    H1113747   6.436   6.727   4.605  1.5411  0.4839  1.2237
   69MOL    O1213748   6.035   6.407   4.618  0.0447  0.6116 -0.4282
   69MOL    C1313749   5.913   6.364   4.561 -0.0200 -0.5358 -0.3266
   69MOL    C1413750   5.820   6.327   4.676 -0.5880 -1.0881 -0.2665
   69MOL    C1513751   5.763   6.454   4.739 -0.3870  0.2839  0.0269
   69MOL    H1613752   5.939   6.280   4.496 -0.0666 -0.9575  0.1976
   69MOL    H1713753   5.882   6.448   4.500 -0.8377  0.2745  1.1712
   69MOL    H1813754   5.741   6.268   4.629 -1.6213  1.6061 -2.0559
   69MOL    H1913755   5.869   6.261   4.747 -1.3044 -2.4969 -1.0641
   69MOL    H2013756   5.754   6.540   4.672  1.8039  0.1796 -0.4334
   69MOL    H2113757   5.836   6.508   4.800  1.8090  0.5697 -2.7534
   69MOL    O2213758   5.637   6.416   4.803  0.1739 -0.0576 -0.0328
   69MOL    C2313759   5.528   6.492   4.777  0.8018 -0.3523  0.1179
   69MOL    C2413760   5.530   6.620   4.856  0.2099  0.1235 -0.0822
   69MOL    C2513761   5.428   6.731   4.808 -0.3407  0.2882 -0.4378
   69MOL    H2613762   5.439   6.432   4.795  0.3220  0.4417  0.4507
   69MOL    H2713763   5.522   6.510   4.670 -0.2197  1.6884  0.4963
   69MOL    H2813764   5.514   6.600   4.961  0.7906  0.9691  0.1703
   69MOL    H2913765   5.635   6.647   4.853  0.4316 -0.7594 -0.8526
   69MOL    H3013766   5.441   6.812   4.879  0.6777  0.9507 -1.3614
   69MOL    H3113767   5.326   6.692   4.810  1.0730 -3.5602  0.5964
   69MOL    O3213768   5.471   6.770   4.679 -0.1079  0.3202  0.0155
   69MOL    C3313769   5.383   6.869   4.616 -0.6250 -0.0126 -0.3509
   69MOL    C3413770   5.436   6.910   4.480 -0.3144  0.5587 -0.6286
   69MOL    C3513771   5.353   7.012   4.409  0.7613 -0.2054  0.9013
   69MOL    H3613772   5.392   6.956   4.682  2.2130  1.3449 -2.4092
   69MOL    H3713773   5.284   6.824   4.609 -0.4503 -0.2114 -1.5017
   69MOL    H3813774   5.538   6.947   4.478 -0.4181  0.9649  0.5957
   69MOL    H3913775   5.435   6.817   4.425 -0.0206 -0.4615  1.0427
   69MOL    H4013776   5.393   7.024   4.309  0.8451 -0.7774  0.8666
   69MOL    H4113777   5.367   7.106   4.462  1.3098  0.7246 -0.8681
   69MOL    O4213778   5.217   6.976   4.402 -0.2991 -1.0908 -0.5376
   69MOL    C4313779   5.150   7.057   4.305  0.0980  0.4488 -0.1269
   69MOL    C4413780   5.004   7.000   4.292 -0.4278  0.3657 -0.7393
   69MOL    C4513781   4.916   7.062   4.186 -0.9245 -0.1437  0.1118
   69MOL    H4613782   5.205   7.059   4.210 -1.8066 -0.5201 -1.2743
   69MOL    H4713783   5.140   7.163   4.329  2.7495  0.3458  1.6667
   69MOL    H4813784   5.022   6.899   4.254  0.9570 -0.3446  1.6475
   69MOL    H4913785   4.956   6.989   4.389 -1.5878 -0.1549 -1.3731
   69MOL    H5013786   4.969   7.063   4.091 -0.3676 -1.0180  0.4114
   69MOL    H5113787   4.906   7.166   4.216  1.6128  0.2365 -0.2912
   69MOL    O5213788   4.792   6.998   4.179 -0.6895 -0.2498 -0.1842
   69MOL    C5313789   4.709   7.060   4.089  0.0101 -0.2296  0.3209
   69MOL    C5413790   4.580   6.989   4.066 -0.3708 -0.5005  0.1908
   69MOL    C5513791   4.486   7.076   3.980  0.0574 -0.7819  0.1442
   69MOL    H5613792   4.768   7.072   3.998  0.5759  0.0045  0.7127
   69MOL    H5713793   4.677   7.163   4.106 -0.4571  0.1235 -2.4814
   69MOL    H5813794   4.593   6.885   4.034 -1.4011 -0.8419  0.8463
   69MOL    H5913795   4.541   6.984   4.167  0.6666  0.5323  0.6501
   69MOL    H6013796   4.534   7.120   3.892 -1.2168  0.2128 -0.0797
   69MOL    H6113797   4.444   7.158   4.039  1.4361 -0.3824  0.6004
   69MOL    O6213798   4.372   7.006   3.940  0.8192 -1.1432  0.3307
   69MOL    C6313799   4.375   6.962   3.807  0.4879 -0.6083 -0.2912
   69MOL    C6413800   4.244   6.879   3.784  0.2158  0.3087  0.2203
   69MOL    C6513801   4.237   6.821   3.648  0.2779 -0.6416  0.6453
   69MOL    H6613802   4.460   6.896   3.795  1.2827  0.0383  1.5785
   69MOL    H6713803   4.384   7.046   3.738  1.4102 -0.6462 -0.2133
   69MOL    H6813804   4.252   6.791   3.847  3.4506 -1.2167 -2.1647
   69MOL    H6913805   4.151   6.931   3.805 -0.7448 -1.3814  0.2622
   69MOL    H7013806   4.337   6.797   3.611 -0.5576  1.6992 -3.4230
   69MOL    H7113807   4.204   6.898   3.579  2.2096  0.5766  1.0401
   69MOL    O7213808   4.142   6.706   3.646 -0.3606 -0.1773 -0.0481
   69MOL    C7313809   4.166   6.612   3.537 -0.3080 -0.6369  0.3489
   69MOL    C7413810   4.065   6.495   3.528  0.5193  0.2202 -0.2798
   69MOL    C7513811   4.056   6.417   3.398  0.2519  0.4143 -0.0472
   69MOL    H7613812   4.265   6.567   3.540 -0.4707 -0.9635  1.1800
   69MOL    H7713813   4.172   6.662   3.441 -0.9093 -0.0332  0.6153
   69MOL    H7813814   4.079   6.423   3.608  1.3775  1.1648  0.4341
   69MOL    H7913815   3.978   6.558   3.545 -0.9808 -0.8474 -3.4594
   69MOL    H8013816   4.078   6.490   3.320  1.8275  0.6356  0.5829
   69MOL    H8113817   3.957   6.381   3.369  1.1335 -2.8253  0.7298
   69MOL    O8213818   4.143   6.304   3.408 -0.0223 -0.1789  0.8666
   69MOL    C8313819   4.192   6.258   3.282 -0.2880 -0.6397  0.3231
   69MOL    C8413820   4.168   6.108   3.286 -0.1436 -0.1445 -0.4848
   69MOL    C8513821   4.211   6.034   3.161  0.0439 -0.6574  0.1088
   69MOL    H8613822   4.299   6.268   3.262 -0.7909  1.0993 -1.8252
   69MOL    H8713823   4.145   6.306   3.196  2.7838  1.0373 -0.5396
   69MOL    H8813824   4.228   6.073   3.370 -2.0254  0.1323  0.9933
   69MOL    H8913825   4.062   6.100   3.307 -0.2341  0.0707 -0.8669
   69MOL    H9013826   4.308   6.073   3.129 -0.9505  0.2802 -1.8654
   69MOL    H9113827   4.138   6.055   3.082  1.1562  2.3445 -0.1987
   69MOL    O9213828   4.207   5.899   3.206 -0.0730  0.1903 -0.3622
   69MOL    C9313829   4.240   5.815   3.094  0.0422  0.1780 -0.2208
   69MOL    C9413830   4.264   5.674   3.145  0.2199 -0.1635 -0.0931
   69MOL    C9513831   4.280   5.574   3.029 -0.0937 -0.7801  0.4833
   69MOL    H9613832   4.335   5.855   3.058 -0.7674  2.1746 -0.1685
   69MOL    H9713833   4.163   5.821   3.016 -2.0531  1.0148  1.8723
   69MOL    H9813834   4.355   5.669   3.205  1.7464 -1.4143 -2.4080
   69MOL    H9913835   4.178   5.640   3.203 -0.0709  2.2149  0.9353
   69MOL   H10013836   4.354   5.615   2.961 -2.5746 -0.7090 -2.2916
   69MOL   H10113837   4.183   5.576   2.978  0.8540 -0.2865 -1.3118
   69MOL   O10213838   4.315   5.454   3.094  0.5324  0.6482 -0.3218
   69MOL   C10313839   4.277   5.328   3.032  0.2538 -0.2301  0.2079
   69MOL   C10413840   4.325   5.207   3.116  0.0672  0.6034 -0.0885
   69MOL   C10513841   4.297   5.072   3.061 -0.1040  0.3437  0.4100
   69MOL   H10613842   4.313   5.332   2.929 -0.0056 -0.8537  0.0903
   69MOL   H10713843   4.169   5.336   3.022  0.3378 -2.6025 -3.6224
   69MOL   H10813844   4.433   5.207   3.125 -0.0129  0.2967  0.8840
   69MOL   H10913845   4.297   5.205   3.221  2.4992 -1.7581  0.5624
   69MOL   H11013846   4.361   5.062   2.973 -2.0041 -0.8265 -0.8868
   69MOL   H11113847   4.196   5.060   3.023  0.5824 -1.3093 -0.9768
   69MOL   O11213848   4.314   4.975   3.163  0.1526  0.1071 -0.3224
   69MOL   C11313849   4.302   4.842   3.113  0.2470 -0.6223 -0.4920
   69MOL   C11413850   4.307   4.744   3.233 -0.4240  0.1206 -0.5494
   69MOL   C11513851   4.363   4.608   3.205  0.1315 -0.9449 -0.3794
   69MOL   H11613852   4.394   4.840   3.053  0.6637  0.8617  0.0612
   69MOL   H11713853   4.216   4.818   3.051 -0.1005  0.4222 -0.4251
   69MOL   H11813854   4.361   4.785   3.318 -0.3617  0.2799 -0.6660
   69MOL   H11913855   4.207   4.723   3.272  0.1954 -0.7539  0.5780
   69MOL   H12013856   4.325   4.545   3.286 -1.1663 -0.0667 -0.2956
   69MOL   H12113857   4.472   4.602   3.205  0.2901  1.3959  0.7307
   69MOL   O12213858   4.318   4.563   3.076  0.0539  0.4071 -0.1587
   69MOL   C12313859   4.356   4.431   3.040  0.0937 -0.1399 -0.0347
   69MOL   C12413860   4.336   4.405   2.891  0.2897  0.2675 -0.1537
   69MOL   C12513861   4.403   4.263   2.846 -0.6745 -0.0615 -0.5311
   69MOL   H12613862   4.299   4.354   3.091 -0.4460 -1.4955 -2.6154
   69MOL   H12713863   4.461   4.442   3.068  0.2591  2.7412 -1.6151
   69MOL   H12813864   4.227   4.408   2.884  0.3172 -0.4045 -0.9241
   69MOL   H12913865   4.376   4.483   2.826  0.0607  1.5183  1.1730
   69MOL   H13013866   4.319   4.222   2.790 -0.3450  0.1168 -1.1512
   69MOL   H13113867   4.409   4.200   2.935  0.8245 -1.4324 -1.5884
   69MOL   O13213868   4.526   4.272   2.781 -0.2943  0.6174 -0.2034
   69MOL   C13313869   4.598   4.151   2.764  0.5946 -1.2907 -0.1530
   69MOL   C13413870   4.741   4.181   2.714 -0.0027  0.6318 -0.0330
   69MOL   C13513871   4.818   4.264   2.818 -0.4492 -0.2312 -0.0421
   69MOL   H13613872   4.549   4.085   2.692 -0.1763 -0.0379 -0.8096
   69MOL   H13713873   4.602   4.115   2.866 -1.3702 -0.4595  0.2514
   69MOL   H13813874   4.788   4.087   2.687 -1.3108 -0.3779  1.1676
   69MOL   H13913875   4.732   4.242   2.624 -0.7466 -1.6501 -1.5585
   69MOL   H14013876   4.812   4.224   2.919  0.9358  0.6037  0.3750
   69MOL   H14113877   4.779   4.365   2.818 -2.1733 -0.8771  0.3035
   69MOL   O14213878   4.951   4.266   2.778  0.0586 -0.6083 -0.1991
   69MOL   C14313879   5.038   4.342   2.854  0.1527  0.6004 -0.1698
   69MOL   C14413880   5.178   4.360   2.793 -0.6990  0.3478 -0.4545
   69MOL   C14513881   5.267   4.473   2.834  0.5534  0.2741 -0.0102
   69MOL   H14613882   5.061   4.289   2.947  1.6894  0.0414 -0.8418
   69MOL   H14713883   5.005   4.440   2.886  2.6803  1.4000  0.1512
   69MOL   H14813884   5.239   4.270   2.805 -1.1058  0.4914  3.3752
   69MOL   H14913885   5.166   4.372   2.685  1.7396 -2.7616 -1.1694
   69MOL   H15013886   5.363   4.447   2.789  0.7075  0.5448  0.1609
   69MOL   H15113887   5.278   4.460   2.942 -1.0494 -0.0852  0.1281
   69MOL   O15213888   5.223   4.601   2.804  0.2745  0.0058 -0.0225
   69MOL   C15313889   5.328   4.695   2.836 -0.4521  0.2627 -0.8306
   69MOL   C15413890   5.280   4.837   2.826 -0.2751 -0.1729  0.0967
   69MOL   C15513891   5.182   4.869   2.944 -0.3194  0.3654 -0.2954
   69MOL   H15613892   5.417   4.673   2.776 -1.2512 -2.3027 -1.1400
   69MOL   H15713893   5.358   4.674   2.938 -1.9028 -2.2043 -0.8602
   69MOL   H15813894   5.370   4.897   2.840  0.1799 -0.4272 -1.6067
   69MOL   H15913895   5.234   4.860   2.730  0.2705  1.3013  0.1711
   69MOL   H16013896   5.230   4.849   3.040  0.7745 -0.9249 -1.1027
   69MOL   H16113897   5.092   4.807   2.949 -0.0806  0.0575  0.2446
   69MOL   O16213898   5.153   5.009   2.929  1.1693  0.0640  0.2986
   69MOL   C16313899   5.087   5.064   3.045 -0.4609 -0.5427 -0.6336
   69MOL   C16413900   5.048   5.216   3.017  0.5902  0.5668 -0.4726
   69MOL   C16513901   5.177   5.292   3.026 -0.3442 -0.4382 -0.0588
   69MOL   H16613902   5.146   5.069   3.136 -0.2377  1.0649 -0.8550
   69MOL   H16713903   4.994   5.010   3.061 -0.5335 -0.1958  0.1277
   69MOL   H16813904   5.001   5.248   2.923  0.6759  3.1392  0.3034
   69MOL   H16913905   4.977   5.247   3.093  0.6482 -0.9443  0.2078
   69MOL   H17013906   5.231   5.269   2.934  0.7344  3.2420 -0.4276
   69MOL   H17113907   5.236   5.275   3.116  0.5980 -0.8982 -0.7653
   69MOL   O17213908   5.142   5.436   3.012 -0.2497  0.1787 -0.2055
   69MOL   C17313909   5.250   5.525   3.015  0.4102 -0.1376 -0.4664
   69MOL   C17413910   5.190   5.669   2.993 -0.4389 -0.3199  0.2298
   69MOL   C17513911   5.102   5.712   3.111  0.0439 -0.3840 -0.3301
   69MOL   H17613912   5.329   5.504   2.944 -2.2841 -2.6746 -2.8411
   69MOL   H17713913   5.298   5.510   3.112 -0.8168 -1.7789 -0.1009
   69MOL   H17813914   5.278   5.732   2.984 -0.8882  0.1615 -0.9380
   69MOL   H17913915   5.148   5.680   2.893 -1.2212 -1.9676  0.3558
   69MOL   H18013916   5.157   5.673   3.197  0.1450 -2.0259 -1.1052
   69MOL   H18113917   5.001   5.672   3.107 -0.6318  1.0641  1.6162
   69MOL   O18213918   5.104   5.852   3.119 -0.0786 -0.2167 -0.4218
   69MOL   C18313919   5.013   5.914   3.033 -1.2109 -0.4738  0.2546
   69MOL   C18413920   5.014   6.066   3.061 -0.1804  0.7898 -0.1878
   69MOL   C18513921   4.972   6.150   2.940 -0.3522  0.0699  0.0288
   69MOL   H18613922   4.916   5.869   3.054 -1.9230 -0.2546 -2.4046
   69MOL   H18713923   5.034   5.896   2.928  0.3519  1.5135  0.2050
   69MOL   H18813924   4.953   6.084   3.149  1.6344 -0.1180  1.2755
   69MOL   H18913925   5.114   6.094   3.094  0.0735 -1.3850  0.9735
   69MOL   H19013926   5.027   6.119   2.851  2.2748  0.0158  1.6097
   69MOL   H19113927   4.984   6.256   2.961 -2.3173  0.3893 -0.3683
   69MOL   O19213928   4.833   6.136   2.912  0.6428 -0.2135  0.4953
   69MOL   C19313929   4.780   6.228   2.816  0.4239  0.2113 -0.7954
   69MOL   C19413930   4.634   6.215   2.806  0.0415  0.3789 -0.2130
   69MOL   C19513931   4.563   6.337   2.736 -0.1416 -0.0603 -0.0473
   69MOL   H19613932   4.840   6.224   2.725 -1.3230  0.3929 -1.9663
   69MOL   H19713933   4.800   6.326   2.860  0.0415 -0.1489  0.1885
   69MOL   H19813934   4.616   6.118   2.760  2.2950  0.2521 -0.9154
   69MOL   H19913935   4.605   6.196   2.909  0.0899  0.4516 -0.1851
   69MOL   H20013936   4.558   6.320   2.629 -2.2227  2.5287 -0.4110
   69MOL   H20113937   4.607   6.435   2.756 -1.6073  0.7227 -0.5620
   69MOL   H20213938   4.465   6.341   2.782  0.1944 -2.5982  0.9354
   70MOL     O113939   2.094   5.160   2.722  0.2542  0.3538 -0.0415
   70MOL     C213940   2.217   5.090   2.734  0.1745  0.2967  0.1654
   70MOL     C313941   2.219   4.955   2.662  0.2963 -0.2174 -0.2596
   70MOL     C413942   2.207   4.968   2.506 -0.6726  0.0698 -0.7964
   70MOL     H513943   2.239   5.074   2.840 -2.5933 -0.9923  0.5940
   70MOL     H613944   2.299   5.152   2.699  0.5940 -0.6612 -0.5559
   70MOL     H713945   2.311   4.902   2.689  1.5897  2.2993  0.4358
   70MOL     H813946   2.133   4.902   2.704  0.1863  0.2985  0.1698
   70MOL     H913947   2.287   5.015   2.449 -0.5776 -0.1158 -0.8174
   70MOL    H1013948   2.118   5.028   2.487 -0.6017  0.8758  1.2702
   70MOL    H1113949   2.064   5.166   2.632  1.5165  0.8564 -0.4445
   70MOL    O1213950   2.196   4.835   2.453 -0.4128  0.1846  1.2364
   70MOL    C1313951   2.183   4.819   2.312  0.1826  0.0456 -0.5450
   70MOL    C1413952   2.147   4.678   2.282  0.1402  0.6619  0.0600
   70MOL    C1513953   2.133   4.654   2.128  0.3197  0.0581 -0.2523
   70MOL    H1613954   2.275   4.852   2.264  0.0624  0.0447 -0.7746
   70MOL    H1713955   2.100   4.882   2.280 -0.8694 -1.4463 -0.8149
   70MOL    H1813956   2.214   4.603   2.325 -0.7547  0.0962  0.4903
   70MOL    H1913957   2.049   4.662   2.327  0.9708 -1.6351  1.1344
   70MOL    H2013958   2.106   4.551   2.107  3.6106 -1.3478  1.8658
   70MOL    H2113959   2.234   4.668   2.089  0.5760 -0.4276  0.2282
   70MOL    O2213960   2.039   4.754   2.079 -0.0368 -0.3349  0.1216
   70MOL    C2313961   2.043   4.777   1.940 -0.0563 -0.1843 -0.2993
   70MOL    C2413962   2.007   4.930   1.920  0.1902 -0.0660  0.5156
   70MOL    C2513963   2.107   5.022   1.997  1.0993  0.3904 -0.0831
   70MOL    H2613964   1.986   4.707   1.880  0.0741 -1.3408  0.9074
   70MOL    H2713965   2.148   4.762   1.918  0.3469 -0.3580  1.6867
   70MOL    H2813966   2.014   4.939   1.811 -2.4271 -0.9611  0.2577
   70MOL    H2913967   1.903   4.952   1.943  0.3273  0.0292  1.0621
   70MOL    H3013968   2.204   5.031   1.949  1.7581  1.5949  1.3965
   70MOL    H3113969   2.133   4.985   2.097  1.5460 -4.3694 -1.8480
   70MOL    O3213970   2.052   5.155   2.014  0.3776  0.0217  0.4356
   70MOL    C3313971   2.046   5.231   1.897  0.2636 -0.1766  0.0458
   70MOL    C3413972   1.983   5.364   1.935 -0.6938 -0.0971 -0.0612
   70MOL    C3513973   1.853   5.368   2.014 -0.0515 -0.0350  0.1675
   70MOL    H3613974   1.986   5.184   1.820 -0.4454 -1.0580  1.1187
   70MOL    H3713975   2.150   5.230   1.867  0.2661 -0.4796  0.0693
   70MOL    H3813976   2.060   5.414   1.995 -0.7697 -1.3954  1.1280
   70MOL    H3913977   1.969   5.433   1.851 -1.1054 -0.9055 -0.6639
   70MOL    H4013978   1.887   5.339   2.113  0.2501  1.4656  0.5204
   70MOL    H4113979   1.787   5.292   1.971  0.7184 -0.5486 -0.1242
   70MOL    O4213980   1.795   5.497   2.003  0.3239  0.5956 -0.1207
   70MOL    C4313981   1.669   5.507   2.070 -0.5476 -0.3759 -0.3285
   70MOL    C4413982   1.629   5.653   2.087  0.1764 -0.5643  0.1689
   70MOL    C4513983   1.499   5.664   2.168 -0.2234  0.0997 -0.0974
   70MOL    H4613984   1.657   5.452   2.163 -0.6572  0.2326  0.0258
   70MOL    H4713985   1.597   5.447   2.014 -0.5532 -0.6063 -0.0728
   70MOL    H4813986   1.706   5.706   2.143  0.3601 -0.1584 -0.4659
   70MOL    H4913987   1.611   5.699   1.990 -1.4541  0.3818  0.8998
   70MOL    H5013988   1.529   5.624   2.265 -0.4620  0.4465  0.1210
   70MOL    H5113989   1.419   5.603   2.127 -1.6918  1.4867  0.6599
   70MOL    O5213990   1.440   5.790   2.183  0.4215 -0.2421 -0.4018
   70MOL    C5313991   1.513   5.893   2.249  0.2779  0.3374 -0.3833
   70MOL    C5413992   1.427   6.020   2.251 -0.0959  0.1020  0.0188
   70MOL    C5513993   1.499   6.142   2.306  0.2577  0.4040  0.2289
   70MOL    H5613994   1.606   5.907   2.194 -0.1347  1.0265 -0.9188
   70MOL    H5713995   1.535   5.855   2.349  0.9154 -0.8413 -0.9663
   70MOL    H5813996   1.397   6.031   2.147  0.6369  1.9585 -0.0124
   70MOL    H5913997   1.337   5.996   2.307 -0.2355  0.4166 -0.0674
   70MOL    H6013998   1.501   6.120   2.413 -3.6115 -0.6910  0.1419
   70MOL    H6113999   1.442   6.234   2.294 -1.6007 -1.1175 -3.6383
   70MOL    O6214000   1.620   6.163   2.238  0.2613 -0.2181 -0.8795
   70MOL    C6314001   1.700   6.265   2.298 -0.5807  0.3768  0.1635
   70MOL    C6414002   1.836   6.255   2.233  0.2179  0.3603 -0.5052
   70MOL    C6514003   1.946   6.337   2.306 -0.0490 -0.2444  0.1439
   70MOL    H6614004   1.704   6.246   2.405  0.2141 -0.5081 -0.0157
   70MOL    H6714005   1.651   6.358   2.269  0.9158  1.2809  0.4384
   70MOL    H6814006   1.870   6.152   2.230  3.1693  1.2779 -0.3589
   70MOL    H6914007   1.830   6.295   2.131  0.1308  0.7953 -0.3325
   70MOL    H7014008   1.959   6.285   2.400 -3.0055  1.4138  1.5385
   70MOL    H7114009   1.910   6.439   2.325 -2.8590 -0.8835 -1.3516
   70MOL    O7214010   2.069   6.331   2.236 -0.0983 -0.4430 -0.1106
   70MOL    C7314011   2.163   6.432   2.269  0.0851  0.2871 -0.4892
   70MOL    C7414012   2.283   6.401   2.179 -0.8081  0.0571  0.2011
   70MOL    C7514013   2.384   6.512   2.188 -0.2933 -0.3546  0.8758
   70MOL    H7614014   2.202   6.429   2.371  0.3837  0.3897 -0.6013
   70MOL    H7714015   2.110   6.525   2.249 -0.4436  0.1616  0.3167
   70MOL    H7814016   2.316   6.305   2.218 -0.6968  0.4078  0.9817
   70MOL    H7914017   2.254   6.395   2.074  1.0209 -1.0771 -0.2613
   70MOL    H8014018   2.333   6.608   2.186 -2.0426 -1.1953  2.5510
   70MOL    H8114019   2.444   6.513   2.097  0.4337  0.2490  1.3547
   70MOL    O8214020   2.469   6.524   2.296 -0.9042  0.0552 -0.6636
   70MOL    C8314021   2.551   6.423   2.328  0.4474 -0.4464  0.4105
   70MOL    C8414022   2.589   6.434   2.474 -0.9348  0.1193 -0.4897
   70MOL    C8514023   2.472   6.417   2.573  0.4151  0.0993  0.2556
   70MOL    H8614024   2.643   6.438   2.271  0.2332 -2.9378 -0.6611
   70MOL    H8714025   2.514   6.322   2.309  0.5514 -0.5196  0.5988
   70MOL    H8814026   2.662   6.356   2.495 -1.8344 -0.9657 -1.3519
   70MOL    H8914027   2.626   6.535   2.490 -2.7051  0.7267 -0.1287
   70MOL    H9014028   2.428   6.318   2.554  0.5092 -0.1890  1.5110
   70MOL    H9114029   2.392   6.489   2.557  0.5829  0.6853  1.9839
   70MOL    O9214030   2.519   6.423   2.709  0.2396  0.0075  0.4720
   70MOL    C9314031   2.412   6.415   2.804  0.2254  0.7685  0.1303
   70MOL    C9414032   2.471   6.419   2.949 -0.3830  0.2674  0.6576
   70MOL    C9514033   2.357   6.401   3.048  0.5647  0.4235  0.2249
   70MOL    H9614034   2.352   6.326   2.781  1.0833  0.6914 -1.9060
   70MOL    H9714035   2.337   6.493   2.790 -1.9044 -0.9008  1.7356
   70MOL    H9814036   2.551   6.349   2.973  0.8458  1.1602 -0.7354
   70MOL    H9914037   2.518   6.515   2.969  2.6389 -0.8125 -1.0472
   70MOL   H10014038   2.274   6.464   3.018 -0.6691 -0.2361  2.1401
   70MOL   H10114039   2.381   6.436   3.149 -1.4974 -0.2003  0.9504
   70MOL   O10214040   2.316   6.266   3.061 -0.2427  0.2674 -0.5102
   70MOL   C10314041   2.197   6.247   3.147 -0.0848 -0.4703  0.1131
   70MOL   C10414042   2.142   6.111   3.124  0.4207  0.6140  0.0781
   70MOL   C10514043   2.009   6.110   3.199 -0.4118  0.3918 -0.7321
   70MOL   H10614044   2.127   6.322   3.111  1.0718  0.4290 -0.2859
   70MOL   H10714045   2.229   6.250   3.251  2.0320  0.8449 -0.5421
   70MOL   H10814046   2.129   6.085   3.019  2.5658 -0.6401  0.0923
   70MOL   H10914047   2.207   6.031   3.159 -1.9496 -2.4390 -2.2822
   70MOL   H11014048   2.002   6.161   3.296 -0.2102  2.8777 -1.9924
   70MOL   H11114049   1.987   6.006   3.222  0.5908  0.9554  3.1463
   70MOL   O11214050   1.901   6.154   3.107 -0.1543 -0.1885 -0.5667
   70MOL   C11314051   1.769   6.109   3.148 -0.2486  0.2002  0.6029
   70MOL   C11414052   1.653   6.162   3.071 -0.0237 -0.4558 -0.1910
   70MOL   C11514053   1.526   6.137   3.153 -0.1454  0.1793  0.3143
   70MOL   H11614054   1.753   6.127   3.254 -0.3262 -0.9090  0.7805
   70MOL   H11714055   1.766   6.000   3.150  1.3451  0.1289  0.0238
   70MOL   H11814056   1.670   6.268   3.048  1.2900 -0.3011  1.4271
   70MOL   H11914057   1.650   6.108   2.976 -1.3414 -1.5689  0.4621
   70MOL   H12014058   1.528   6.201   3.241  0.2877  0.9951 -0.2901
   70MOL   H12114059   1.513   6.030   3.172  1.9685 -0.1872 -0.1752
   70MOL   O12214060   1.409   6.166   3.074 -0.2952 -0.1453  0.3763
   70MOL   C12314061   1.289   6.151   3.150  0.0442  0.0563 -0.0228
   70MOL   C12414062   1.173   6.142   3.049 -0.1805 -0.8038 -0.6331
   70MOL   C12514063   1.045   6.109   3.126  0.5362  0.2598 -0.7384
   70MOL   H12614064   1.291   6.239   3.215  1.1804  1.0232 -1.3257
   70MOL   H12714065   1.285   6.061   3.211  1.2088 -0.3955 -0.6041
   70MOL   H12814066   1.165   6.227   2.981 -3.2290 -1.5249 -1.2280
   70MOL   H12914067   1.194   6.056   2.986 -2.0727 -1.2690 -0.6617
   70MOL   H13014068   1.064   6.034   3.203 -1.0314 -0.8620 -1.4070
   70MOL   H13114069   0.973   6.070   3.054 -1.5975  2.2686  0.2331
   70MOL   O13214070   0.972   6.223   3.181 -0.2498  0.3714 -0.3178
   70MOL   C13314071   0.857   6.190   3.257  0.4276 -0.9296  0.0895
   70MOL   C13414072   0.796   6.321   3.315 -0.1744 -0.1410 -0.1290
   70MOL   C13514073   0.750   6.419   3.206  0.3893 -0.1787 -0.7342
   70MOL   H13614074   0.864   6.114   3.334 -1.0429 -0.4648  0.6939
   70MOL   H13714075   0.786   6.147   3.186  2.1902 -1.4376 -1.3984
   70MOL   H13814076   0.707   6.299   3.374 -0.4009  1.6554  0.2314
   70MOL   H13914077   0.859   6.382   3.379  0.3037  0.6958 -1.3616
   70MOL   H14014078   0.838   6.455   3.153  0.5863  1.6573  0.7699
   70MOL   H14114079   0.701   6.508   3.247 -0.7032 -0.7152 -0.8624
   70MOL   O14214080   0.646   6.370   3.125  0.3028 -0.7056  0.5118
   70MOL   C14314081   0.610   6.446   3.014 -0.3721  0.1669  0.4484
   70MOL   C14414082   0.533   6.576   3.049  0.6379  0.1017 -0.5837
   70MOL   C14514083   0.411   6.549   3.146 -0.2584 -0.0051  0.0887
   70MOL   H14614084   0.546   6.378   2.958  1.3079 -0.1241 -1.1753
   70MOL   H14714085   0.690   6.461   2.941 -0.7513  1.2092  0.2282
   70MOL   H14814086   0.608   6.643   3.092 -0.1909  0.6012  0.1137
   70MOL   H14914087   0.494   6.622   2.958 -0.2456 -1.8931 -1.2324
   70MOL   H15014088   0.442   6.510   3.243  1.6226 -0.4987 -0.6955
   70MOL   H15114089   0.344   6.477   3.100  0.6270 -1.3117  0.8261
   70MOL   O15214090   0.351   6.678   3.172 -0.2621 -0.6040 -0.6706
   70MOL   C15314091   0.230   6.671   3.242 -0.0655  0.4399 -0.0015
   70MOL   C15414092   0.163   6.808   3.225 -0.2987 -0.2492  0.1680
   70MOL   C15514093   0.031   6.816   3.307 -0.5915  0.2916 -0.2013
   70MOL   H15614094   0.251   6.640   3.344 -1.2417 -3.2747 -0.8026
   70MOL   H15714095   0.160   6.591   3.218 -0.6431  0.1675  2.4537
   70MOL   H15814096   0.237   6.878   3.262  0.4318 -0.3619 -1.0552
   70MOL   H15914097   0.153   6.823   3.118  1.3739 -0.3657 -0.0024
   70MOL   H16014098   0.047   6.786   3.411 -0.7395 -1.3808 -0.6395
   70MOL   H16114099   7.748   6.745   3.266  0.9304 -1.5591  0.2500
   70MOL   O16214100   7.783   6.950   3.303 -0.3736  0.3484  0.6412
   70MOL   C16314101   7.665   6.970   3.378  0.3758  0.3991 -0.3070
   70MOL   C16414102   7.630   7.118   3.376 -0.0778 -0.8057  0.0731
   70MOL   C16514103   7.568   7.165   3.248  0.3993 -0.5414 -0.2331
   70MOL   H16614104   7.675   6.945   3.484 -1.2183  1.9331  0.2186
   70MOL   H16714105   7.583   6.906   3.344 -0.4428  1.3659 -0.1713
   70MOL   H16814106   7.555   7.144   3.451 -0.4915 -0.9939 -0.2770
   70MOL   H16914107   7.711   7.190   3.390 -1.7822  1.4430 -1.2287
   70MOL   H17014108   7.483   7.101   3.223  0.3337 -0.7631  0.5406
   70MOL   H17114109   7.633   7.142   3.164  1.8784  0.9259  0.4788
   70MOL   O17214110   7.539   7.300   3.265 -0.2682 -0.8772 -0.2170
   70MOL   C17314111   7.444   7.345   3.164 -0.3147 -0.0776 -0.0451
   70MOL   C17414112   7.439   7.499   3.177  0.1251  0.1741 -0.1229
   70MOL   C17514113   7.571   7.576   3.134 -0.1539  0.4827  0.6469
   70MOL   H17614114   7.346   7.302   3.184 -0.8148  1.1072  0.0953
   70MOL   H17714115   7.473   7.318   3.063 -0.3155  0.2300 -0.1263
   70MOL   H17814116   7.357   7.538   3.116  0.2655  0.8943  0.1347
   70MOL   H17914117   7.409   7.528   3.278 -1.7677 -0.5106 -0.4767
   70MOL   H18014118   7.583   7.548   3.029 -0.8742 -1.4406  1.0585
   70MOL   H18114119   7.660   7.536   3.181 -0.4162  1.1567  1.7257
   70MOL   O18214120   7.558   7.716   3.157  0.3077  0.0936 -0.5773
   70MOL   C18314121   7.660   0.007   3.094  0.3469 -0.8660 -0.6251
   70MOL   C18414122   7.641   0.028   2.946  0.0511 -0.8517 -0.9129
   70MOL   C18514123   7.752   0.111   2.879 -0.1498  0.5645 -0.3984
   70MOL   H18614124   7.757   7.750   3.114  0.9344  0.3735 -0.5888
   70MOL   H18714125   7.674   0.100   3.149  1.5937 -2.1666  1.3088
   70MOL   H18814126   7.615   7.717   2.909 -1.2154 -1.1200  0.6358
   70MOL   H18914127   7.548   0.082   2.932 -0.8207 -2.3537 -1.0015
   70MOL   H19014128   0.060   0.060   2.889 -1.1302 -0.9891  1.5700
   70MOL   H19114129   7.752   0.207   2.930 -2.3606 -0.2873  1.3057
   70MOL   O19214130   7.720   0.135   2.745 -0.0584 -0.3846 -0.0345
   70MOL   C19314131   0.030   0.210   2.688  0.0547  0.4837 -0.2652
   70MOL   C19414132   7.769   0.235   2.543 -0.5416  0.2348  0.2669
   70MOL   C19514133   7.627   0.294   2.518  0.1753 -0.1695 -0.9979
   70MOL   H19614134   0.128   0.163   2.696 -0.9860 -2.0477 -1.7038
   70MOL   H19714135   0.021   0.304   2.742  0.4508  0.3115  0.1015
   70MOL   H19814136   0.050   0.305   2.495 -0.3934  1.3521  2.0750
   70MOL   H19914137   7.788   0.140   2.494  1.5979  0.6660  0.2190
   70MOL   H20014138   7.592   0.281   2.415 -0.3857  1.4917 -1.0364
   70MOL   H20114139   7.625   0.401   2.534 -2.0347 -0.1460 -1.2777
   70MOL   H20214140   7.539   0.259   2.572  0.8977  0.7082  0.7761
   71MOL     O114141   1.962   3.133   7.659  0.2942  0.8049  0.5938
   71MOL     C214142   1.882   3.061   7.567  0.2085 -0.0664  0.0367
   71MOL     C314143   1.739   3.044   7.625  0.6671  0.2061 -0.2020
   71MOL     C414144   1.635   2.969   7.536 -1.0592 -0.1725 -0.2875
   71MOL     H514145   1.932   2.966   7.550 -2.2157 -1.1334 -1.3995
   71MOL     H614146   1.879   3.115   7.473 -1.4753  2.2283  1.3487
   71MOL     H714147   1.744   3.004   7.726  1.0550 -1.3308 -0.8203
   71MOL     H814148   1.698   3.143   7.645  1.4879  1.3751 -3.9918
   71MOL     H914149   1.681   2.874   7.510 -1.1896  0.1796 -1.8331
   71MOL    H1014150   1.615   3.005   7.435 -2.6578  0.1354  0.1271
   71MOL    H1114151   1.972   3.223   7.632  0.5430  1.0357  1.4264
   71MOL    O1214152   1.502   2.966   7.593  0.0954  0.2143  0.3239
   71MOL    C1314153   1.482   2.838   7.654 -0.2476 -0.2556  0.4161
   71MOL    C1414154   1.334   2.827   7.703 -0.0533 -0.6683 -0.0979
   71MOL    C1514155   1.309   2.923   0.032 -0.3190 -0.1924 -0.2233
   71MOL    H1614156   1.554   2.820   7.734  1.4039  1.0020 -0.7589
   71MOL    H1714157   1.491   2.762   7.576  0.7818 -1.1208  1.3626
   71MOL    H1814158   1.271   2.852   7.619  1.8716 -1.2817 -1.7594
   71MOL    H1914159   1.321   2.721   7.722  1.0126 -0.7790  0.0663
   71MOL    H2014160   1.204   2.911   0.061 -0.7340  2.6557 -0.4018
   71MOL    H2114161   1.314   3.026   7.784  1.8583 -0.3997 -0.5430
   71MOL    O2214162   1.399   2.904   0.143  0.6818  0.2834  0.2694
   71MOL    C2314163   1.352   2.966   0.261 -0.8376 -0.2063  0.3441
   71MOL    C2414164   1.430   2.905   0.383  0.1085  0.4629  0.1641
   71MOL    C2514165   1.361   2.933   0.517  0.4163  0.5090  0.6670
   71MOL    H2614166   1.246   2.944   0.273 -1.1571  0.8502 -0.4091
   71MOL    H2714167   1.360   3.075   0.255 -0.5300 -0.3056 -1.1395
   71MOL    H2814168   1.463   2.801   0.372  0.4282  0.5024  0.7092
   71MOL    H2914169   1.530   2.949   0.386  0.4562 -0.3172  0.4701
   71MOL    H3014170   1.325   3.036   0.520 -0.3366  0.2738 -0.0493
   71MOL    H3114171   1.425   2.926   0.605  0.8599  1.8328  0.4697
   71MOL    O3214172   1.254   2.838   0.528 -0.0107  0.8696  0.6351
   71MOL    C3314173   1.169   2.861   0.634 -0.1430  0.2193 -1.0029
   71MOL    C3414174   1.225   2.874   0.779 -0.7370  0.3323 -0.0651
   71MOL    C3514175   1.109   2.864   0.887 -0.2281  0.5575 -0.2471
   71MOL    H3614176   1.101   2.776   0.625 -0.0643 -0.1186  1.2904
   71MOL    H3714177   1.108   2.947   0.610  0.7363  0.6491 -1.7033
   71MOL    H3814178   1.291   2.788   0.794  1.3075  2.3737  3.3407
   71MOL    H3914179   1.289   2.962   0.793  0.2558 -0.1961 -1.2329
   71MOL    H4014180   1.047   2.954   0.885  1.4251  1.7103 -5.1630
   71MOL    H4114181   1.156   2.870   0.985  2.9022  1.4343 -1.7234
   71MOL    O4214182   1.021   2.754   0.867 -0.7686 -0.1414  0.8228
   71MOL    C4314183   0.929   2.743   0.978  0.4655 -0.3106 -0.1088
   71MOL    C4414184   0.820   2.637   0.949  0.4124 -0.0130 -0.4451
   71MOL    C4514185   0.870   2.488   0.933  0.6128 -0.4057  0.1273
   71MOL    H4614186   0.879   2.838   0.998 -0.3161 -0.9991  1.2581
   71MOL    H4714187   0.990   2.716   1.064  0.5215  0.7353  0.1948
   71MOL    H4814188   0.740   2.631   1.023  1.9153  2.1357  1.4365
   71MOL    H4914189   0.772   2.670   0.857  1.2833  1.7366 -0.3065
   71MOL    H5014190   0.906   2.460   1.032  1.0301 -1.3625 -0.2888
   71MOL    H5114191   0.936   2.486   0.846 -0.1632  0.0411 -0.4751
   71MOL    O5214192   0.756   2.414   0.886  0.5875 -0.6297 -0.0124
   71MOL    C5314193   0.779   2.274   0.885  0.1033 -0.3593  0.5875
   71MOL    C5414194   0.655   2.193   0.859 -0.0783 -0.3818 -0.4904
   71MOL    C5514195   0.670   2.036   0.840 -0.2628  0.5903  0.5202
   71MOL    H5614196   0.816   2.245   0.984  1.3915 -0.6185  0.0496
   71MOL    H5714197   0.856   2.247   0.813 -0.9188 -0.7784 -0.3481
   71MOL    H5814198   0.586   2.208   0.942 -1.4163 -1.4764 -1.3738
   71MOL    H5914199   0.590   2.244   0.788  0.6252 -0.1745 -0.9858
   71MOL    H6014200   0.755   2.019   0.774  0.9915 -1.0805  2.4960
   71MOL    H6114201   0.584   1.995   0.788 -0.3222 -1.5491  2.2340
   71MOL    O6214202   0.684   1.969   0.966 -0.1257 -0.2666 -0.4405
   71MOL    C6314203   0.676   1.826   0.976  0.2032  0.4517 -0.3201
   71MOL    C6414204   0.717   1.780   1.120 -0.1763 -0.1832  0.0020
   71MOL    C6514205   0.607   1.809   1.213  0.3411 -0.0119 -0.2308
   71MOL    H6614206   0.739   1.780   0.900 -1.3115 -0.0525 -1.3069
   71MOL    H6714207   0.580   1.782   0.950  0.3242  1.1248 -1.9521
   71MOL    H6814208   0.742   1.675   1.113  0.6934  0.0690 -0.6650
   71MOL    H6914209   0.809   1.831   1.149 -0.8870  2.0790 -1.5561
   71MOL    H7014210   0.529   1.735   1.197  0.6781 -0.8229  1.6829
   71MOL    H7114211   0.566   1.910   1.207 -0.2011 -0.2196 -0.0891
   71MOL    O7214212   0.666   1.782   1.344  0.3851 -0.1814 -0.0629
   71MOL    C7314213   0.583   1.782   1.456 -0.2286  0.5833 -0.3728
   71MOL    C7414214   0.670   1.752   1.582 -0.2577  0.0212 -0.1353
   71MOL    C7514215   0.602   1.723   1.712 -0.1900 -0.5964 -0.3957
   71MOL    H7614216   0.490   1.726   1.443  1.0078 -2.0066  1.4018
   71MOL    H7714217   0.550   1.885   1.462  1.6365  1.1063  1.1704
   71MOL    H7814218   0.745   1.674   1.569 -0.8899 -0.7488  0.7590
   71MOL    H7914219   0.737   1.835   1.603  1.8070 -2.3576  3.1919
   71MOL    H8014220   0.532   1.803   1.734 -2.6714 -3.1592  1.3605
   71MOL    H8114221   0.682   1.732   1.786  0.5916 -1.2894 -1.1446
   71MOL    O8214222   0.553   1.590   1.704 -0.3761 -0.0407  0.3565
   71MOL    C8314223   0.472   1.546   1.808 -0.0088 -0.5104 -0.5014
   71MOL    C8414224   0.381   1.443   1.751  0.0493  0.1347 -0.3813
   71MOL    C8514225   0.451   1.312   1.715  0.2473  0.0019 -0.5283
   71MOL    H8614226   0.408   1.628   1.842  1.2282 -0.3276  1.4022
   71MOL    H8714227   0.524   1.499   1.891 -2.6313 -1.8608  0.4512
   71MOL    H8814228   0.302   1.422   1.823  0.4308 -0.9627 -0.2781
   71MOL    H8914229   0.337   1.484   1.660  0.9020  0.3071 -0.7233
   71MOL    H9014230   0.492   1.278   1.810  1.6080 -0.0945 -1.1351
   71MOL    H9114231   0.538   1.331   1.652  0.1018  0.1636 -0.6806
   71MOL    O9214232   0.358   1.223   1.659  0.0971  0.1360 -0.5179
   71MOL    C9314233   0.412   1.089   1.653  0.6646  0.0305 -0.1133
   71MOL    C9414234   0.307   0.979   1.606 -0.3486 -0.2650  0.8760
   71MOL    C9514235   0.291   0.953   1.453 -0.5071  0.1782 -0.3633
   71MOL    H9614236   0.443   1.064   1.754  0.9310  2.5831  0.4732
   71MOL    H9714237   0.503   1.102   1.594  0.8741  2.8445  0.7378
   71MOL    H9814238   0.345   0.888   1.651  1.6122 -0.2760 -0.6917
   71MOL    H9914239   0.215   1.013   1.654  0.6214  1.9806  1.2075
   71MOL   H10014240   0.389   0.952   1.406 -0.3560 -0.8940 -0.0419
   71MOL   H10114241   0.238   1.032   1.400  1.8642  0.8304 -1.8086
   71MOL   O10214242   0.232   0.825   1.427 -0.5281 -0.0964 -1.0882
   71MOL   C10314243   0.086   0.831   1.428  0.4791 -0.2177  0.0171
   71MOL   C10414244   0.025   0.686   1.445 -1.0465 -1.1821 -0.8888
   71MOL   C10514245   0.055   0.630   1.586 -0.9484  0.2096  0.3242
   71MOL   H10614246   0.053   0.883   1.338  1.0089 -0.7642 -0.4955
   71MOL   H10714247   0.055   0.883   1.518 -0.9598 -0.9281 -0.0407
   71MOL   H10814248   7.705   0.679   1.433 -1.3763  2.3580 -0.4234
   71MOL   H10914249   0.081   0.626   1.372  1.2017  0.1129 -0.2862
   71MOL   H11014250   0.157   0.652   1.616 -0.8396  0.1062  0.0329
   71MOL   H11114251   0.043   0.522   1.574 -1.4102  0.4050 -1.1865
   71MOL   O11214252   7.762   0.699   1.677 -0.4905 -0.0668  0.7151
   71MOL   C11314253   7.773   0.645   1.809  0.4619 -0.3885 -0.1903
   71MOL   C11414254   0.105   0.719   1.883  0.2916  0.3849 -0.5033
   71MOL   C11514255   0.060   0.858   1.931  0.0716 -0.2768  0.0538
   71MOL   H11614256   7.786   0.537   1.817  1.8099 -0.3178 -1.2543
   71MOL   H11714257   7.683   0.673   1.864  0.5347  4.0312 -2.0963
   71MOL   H11814258   0.133   0.668   1.975  1.4874  0.8110 -0.6269
   71MOL   H11914259   0.195   0.725   1.822  0.3500 -0.0636 -0.4593
   71MOL   H12014260   7.772   0.854   2.008  0.1716  0.8832  0.2202
   71MOL   H12114261   0.013   0.908   1.846  0.4250 -0.5642 -0.3154
   71MOL   O12214262   0.183   0.927   1.968  0.5604  0.9024 -0.0329
   71MOL   C12314263   0.218   0.921   2.106  0.4170 -0.0337  0.2278
   71MOL   C12414264   0.369   0.903   2.121  0.4538 -0.0424  0.0153
   71MOL   C12514265   0.421   0.903   2.267  0.7072  0.1310 -0.1029
   71MOL   H12614266   0.162   0.841   2.155 -0.9266  0.0949 -1.0840
   71MOL   H12714267   0.176   1.009   2.156 -1.2408 -0.8108  0.2487
   71MOL   H12814268   0.389   0.810   2.067 -0.3688 -0.5572  0.5882
   71MOL   H12914269   0.405   0.988   2.063 -2.4453  0.7790 -0.6587
   71MOL   H13014270   0.376   0.985   2.322 -2.5358 -2.6906  1.6678
   71MOL   H13114271   0.529   0.918   2.273  0.3631  2.9775 -0.3122
   71MOL   O13214272   0.402   0.773   2.329  1.4760  0.2283 -0.6232
   71MOL   C13314273   0.464   0.754   2.455  0.2881  0.6871  0.0099
   71MOL   C13414274   0.374   0.668   2.533 -0.3106 -0.3459  0.4881
   71MOL   C13514275   0.445   0.639   2.667  0.5491  0.2308 -0.3992
   71MOL   H13614276   0.487   0.851   2.500 -0.1962  0.2064  1.3188
   71MOL   H13714277   0.561   0.710   2.432  0.5535  0.3336  1.7196
   71MOL   H13814278   0.279   0.715   2.558 -0.4222  0.2168 -0.9875
   71MOL   H13914279   0.363   0.579   2.472 -1.7905  0.9950 -1.2508
   71MOL   H14014280   0.451   0.725   2.735  0.6156 -0.8095  0.9325
   71MOL   H14114281   0.549   0.609   2.657  0.3337 -0.5595 -0.3228
   71MOL   O14214282   0.371   0.533   2.727 -0.2657 -0.1296 -0.8128
   71MOL   C14314283   0.432   0.472   2.835 -0.6706 -0.3309 -0.2790
   71MOL   C14414284   0.333   0.371   2.897 -0.0181 -0.7129 -0.2685
   71MOL   C14514285   0.391   0.295   3.016 -0.2745  0.5295 -0.5773
   71MOL   H14614286   0.474   0.556   2.891  1.5920 -0.9879 -0.9170
   71MOL   H14714287   0.515   0.423   2.784  0.2426 -0.4618  1.3025
   71MOL   H14814288   0.257   0.435   2.943  1.6038 -0.0772  1.6003
   71MOL   H14914289   0.307   0.305   2.814 -0.3143 -2.3110  1.0788
   71MOL   H15014290   0.428   0.360   3.095 -2.2575 -0.0878  0.9112
   71MOL   H15114291   0.473   0.235   2.978  0.5009  1.8977 -1.0653
   71MOL   O15214292   0.293   0.200   3.060  0.5757  0.5547 -0.1448
   71MOL   C15314293   0.340   0.148   3.189  0.4575  0.4728  0.2957
   71MOL   C15414294   0.247   0.044   3.231 -0.1794 -0.6416  0.6107
   71MOL   C15514295   0.255   7.701   3.149 -0.5192 -0.0757  0.2003
   71MOL   H15614296   0.353   0.226   3.264 -4.8219 -0.1509  2.0411
   71MOL   H15714297   0.439   0.113   3.161 -0.2878 -0.1697 -1.6519
   71MOL   H15814298   0.269   0.021   3.335 -0.7517 -0.6418  0.7338
   71MOL   H15914299   0.144   0.079   3.233  0.9499  2.9779 -1.3868
   71MOL   H16014300   0.356   7.660   3.150 -0.3205  0.3857  1.9935
   71MOL   H16114301   0.233   7.722   3.044 -1.9219 -0.3488  0.4392
   71MOL   O16214302   0.171   7.591   3.187  0.0265  0.0741 -0.7550
   71MOL   C16314303   0.152   7.484   3.093 -0.2471  0.1615  0.0209
   71MOL   C16414304   0.116   7.359   3.175  0.2760  0.2838  0.1050
   71MOL   C16514305   0.084   7.235   3.086  0.3214 -0.6507 -0.1374
   71MOL   H16614306   0.247   7.474   3.039 -1.6995 -0.6279 -2.4751
   71MOL   H16714307   0.076   7.505   3.018  0.0150  0.0221 -0.2828
   71MOL   H16814308   0.188   7.348   3.256  1.1726  0.9227 -0.5974
   71MOL   H16914309   0.028   7.371   3.239 -0.4843  3.7079 -1.4684
   71MOL   H17014310   0.008   7.253   3.010  1.0861  0.6204 -0.6245
   71MOL   H17114311   0.058   7.149   3.147  0.5886 -0.1924  0.6249
   71MOL   O17214312   0.197   7.194   3.013  0.4353  0.4100 -0.4965
   71MOL   C17314313   0.313   7.171   3.085 -0.6193  0.4116  0.4752
   71MOL   C17414314   0.417   7.107   2.991 -0.4180 -0.3769  0.4424
   71MOL   C17514315   0.536   7.083   3.071  0.3218 -0.4333  0.1471
   71MOL   H17614316   0.303   7.103   3.170  1.3439 -2.1315 -1.2676
   71MOL   H17714317   0.349   7.265   3.127  0.2120  0.9388 -1.3676
   71MOL   H17814318   0.364   7.017   2.958 -2.4097  0.3552  1.5477
   71MOL   H17914319   0.442   7.178   2.913  0.3080 -0.3772  0.6768
   71MOL   H18014320   0.522   7.023   3.161  0.4756  1.8457  1.7181
   71MOL   H18114321   0.574   7.177   3.111  5.3688 -0.5657 -3.8768
   71MOL   O18214322   0.640   7.039   2.988  0.0913  0.3305  0.7992
   71MOL   C18314323   0.765   7.057   3.065 -0.4325 -0.9801  0.1089
   71MOL   C18414324   0.877   7.004   2.979 -0.5860  0.1328 -0.6177
   71MOL   C18514325   0.909   7.080   2.851 -0.0453  1.0419  0.9366
   71MOL   H18614326   0.764   7.005   3.161  2.5873 -1.8524 -0.2838
   71MOL   H18714327   0.782   7.163   3.087  2.7533 -1.3707 -0.2166
   71MOL   H18814328   0.973   7.004   3.032 -0.0715 -1.9743 -1.4966
   71MOL   H18914329   0.855   6.901   2.954  0.7846 -0.2734 -0.2302
   71MOL   H19014330   0.931   7.186   2.865 -0.3233  1.0280  1.5133
   71MOL   H19114331   0.821   7.075   2.786  0.2148  0.2144  0.6493
   71MOL   O19214332   1.020   7.024   2.786  0.3422  0.3967  0.3565
   71MOL   C19314333   1.053   7.077   2.658 -0.3004 -0.1056  0.0093
   71MOL   C19414334   1.201   7.037   2.630  0.0929 -0.3861  0.6578
   71MOL   C19514335   1.248   7.088   2.497 -0.1948  0.3924  0.8757
   71MOL   H19614336   1.048   7.185   2.674  0.6835 -0.1521  0.6944
   71MOL   H19714337   0.989   7.056   2.573 -0.8100  3.3855 -0.5542
   71MOL   H19814338   1.256   7.072   2.718 -0.1829 -2.0292  1.4967
   71MOL   H19914339   1.204   6.930   2.646 -0.5530 -0.5477 -0.2421
   71MOL   H20014340   1.203   7.034   2.413  0.7851  3.5113 -1.7861
   71MOL   H20114341   1.356   7.080   2.483 -0.4996 -0.0586 -1.5061
   71MOL   H20214342   1.224   7.194   2.490 -3.3633 -0.3656 -0.5226
   72MOL     O114343   6.348   1.155   1.121  0.2728 -0.0395  0.2858
   72MOL     C214344   6.457   1.123   1.200 -0.7172  0.0675 -0.4230
   72MOL     C314345   6.560   1.041   1.118  0.0984 -0.5919  0.2561
   72MOL     C414346   6.677   0.992   1.200  0.4613 -0.1118 -0.1081
   72MOL     H514347   6.423   1.058   1.281  1.3207  0.5007  0.8204
   72MOL     H614348   6.504   1.212   1.242  1.6547 -0.6765 -1.4247
   72MOL     H714349   6.524   0.952   1.067  1.7041 -1.0344 -0.1306
   72MOL     H814350   6.598   1.106   1.039  1.1336 -1.5092 -0.0185
   72MOL     H914351   6.633   0.936   1.282  1.4333 -0.0432  0.4709
   72MOL    H1014352   6.732   1.081   1.230 -0.1750  0.4503 -0.6074
   72MOL    H1114353   6.280   1.196   1.172 -0.5433 -1.2387  0.1745
   72MOL    O1214354   6.754   0.890   1.127  0.6107  0.0865  0.5187
   72MOL    C1314355   6.869   0.841   1.203 -0.2641  0.6583  0.8547
   72MOL    C1414356   6.943   0.731   1.125  0.6761  0.1151  0.5935
   72MOL    C1514357   7.014   0.791   1.003  0.0181  0.2176 -0.2083
   72MOL    H1614358   6.838   0.789   1.294 -0.1066  1.3174  1.2855
   72MOL    H1714359   6.929   0.926   1.234  1.6855  0.3065 -1.7961
   72MOL    H1814360   7.019   0.691   1.193  1.8018  1.0660 -0.0870
   72MOL    H1914361   6.878   0.647   1.101 -0.3516  0.8241  0.8864
   72MOL    H2014362   7.082   0.872   1.031  1.5064 -0.9268 -0.4238
   72MOL    H2114363   6.936   0.828   0.937  1.4502 -0.8209 -2.5528
   72MOL    O2214364   7.090   0.684   0.942  0.0697  0.1921  0.0248
   72MOL    C2314365   7.176   0.711   0.827 -0.0786  0.7158  0.2843
   72MOL    C2414366   7.226   0.576   0.773  0.1265  0.4874 -0.2307
   72MOL    C2514367   7.336   0.510   0.855 -0.8807 -0.1892 -0.3839
   72MOL    H2614368   7.262   0.768   0.861 -0.6871  1.2675  0.9055
   72MOL    H2714369   7.120   0.766   0.751 -1.1632  0.5190  0.9260
   72MOL    H2814370   7.139   0.512   0.764 -0.1931  0.8087  0.5400
   72MOL    H2914371   7.264   0.590   0.672  1.3753  2.0186  0.4271
   72MOL    H3014372   7.305   0.499   0.959 -0.1974 -0.0700 -0.1595
   72MOL    H3114373   7.419   0.580   0.856 -0.8407 -0.2150  2.0184
   72MOL    O3214374   7.368   0.387   0.804 -1.0426 -0.4076 -0.0603
   72MOL    C3314375   7.475   0.325   0.880  0.0817 -0.2190 -0.0460
   72MOL    C3414376   7.425   0.195   0.949 -0.0352 -0.6663 -0.2173
   72MOL    C3514377   7.509   0.148   1.066  0.3785 -0.2545 -0.0775
   72MOL    H3614378   7.507   0.396   0.956  4.5028 -1.5730 -0.5211
   72MOL    H3714379   7.563   0.300   0.821  0.4374 -0.2564  0.4947
   72MOL    H3814380   7.322   0.209   0.982  0.0753 -0.4833  0.0465
   72MOL    H3914381   7.416   0.120   0.870 -1.7041 -0.2565 -0.4355
   72MOL    H4014382   7.611   0.128   1.034 -0.3264  0.0468 -2.5511
   72MOL    H4114383   7.471   0.056   1.110 -1.4547  0.4677 -0.0898
   72MOL    O4214384   7.504   0.246   1.171 -0.6048  0.0342  0.1909
   72MOL    C4314385   7.564   0.196   1.294  0.0477 -0.2480  0.1382
   72MOL    C4414386   7.715   0.249   1.297 -1.0741 -0.6289  0.5181
   72MOL    C4514387   0.007   0.175   1.404 -0.3516 -0.0478 -0.3144
   72MOL    H4614388   7.567   0.090   1.321 -0.9955 -0.5374 -0.8289
   72MOL    H4714389   7.521   0.237   1.385 -1.0933 -0.4345 -0.2949
   72MOL    H4814390   7.756   0.226   1.198  0.9497  0.0591  1.1624
   72MOL    H4914391   7.728   0.356   1.312 -1.0785 -0.4754 -0.5382
   72MOL    H5014392   0.033   0.074   1.374 -0.7601  0.2225 -1.5997
   72MOL    H5114393   7.731   0.145   1.487  2.1597 -0.0031  1.7213
   72MOL    O5214394   0.116   0.262   1.443  0.4691  0.0081 -0.7724
   72MOL    C5314395   0.204   0.192   1.530  0.0933 -0.5650  0.3470
   72MOL    C5414396   0.306   0.291   1.599  0.3293 -0.5348 -0.0810
   72MOL    C5514397   0.266   0.312   1.750  0.9432 -0.0892 -0.4343
   72MOL    H5614398   0.242   0.097   1.490  1.3003  0.0630 -0.0364
   72MOL    H5714399   0.142   0.175   1.618  0.7331  1.1748  1.1477
   72MOL    H5814400   0.411   0.264   1.601  0.7958  1.1998 -0.3503
   72MOL    H5914401   0.293   0.386   1.548 -0.0125 -0.6097 -0.1371
   72MOL    H6014402   0.277   0.215   1.798  0.0752  0.0995  0.1639
   72MOL    H6114403   0.169   0.353   1.780  0.0580 -2.1443 -0.4204
   72MOL    O6214404   0.365   0.395   1.804 -1.0360  0.0163 -0.1759
   72MOL    C6314405   0.342   0.423   1.942  0.2461 -0.1436  0.1534
   72MOL    C6414406   0.444   0.527   1.993  0.8783 -0.1716  0.4165
   72MOL    C6514407   0.582   0.465   2.008  0.3398 -0.3147 -0.0750
   72MOL    H6614408   0.349   0.337   2.009 -1.7973  0.4286  1.1560
   72MOL    H6714409   0.247   0.472   1.963 -0.6988 -2.1404  0.6826
   72MOL    H6814410   0.443   0.619   1.934 -0.7126 -1.1890 -1.1948
   72MOL    H6914411   0.416   0.555   2.095 -0.9055 -1.4709  0.3081
   72MOL    H7014412   0.630   0.462   1.910  0.3163  0.7045 -0.1236
   72MOL    H7114413   0.581   0.369   2.059  1.5894 -0.7678 -0.8664
   72MOL    O7214414   0.676   0.548   2.069  0.5277 -0.1535 -0.3691
   72MOL    C7314415   0.772   0.486   2.150 -0.2220 -0.4659 -0.5236
   72MOL    C7414416   0.846   0.601   2.229  0.3108 -0.2391  0.1067
   72MOL    C7514417   0.907   0.561   2.361 -0.0447 -0.3706  0.0922
   72MOL    H7614418   0.838   0.425   2.089 -0.3525 -1.3261  0.1913
   72MOL    H7714419   0.726   0.415   2.218  0.2439  0.0108  0.2952
   72MOL    H7814420   0.920   0.650   2.166 -0.2996  0.0508 -0.3951
   72MOL    H7914421   0.765   0.671   2.248 -1.0683 -1.9329  0.5444
   72MOL    H8014422   0.938   0.649   2.418  1.8459 -0.7304 -0.3490
   72MOL    H8114423   1.004   0.514   2.344  0.7636  0.9149  1.0875
   72MOL    O8214424   0.822   0.474   2.433 -0.0256  0.3730 -0.7026
   72MOL    C8314425   0.877   0.462   2.566 -0.6551 -0.7664 -0.8727
   72MOL    C8414426   0.790   0.355   2.630 -0.6238  0.3830  0.0892
   72MOL    C8514427   0.823   0.325   2.772 -0.6104  0.0369 -0.1529
   72MOL    H8614428   0.881   0.555   2.623  0.2120 -0.5284 -1.3240
   72MOL    H8714429   0.981   0.432   2.550 -0.4727 -0.5824 -0.0840
   72MOL    H8814430   0.685   0.387   2.634 -0.7263  0.0930 -0.2562
   72MOL    H8914431   0.786   0.265   2.568  1.8454  0.6126 -0.4393
   72MOL    H9014432   0.783   0.395   2.845 -0.5629  1.9214 -1.8883
   72MOL    H9114433   0.929   0.328   2.799 -0.8687  1.4768  0.7444
   72MOL    O9214434   0.777   0.194   2.803  0.1565 -0.1257 -0.6558
   72MOL    C9314435   0.783   0.158   2.942  0.9365  0.7567  0.4949
   72MOL    C9414436   0.750   0.001   2.960 -0.0504  0.1887 -0.0588
   72MOL    C9514437   0.743   7.753   3.109  0.7620  0.3536  0.6708
   72MOL    H9614438   0.721   0.212   3.014 -1.0358  0.2631 -0.7972
   72MOL    H9714439   0.889   0.163   2.968  1.0141 -3.3100  1.3121
   72MOL    H9814440   0.658   7.766   2.906  0.1028 -5.7401  1.9566
   72MOL    H9914441   0.826   7.739   2.901 -0.0185  0.9898 -0.7111
   72MOL   H10014442   0.684   0.041   3.160  0.9914  0.8639  0.1920
   72MOL   H10114443   0.840   7.736   3.156  1.1005  0.0570 -0.1173
   72MOL   O10214444   0.682   7.631   3.123 -0.1369  0.0886 -0.3054
   72MOL   C10314445   0.651   7.605   3.256  0.8809 -0.8863 -0.5042
   72MOL   C10414446   0.581   7.467   3.254 -1.2536  0.2088 -0.3356
   72MOL   C10514447   0.532   7.421   3.390 -0.1159  0.1145  0.4605
   72MOL   H10614448   0.592   7.690   3.291  2.6636 -0.5566  1.8459
   72MOL   H10714449   0.739   7.598   3.321  1.1544 -2.6038 -1.0214
   72MOL   H10814450   0.495   7.467   3.187 -1.2001 -2.6181 -0.4855
   72MOL   H10914451   0.653   7.399   3.208  1.3590  1.4986  1.7521
   72MOL   H11014452   0.473   7.503   3.431 -0.1501  0.0074  0.6288
   72MOL   H11114453   0.614   7.407   3.460  0.2873 -0.8571 -0.1994
   72MOL   O11214454   0.453   7.302   3.387 -0.8145  0.3847  0.1805
   72MOL   C11314455   0.391   7.272   3.514  0.1330 -0.0866  0.2009
   72MOL   C11414456   0.295   7.155   3.493 -0.2671 -0.1016 -0.9539
   72MOL   C11514457   0.234   7.115   3.622  0.3407 -0.9615  0.3222
   72MOL   H11614458   0.339   7.361   3.549 -1.0910 -0.8624  0.3715
   72MOL   H11714459   0.469   7.247   3.585  0.7198 -0.7647 -0.6598
   72MOL   H11814460   0.207   7.193   3.442 -1.3474  0.2949  1.1955
   72MOL   H11914461   0.344   7.068   3.449  0.6334 -0.6770  1.1231
   72MOL   H12014462   0.159   7.039   3.599 -1.3669  0.8642 -0.3105
   72MOL   H12114463   0.170   7.195   3.656  4.4372  3.3143 -1.4380
   72MOL   O12214464   0.325   7.057   3.705  0.3466 -0.2414 -0.2702
   72MOL   C12314465   0.285   6.986   3.822  0.1342 -0.3901 -0.1836
   72MOL   C12414466   0.416   6.954   3.897 -0.4573 -0.2913  0.7338
   72MOL   C12514467   0.405   6.843   3.997  0.2341  0.9044 -0.0462
   72MOL   H12614468   0.234   6.891   3.806 -0.3166 -0.0081 -1.0686
   72MOL   H12714469   0.218   7.044   3.885  1.5625  2.8284 -1.4794
   72MOL   H12814470   0.490   6.918   3.827 -0.8315 -0.2492  0.3157
   72MOL   H12914471   0.444   7.050   3.942 -1.9338 -0.7211  2.6814
   72MOL   H13014472   0.374   6.750   3.949  2.2562 -0.3369  0.9583
   72MOL   H13114473   0.341   6.857   4.084 -0.5468  1.4935 -0.7234
   72MOL   O13214474   0.536   6.811   4.040  0.1109 -0.1124 -0.8394
   72MOL   C13314475   0.535   6.755   4.168 -0.1273  0.0492  0.7953
   72MOL   C13414476   0.674   6.726   4.221 -0.4959  0.5473  0.3504
   72MOL   C13514477   0.665   6.708   4.374  0.3362  0.8722 -0.7431
   72MOL   H13614478   0.468   6.669   4.174 -1.2353  0.8502  0.0996
   72MOL   H13714479   0.488   6.833   4.228  0.3023 -0.1081  1.3463
   72MOL   H13814480   0.722   6.642   4.171 -0.2937  0.2894  0.9644
   72MOL   H13914481   0.748   6.801   4.192  0.4199  0.5022  2.4156
   72MOL   H14014482   0.600   6.621   4.382  1.4383  0.1071 -0.0125
   72MOL   H14114483   0.618   6.791   4.427 -0.5021  1.2118 -2.0060
   72MOL   O14214484   0.790   6.671   4.420 -0.6826  0.5452 -0.0996
   72MOL   C14314485   0.797   6.607   4.545 -0.5057  0.0139 -0.7528
   72MOL   C14414486   0.939   6.592   4.612 -0.4214 -0.4519  0.3815
   72MOL   C14514487   0.951   6.527   4.751  0.8061 -0.2739 -0.2110
   72MOL   H14614488   0.764   6.503   4.543 -0.1428 -0.1502  0.9377
   72MOL   H14714489   0.737   6.667   4.614 -0.3817 -0.2129 -0.4484
   72MOL   H14814490   0.993   6.536   4.536 -1.5769  0.1728 -0.9201
   72MOL   H14914491   0.978   6.694   4.616 -1.5459  0.0627 -1.2052
   72MOL   H15014492   1.054   6.491   4.753  0.8954  0.0422  0.9479
   72MOL   H15114493   0.872   6.452   4.756 -0.4768  1.1558  1.1359
   72MOL   O15214494   0.923   6.631   4.846 -0.0753 -0.1322  0.2884
   72MOL   C15314495   0.968   6.598   4.982 -0.7021 -0.0781 -0.3518
   72MOL   C15414496   0.955   6.738   5.053 -0.4394  1.2445  0.8964
   72MOL   C15514497   1.009   6.745   5.197  0.0698 -0.2926  0.5590
   72MOL   H15614498   1.071   6.562   4.984 -0.7247 -0.0719  1.0902
   72MOL   H15714499   0.901   6.526   5.028 -0.2739 -1.1808 -1.4023
   72MOL   H15814500   0.998   6.819   4.995 -1.2460  0.4524 -0.8647
   72MOL   H15914501   0.848   6.761   5.056 -1.0058 -0.7568 -1.7245
   72MOL   H16014502   0.992   6.659   5.263 -0.4749  1.6838  3.0629
   72MOL   H16114503   0.954   6.822   5.250 -3.8928 -0.9954 -2.3229
   72MOL   O16214504   1.143   6.763   5.193 -0.7288 -0.2259 -0.4555
   72MOL   C16314505   1.187   6.817   5.317  0.1842 -0.0608 -0.3136
   72MOL   C16414506   1.345   6.832   5.296  0.0860 -0.2582 -0.7082
   72MOL   C16514507   1.428   6.705   5.316 -0.5873 -0.2191  0.2467
   72MOL   H16614508   1.152   6.761   5.403 -1.5047  1.3794 -0.0516
   72MOL   H16714509   1.138   6.912   5.333 -1.8241 -0.8922 -1.3744
   72MOL   H16814510   1.356   6.870   5.194 -0.7542  1.0121 -0.3482
   72MOL   H16914511   1.387   6.913   5.356  0.5277  1.1543 -2.8612
   72MOL   H17014512   1.535   6.727   5.314 -0.5502 -0.1805  1.9886
   72MOL   H17114513   1.404   6.628   5.243 -1.3438 -1.0197  1.3319
   72MOL   O17214514   1.400   6.677   5.451  0.2711  0.0364  0.1863
   72MOL   C17314515   1.457   6.555   5.491 -0.5389 -0.2181  0.1425
   72MOL   C17414516   1.396   6.500   5.616  0.9160  0.7710  0.0224
   72MOL   C17514517   1.248   6.461   5.605 -0.1730  0.6156 -0.0581
   72MOL   H17614518   1.566   6.556   5.497 -0.4675 -0.3421 -1.1222
   72MOL   H17714519   1.435   6.488   5.408 -0.3798  2.6053 -2.2374
   72MOL   H17814520   1.445   6.412   5.658 -1.7196  0.3434  2.3421
   72MOL   H17914521   1.397   6.569   5.700  0.5959 -0.9066  1.4313
   72MOL   H18014522   1.229   6.391   5.523  3.8525  0.0241 -0.5821
   72MOL   H18114523   1.186   6.549   5.589  0.4746  0.7653 -1.8084
   72MOL   O18214524   1.191   6.403   5.727  0.4365 -0.4665 -0.4220
   72MOL   C18314525   1.086   6.318   5.705 -0.2233  0.0193  0.1326
   72MOL   C18414526   1.060   6.249   5.836 -0.1211 -0.5631  0.2668
   72MOL   C18514527   0.931   6.166   5.832 -0.0561  0.3943 -0.2405
   72MOL   H18614528   1.116   6.238   5.636  1.6760  1.0800 -0.3106
   72MOL   H18714529   0.997   6.375   5.681 -0.4536  0.9493  2.9488
   72MOL   H18814530   1.131   6.176   5.875  2.1413 -0.0043 -2.6716
   72MOL   H18914531   1.045   6.325   5.913 -2.8213  0.1024 -0.8578
   72MOL   H19014532   0.935   6.091   5.753  1.7961  2.5317 -2.2563
   72MOL   H19114533   0.844   6.230   5.825 -1.4997 -1.6462 -1.4957
   72MOL   O19214534   0.922   6.101   5.955  0.0309 -0.1712 -0.0730
   72MOL   C19314535   0.817   6.008   5.970 -0.3250  0.7445 -0.2256
   72MOL   C19414536   0.825   5.925   6.100  0.4417  0.6700 -0.4928
   72MOL   C19514537   0.968   5.863   6.125  0.0703 -0.0384  0.1799
   72MOL   H19614538   0.818   5.929   5.895  2.6263 -0.5937  1.1275
   72MOL   H19714539   0.723   6.063   5.965 -0.0102  1.3385  0.4595
   72MOL   H19814540   0.808   5.987   6.188 -0.6180 -0.3535  0.0259
   72MOL   H19914541   0.750   5.852   6.127  2.8275 -0.8003  2.4832
   72MOL   H20014542   1.001   5.803   6.041  0.9829 -1.1905  1.3427
   72MOL   H20114543   0.961   5.806   6.218  1.1998  0.7299  0.7434
   72MOL   H20214544   1.039   5.943   6.146  0.4487 -0.5537  0.8976
   73MOL     O114545   4.530   4.463   5.436 -0.6314 -0.0601 -0.3434
   73MOL     C214546   4.565   4.550   5.543  0.4723 -0.0875  0.6173
   73MOL     C314547   4.681   4.648   5.489  0.0343 -0.3203 -0.0527
   73MOL     C414548   4.748   4.743   5.588  0.0340  0.2034 -0.6031
   73MOL     H514549   4.604   4.495   5.628 -2.0144 -0.2292  1.6824
   73MOL     H614550   4.482   4.612   5.575 -0.5061  0.1695 -2.2876
   73MOL     H714551   4.753   4.588   5.433 -0.2379 -1.0544  0.3699
   73MOL     H814552   4.644   4.713   5.410  1.2619 -0.2746 -0.5902
   73MOL     H914553   4.780   4.835   5.538 -0.8689  0.8543 -0.0086
   73MOL    H1014554   4.841   4.697   5.619  0.4649 -0.1898 -2.4231
   73MOL    H1114555   4.460   4.496   5.381 -0.9483  1.1017  0.7467
   73MOL    O1214556   4.667   4.778   5.691  0.1420  0.1019 -0.4688
   73MOL    C1314557   4.734   4.860   5.788 -0.5294 -0.2149 -0.3699
   73MOL    C1414558   4.637   4.910   5.898  0.2566 -0.1528 -0.4406
   73MOL    C1514559   4.705   4.997   6.009  0.4252  0.3877  0.0449
   73MOL    H1614560   4.771   4.950   5.738 -0.3157 -0.3292 -0.4199
   73MOL    H1714561   4.825   4.812   5.824 -0.4923 -1.7729 -2.4322
   73MOL    H1814562   4.560   4.967   5.844  0.7256  1.4407  0.5461
   73MOL    H1914563   4.594   4.825   5.950 -1.0504  0.9641  0.3786
   73MOL    H2014564   4.756   5.083   5.968  1.5139 -0.5658 -0.6210
   73MOL    H2114565   4.776   4.930   6.057 -1.8522 -1.6697  0.7143
   73MOL    O2214566   4.596   5.040   6.099  0.1596 -0.2442  0.1363
   73MOL    C2314567   4.640   5.127   6.204 -0.1826  0.1012  0.5591
   73MOL    C2414568   4.523   5.204   6.249  0.3701 -0.1267 -0.4830
   73MOL    C2514569   4.479   5.307   6.149  0.1024 -0.6620  0.3740
   73MOL    H2614570   4.719   5.194   6.173  0.3441  0.0903  1.8365
   73MOL    H2714571   4.686   5.072   6.286  0.3168  0.4284  0.4999
   73MOL    H2814572   4.445   5.130   6.265 -1.0363  1.5005  0.4107
   73MOL    H2914573   4.541   5.251   6.346 -0.1750 -0.1636 -0.3627
   73MOL    H3014574   4.459   5.261   6.052  0.9592  2.7911 -1.5486
   73MOL    H3114575   4.553   5.386   6.134  1.1542 -1.6875  0.1179
   73MOL    O3214576   4.362   5.371   6.197  1.0773  0.2921 -0.6074
   73MOL    C3314577   4.301   5.453   6.102  0.0254  0.7018 -0.1363
   73MOL    C3414578   4.201   5.536   6.175 -0.1544 -0.0837  0.0714
   73MOL    C3514579   4.107   5.626   6.083  0.4135 -0.3451 -0.2085
   73MOL    H3614580   4.260   5.404   6.014  0.2303 -0.2054  0.2665
   73MOL    H3714581   4.379   5.514   6.056 -0.2475  0.0074 -1.5526
   73MOL    H3814582   4.150   5.462   6.235  0.0483  0.4503  0.9043
   73MOL    H3914583   4.256   5.598   6.246  0.8788 -0.3058 -0.5212
   73MOL    H4014584   4.055   5.566   6.009 -0.6423 -2.1864  1.9925
   73MOL    H4114585   4.176   5.701   6.043  0.6080  0.0448  0.8287
   73MOL    O4214586   4.032   5.717   6.164  0.1064  0.2242 -0.3299
   73MOL    C4314587   3.926   5.663   6.237  0.1448 -0.2660 -0.6727
   73MOL    C4414588   3.822   5.767   6.272  0.2970  0.2163 -0.4226
   73MOL    C4514589   3.715   5.799   6.172 -0.0687 -0.3894 -0.0454
   73MOL    H4614590   3.970   5.610   6.321  0.8236  1.7879  0.2943
   73MOL    H4714591   3.874   5.589   6.175  1.8627 -2.6171  0.6173
   73MOL    H4814592   3.772   5.718   6.355 -0.3793 -1.8477 -1.9978
   73MOL    H4914593   3.868   5.854   6.319 -0.2540  0.0222  0.4757
   73MOL    H5014594   3.661   5.710   6.138 -0.3264 -1.0006  1.8889
   73MOL    H5114595   3.764   5.832   6.080  2.3975  1.6126  1.9176
   73MOL    O5214596   3.611   5.872   6.240 -0.0227  0.1801  0.7382
   73MOL    C5314597   3.561   5.986   6.173 -0.0507  0.0854 -0.0270
   73MOL    C5414598   3.468   6.050   6.273  0.6577  0.3968  0.2667
   73MOL    C5514599   3.407   6.181   6.227 -0.2619 -0.0736 -0.0945
   73MOL    H5614600   3.502   5.959   6.085  0.5434 -0.9460 -0.1114
   73MOL    H5714601   3.636   6.058   6.139 -1.4776  2.5837  1.8841
   73MOL    H5814602   3.384   5.983   6.293  0.3853  0.2958 -1.1193
   73MOL    H5914603   3.509   6.070   6.372 -0.2344 -2.8800  1.3665
   73MOL    H6014604   3.319   6.161   6.167 -0.2406 -0.2721 -0.0579
   73MOL    H6114605   3.474   6.232   6.158 -1.9053  0.7657 -1.0870
   73MOL    O6214606   3.384   6.268   6.338 -0.3687  0.1991  0.3216
   73MOL    C6314607   3.337   6.398   6.309  0.2241  0.8314 -0.0967
   73MOL    C6414608   3.339   6.471   6.445  0.3081  0.0081 -0.3682
   73MOL    C6514609   3.267   6.608   6.445 -0.2390 -0.3249  0.0198
   73MOL    H6614610   3.234   6.388   6.275  0.0259  1.5533  0.2882
   73MOL    H6714611   3.399   6.441   6.230  0.7439 -0.0897 -0.2030
   73MOL    H6814612   3.304   6.419   6.534  2.1776  0.5342  0.7119
   73MOL    H6914613   3.440   6.494   6.477  0.2980  1.7114 -1.5032
   73MOL    H7014614   3.174   6.589   6.391  1.3102  0.1029 -2.8881
   73MOL    H7114615   3.320   6.681   6.385  1.7282 -1.6743  0.0780
   73MOL    O7214616   3.223   6.652   6.572 -0.4750 -0.0004 -0.6601
   73MOL    C7314617   3.138   6.767   6.557  0.6273 -0.4457  0.1124
   73MOL    C7414618   3.073   6.809   6.688  0.2556  0.2766 -0.1468
   73MOL    C7514619   2.963   6.717   6.744  0.1737 -0.6744  0.3900
   73MOL    H7614620   3.063   6.732   6.486 -0.3162  2.5677 -0.4382
   73MOL    H7714621   3.186   6.852   6.509 -0.8120  0.2808 -0.0436
   73MOL    H7814622   3.152   6.809   6.763 -1.4632 -1.0263  1.7049
   73MOL    H7914623   3.029   6.908   6.676 -0.5812 -0.0611  0.1256
   73MOL    H8014624   2.927   6.638   6.679  0.9849  1.1140 -2.2824
   73MOL    H8114625   2.870   6.774   6.751  0.8277  0.5020 -0.3813
   73MOL    O8214626   2.983   6.676   6.885 -0.0358  0.4009  0.6721
   73MOL    C8314627   2.877   6.591   6.942 -0.7848  0.2378  0.9262
   73MOL    C8414628   2.897   6.585   7.091  0.5621 -0.3224  0.2694
   73MOL    C8514629   2.994   6.478   7.138  1.0285 -0.2632 -0.3741
   73MOL    H8614630   2.873   6.488   6.908  1.8441  0.3584  0.1833
   73MOL    H8714631   2.784   6.640   6.912  0.0623  2.3021  1.5801
   73MOL    H8814632   2.932   6.684   7.121 -1.4552  0.0019  1.6377
   73MOL    H8914633   2.800   6.578   7.139 -0.5183  0.1321 -1.7871
   73MOL    H9014634   3.089   6.509   7.095  1.6308 -1.1147  0.3239
   73MOL    H9114635   2.969   6.376   7.109 -0.4393 -0.2208  0.6733
   73MOL    O9214636   3.003   6.490   7.279  0.4811  0.7702  0.5771
   73MOL    C9314637   3.097   6.403   7.331 -0.0336  0.2455 -0.0764
   73MOL    C9414638   3.115   6.438   7.476 -0.0530  0.0965  0.2408
   73MOL    C9514639   3.227   6.356   7.528  0.5489  0.1954 -0.3492
   73MOL    H9614640   3.192   6.395   7.278 -0.1993  2.5213 -0.7638
   73MOL    H9714641   3.054   6.303   7.328  1.1233 -0.2910  0.8408
   73MOL    H9814642   3.140   6.544   7.481  1.9718 -0.3306 -0.3864
   73MOL    H9914643   3.025   6.414   7.533 -1.7480  1.7776 -1.6413
   73MOL   H10014644   3.325   6.372   7.483  1.2370 -0.3547  0.9330
   73MOL   H10114645   3.208   6.249   7.513 -1.2049  0.4652 -0.2035
   73MOL   O10214646   3.233   6.377   7.670 -0.1366 -0.2348  0.2530
   73MOL   C10314647   3.350   6.325   7.722 -0.6359  0.3046  0.7350
   73MOL   C10414648   3.351   6.340   0.094 -0.3158  0.8225  0.0970
   73MOL   C10514649   3.447   6.251   0.177  1.3069 -0.0596 -1.0510
   73MOL   H10614650   3.436   6.373   7.676 -1.5796  0.0219 -1.3997
   73MOL   H10714651   3.374   6.225   7.686 -1.7830  0.1879  0.2632
   73MOL   H10814652   3.373   6.443   0.118 -4.3056  1.6434  0.6890
   73MOL   H10914653   3.250   6.321   0.132 -0.4409  0.5434 -0.3554
   73MOL   H11014654   3.547   6.252   0.134  2.5646  0.8046  1.7995
   73MOL   H11114655   3.410   6.148   0.174  0.5582  0.2047 -1.0878
   73MOL   O11214656   3.455   6.296   0.314 -0.2609  0.0102 -0.3752
   73MOL   C11314657   3.548   6.402   0.330 -0.3113  0.0333  0.1445
   73MOL   C11414658   3.490   6.478   0.452  0.0007 -0.3561  0.0721
   73MOL   C11514659   3.365   6.548   0.418 -0.3834 -0.2393 -0.0530
   73MOL   H11614660   3.580   6.468   0.249 -1.5794 -1.0813 -1.2824
   73MOL   H11714661   3.644   6.363   0.364 -0.3239 -0.5432 -0.4806
   73MOL   H11814662   3.460   6.403   0.525 -0.7923 -0.3171 -0.2146
   73MOL   H11914663   3.558   6.546   0.502 -1.7889  0.8847  0.8623
   73MOL   H12014664   3.299   6.468   0.384  0.6118 -1.7682  1.5406
   73MOL   H12114665   3.378   6.617   0.334 -1.8687  0.5653  0.3724
   73MOL   O12214666   3.311   6.627   0.525 -0.6605  0.1596  0.1149
   73MOL   C12314667   3.205   6.706   0.481 -0.0355 -0.0195  0.1144
   73MOL   C12414668   3.167   6.811   0.592  0.3117 -0.1327  0.0151
   73MOL   C12514669   3.288   6.863   0.675 -0.2923  0.3750  0.2564
   73MOL   H12614670   3.119   6.643   0.459 -1.9971  2.2746  0.8503
   73MOL   H12714671   3.239   6.755   0.390 -2.1195  2.6722  0.7163
   73MOL   H12814672   3.111   6.886   0.536 -1.9917 -0.6377  1.5657
   73MOL   H12914673   3.101   6.772   0.669  1.0769  1.8341  1.6910
   73MOL   H13014674   3.357   6.904   0.601  0.4986 -1.8481 -0.2919
   73MOL   H13114675   3.339   6.776   0.716  0.3898  0.2047 -0.8974
   73MOL   O13214676   3.253   6.963   0.771 -0.1232 -0.1572  0.3329
   73MOL   C13314677   3.359   6.994   0.862  0.4933  0.4773  0.0312
   73MOL   C13414678   3.301   7.075   0.977  0.4727 -0.2051  0.1574
   73MOL   C13514679   3.413   7.141   1.061 -0.0225 -0.0332 -0.1620
   73MOL   H13614680   3.444   7.036   0.809 -0.0100  0.7361 -0.5893
   73MOL   H13714681   3.396   6.896   0.893 -0.9037 -0.5032 -1.2920
   73MOL   H13814682   3.251   7.159   0.930 -1.3410 -0.9404  0.7457
   73MOL   H13914683   3.233   7.022   1.043 -1.1865  1.3776 -0.2502
   73MOL   H14014684   3.476   7.210   1.004 -1.6207  1.9457  0.4185
   73MOL   H14114685   3.471   7.055   1.093 -1.7294 -0.2257  2.5818
   73MOL   O14214686   3.345   7.207   1.172  0.3605  0.2174  0.2093
   73MOL   C14314687   3.434   7.267   1.263  0.0710 -0.0908  0.0954
   73MOL   C14414688   3.516   7.166   1.350 -0.1192 -0.0469 -0.3659
   73MOL   C14514689   3.610   7.231   1.454 -0.3180  0.3038 -0.4062
   73MOL   H14614690   3.366   7.326   1.325 -1.5518  1.4418 -3.0297
   73MOL   H14714691   3.485   7.343   1.204 -0.9643  0.3605 -0.2330
   73MOL   H14814692   3.451   7.097   1.403  0.7912 -0.1259  0.6645
   73MOL   H14914693   3.574   7.099   1.285 -0.9179 -1.8576  0.7583
   73MOL   H15014694   3.546   7.301   1.508  0.9668 -0.0287  1.6129
   73MOL   H15114695   3.687   7.290   1.405  1.2855 -1.3350  0.1253
   73MOL   O15214696   3.680   7.136   1.536 -0.6853 -0.1000  0.0914
   73MOL   C15314697   3.759   7.191   1.640 -0.6152 -0.4635 -0.4630
   73MOL   C15414698   3.669   7.245   1.753  0.2346 -0.3982  0.4549
   73MOL   C15514699   3.563   7.146   1.790 -0.1215 -0.3848  0.5789
   73MOL   H15614700   3.819   7.277   1.611  1.6162 -1.8746 -0.1211
   73MOL   H15714701   3.833   7.114   1.663 -1.0822 -0.7941 -0.0425
   73MOL   H15814702   3.730   7.258   1.842 -0.5184 -1.6768  1.1803
   73MOL   H15914703   3.635   7.343   1.720  1.5726  0.1846  0.8009
   73MOL   H16014704   3.602   7.046   1.806 -0.4408 -0.3885  1.3395
   73MOL   H16114705   3.491   7.140   1.707 -0.5641 -0.0981  0.9397
   73MOL   O16214706   3.485   7.191   1.903  0.2921  0.1656  0.0989
   73MOL   C16314707   3.397   7.094   1.950  0.3553  1.3315 -0.2102
   73MOL   C16414708   3.321   7.148   2.072 -0.0586 -0.5534 -0.2070
   73MOL   C16514709   3.249   7.039   2.146 -0.2092 -0.4286  0.4397
   73MOL   H16614710   3.462   7.012   1.980 -1.9476 -0.9178 -1.1961
   73MOL   H16714711   3.332   7.048   1.876  0.9257  1.3868 -0.7516
   73MOL   H16814712   3.383   7.205   2.141  0.5733  0.9560 -1.9782
   73MOL   H16914713   3.246   7.222   2.046  2.0913  1.1038 -1.9623
   73MOL   H17014714   3.327   6.968   2.172  0.5195 -0.1507 -0.9152
   73MOL   H17114715   3.175   6.985   2.087  1.0148 -1.1241 -0.4775
   73MOL   O17214716   3.190   7.109   2.260 -0.0190  0.3157 -0.2257
   73MOL   C17314717   3.112   7.020   2.346 -0.4641 -0.4902 -0.0411
   73MOL   C17414718   3.209   6.922   2.412  0.2991  0.5426 -0.3704
   73MOL   C17514719   3.313   6.985   2.492  0.1969  0.2243 -0.1847
   73MOL   H17614720   3.036   6.978   2.281 -0.5181 -0.3107 -0.0958
   73MOL   H17714721   3.067   7.088   2.419 -3.0705  1.2603 -3.1133
   73MOL   H17814722   3.137   6.856   2.462 -1.0402  0.3812 -2.4211
   73MOL   H17914723   3.260   6.861   2.337  0.1568  1.6059 -1.3523
   73MOL   H18014724   3.277   7.053   2.570  0.4457  0.2056 -0.0509
   73MOL   H18114725   3.366   7.049   2.421  1.4954  0.2894  0.8232
   73MOL   O18214726   3.393   6.881   2.535 -0.1299  0.3106  0.3924
   73MOL   C18314727   3.518   6.918   2.589  0.2641  0.9716 -0.5936
   73MOL   C18414728   3.587   6.787   2.637 -0.4000  0.1003 -0.2294
   73MOL   C18514729   3.714   6.814   2.714 -0.4463 -0.0365  0.0201
   73MOL   H18614730   3.481   6.980   2.670  1.5736  0.3072  0.5250
   73MOL   H18714731   3.576   6.962   2.508  1.8852  2.4976  1.3442
   73MOL   H18814732   3.516   6.733   2.700 -0.9326  1.1453  0.0742
   73MOL   H18914733   3.612   6.731   2.547 -0.7005  0.3299 -0.4567
   73MOL   H19014734   3.699   6.901   2.779  2.9603  1.1250 -0.6852
   73MOL   H19114735   3.791   6.851   2.647 -1.1085 -1.2837 -1.4601
   73MOL   O19214736   3.758   6.704   2.797  0.2208 -0.4862 -0.2639
   73MOL   C19314737   3.867   6.748   2.879 -0.2600  0.5505  0.8654
   73MOL   C19414738   3.875   6.647   2.990 -0.6075  0.0996 -0.5887
   73MOL   C19514739   3.977   6.680   3.098  0.4767 -1.1248 -0.2467
   73MOL   H19614740   3.853   6.846   2.924  0.7670  1.1434 -0.0590
   73MOL   H19714741   3.956   6.763   2.816  0.5475  1.2938  2.1790
   73MOL   H19814742   3.777   6.637   3.037 -0.3058 -1.8948 -0.3524
   73MOL   H19914743   3.897   6.553   2.939  2.1448  1.9542 -2.9731
   73MOL   H20014744   3.956   6.614   3.182  1.5232  2.0854  2.6688
   73MOL   H20114745   3.972   6.781   3.139  1.7695 -1.4433  0.7185
   73MOL   H20214746   4.075   6.662   3.054 -0.1012 -1.6571 -1.3348
   74MOL     O114747   1.085   2.688   0.133  0.6318  0.0792 -0.1585
   74MOL     C214748   1.166   2.634   0.235 -0.0780  0.2709 -0.5391
   74MOL     C314749   1.199   2.493   0.197  0.5871  0.9746  0.2353
   74MOL     C414750   1.267   2.413   0.314  0.5130 -0.1042  0.1694
   74MOL     H514751   1.111   2.641   0.329  0.1553 -1.3339 -0.2671
   74MOL     H614752   1.250   2.703   0.227 -0.3165  0.4882 -1.2648
   74MOL     H714753   1.108   2.442   0.164  0.9334  1.5697 -1.6745
   74MOL     H814754   1.263   2.489   0.110 -0.4578  0.0383 -0.5093
   74MOL     H914755   1.288   2.314   0.273  0.9119  0.4897 -1.0790
   74MOL    H1014756   1.196   2.412   0.396 -1.9562  2.8233 -1.8557
   74MOL    H1114757   1.007   2.720   0.176  0.7859 -0.4600  0.5336
   74MOL    O1214758   1.396   2.475   0.346  0.2762  0.6492  0.0169
   74MOL    C1314759   1.474   2.407   0.446  0.5632 -0.1792 -0.6174
   74MOL    C1414760   1.605   2.469   0.475  0.0086  0.7866 -0.3661
   74MOL    C1514761   1.606   2.598   0.545  1.2202 -0.0640  0.2721
   74MOL    H1614762   1.481   2.299   0.427  0.0080 -0.1501 -1.0012
   74MOL    H1714763   1.423   2.395   0.542 -1.1812  0.1984 -1.4667
   74MOL    H1814764   1.659   2.395   0.535 -2.1223  1.8575  3.0547
   74MOL    H1914765   1.662   2.484   0.384  1.0280  0.1218  0.1409
   74MOL    H2014766   1.527   2.660   0.502  1.1140 -0.5806 -0.2762
   74MOL    H2114767   1.698   2.652   0.520  0.6988  0.1864 -1.1667
   74MOL    O2214768   1.594   2.576   0.685  0.6301  0.1296  0.1536
   74MOL    C2314769   1.598   2.696   0.761 -0.5027  0.3687 -0.0951
   74MOL    C2414770   1.619   2.655   0.908 -0.0136  0.2573 -0.0720
   74MOL    C2514771   1.626   2.780   1.001 -0.3591  0.3573 -0.2865
   74MOL    H2614772   1.505   2.752   0.754 -0.6362  0.1626  0.0535
   74MOL    H2714773   1.681   2.755   0.721  1.4104 -2.3086 -0.1836
   74MOL    H2814774   1.540   2.587   0.942  0.9012 -0.7030  0.1472
   74MOL    H2914775   1.714   2.602   0.907  0.0265  0.3213  0.1463
   74MOL    H3014776   1.535   2.840   0.994 -1.2345 -1.0308 -1.2861
   74MOL    H3114777   1.703   2.848   0.964 -0.0273 -1.1107 -2.3784
   74MOL    O3214778   1.659   2.742   1.132 -0.4371  0.4364 -0.1930
   74MOL    C3314779   1.553   2.721   1.225  1.0025  0.1367 -0.2063
   74MOL    C3414780   1.614   2.711   1.362 -0.2474 -0.0768  0.4670
   74MOL    C3514781   1.698   2.581   1.376  0.1203  0.9383  0.5136
   74MOL    H3614782   1.502   2.630   1.192  1.0093  0.2810 -0.6179
   74MOL    H3714783   1.487   2.808   1.220  0.8947 -0.0472 -2.4256
   74MOL    H3814784   1.671   2.803   1.378 -1.2008  0.9938 -1.9371
   74MOL    H3914785   1.542   2.702   1.442  0.9133 -2.7972  1.2446
   74MOL    H4014786   1.775   2.578   1.299  0.0915  0.0849  0.5141
   74MOL    H4114787   1.649   2.486   1.355  3.0120 -0.3966 -0.3827
   74MOL    O4214788   1.753   2.577   1.507 -0.9386 -0.5163  0.2478
   74MOL    C4314789   1.896   2.601   1.511 -0.2668  0.0678  0.7135
   74MOL    C4414790   1.964   2.586   1.640  0.6133 -0.1829  0.0162
   74MOL    C4514791   1.912   2.471   1.718  0.2121  0.8554 -0.0763
   74MOL    H4614792   1.912   2.701   1.469  1.4249 -0.3933  0.2398
   74MOL    H4714793   1.942   2.539   1.435 -0.7231  2.9346 -2.0358
   74MOL    H4814794   2.071   2.570   1.621  0.1222 -1.6232 -1.6589
   74MOL    H4914795   1.953   2.681   1.692  1.0938 -1.0963  1.8323
   74MOL    H5014796   1.924   2.380   1.659 -0.3673  1.0409 -0.4954
   74MOL    H5114797   1.806   2.473   1.744  0.6118  1.4918  1.5350
   74MOL    O5214798   1.970   2.460   1.843  0.3481  0.0837  0.3055
   74MOL    C5314799   1.926   2.345   1.913 -0.5882 -0.3449  0.8195
   74MOL    C5414800   1.994   2.338   2.048  1.2434 -0.3325  0.3463
   74MOL    C5514801   1.959   2.457   2.134 -0.4016 -0.4737  0.7144
   74MOL    H5614802   1.965   2.268   1.847 -2.2328  0.5796 -1.3177
   74MOL    H5714803   1.817   2.347   1.919 -0.6276 -0.5778  0.1556
   74MOL    H5814804   1.967   2.249   2.106  0.5429  1.7471  3.3375
   74MOL    H5914805   2.102   2.325   2.045  1.4078  0.8250  1.0172
   74MOL    H6014806   1.852   2.452   2.152 -0.2119  0.2954  2.1022
   74MOL    H6114807   1.980   2.552   2.085 -2.7769  0.1705  0.8983
   74MOL    O6214808   2.017   2.428   2.262  0.0793 -0.3111  0.1002
   74MOL    C6314809   2.025   2.547   2.334 -0.1423 -0.1953 -0.3252
   74MOL    C6414810   2.066   2.525   2.479  0.0078 -0.1237  0.1504
   74MOL    C6514811   1.964   2.474   2.582 -0.8759  0.9271  0.2969
   74MOL    H6614812   1.936   2.609   2.325 -1.2020 -1.4424  1.3010
   74MOL    H6714813   2.106   2.601   2.286 -1.6139  0.9328 -1.5685
   74MOL    H6814814   2.153   2.459   2.478 -0.3608 -0.6260  0.9951
   74MOL    H6914815   2.109   2.621   2.509  0.3649  0.2481 -1.4893
   74MOL    H7014816   1.916   2.379   2.557  0.1763  0.9800 -2.1097
   74MOL    H7114817   1.878   2.541   2.576 -1.2020  0.3890 -1.5491
   74MOL    O7214818   2.006   2.460   2.714 -0.5028  0.7226 -0.5930
   74MOL    C7314819   2.105   2.370   2.752 -0.3661 -0.0994 -0.1402
   74MOL    C7414820   2.134   2.381   2.905 -0.2677  0.6019 -0.5454
   74MOL    C7514821   2.152   2.518   2.963 -0.0065  0.0445 -0.3959
   74MOL    H7614822   2.192   2.387   2.689 -1.7900 -0.5448 -2.2509
   74MOL    H7714823   2.070   2.267   2.742 -0.1803 -0.2312  0.5207
   74MOL    H7814824   2.047   2.339   2.954  0.6303  1.2457  1.6451
   74MOL    H7914825   2.217   2.316   2.934 -0.8806 -0.4125 -1.0202
   74MOL    H8014826   2.055   2.567   2.956  0.0160  0.7083  3.0637
   74MOL    H8114827   2.224   2.575   2.903 -0.2477 -0.4649 -1.1736
   74MOL    O8214828   2.187   2.498   3.096  1.1638 -0.0111 -0.1719
   74MOL    C8314829   2.187   2.617   3.178 -0.1797 -0.5044 -0.3200
   74MOL    C8414830   2.330   2.669   3.186 -0.1906  0.4187  0.0044
   74MOL    C8514831   2.357   2.781   3.286 -0.3070  0.3424  0.8401
   74MOL    H8614832   2.154   2.589   3.278 -2.8398  0.5929 -0.8285
   74MOL    H8714833   2.122   2.700   3.148  1.0824  0.8535  0.6236
   74MOL    H8814834   2.393   2.583   3.209  0.2495  0.1135 -2.2387
   74MOL    H8914835   2.363   2.710   3.090  0.7852  0.5692  0.3983
   74MOL    H9014836   2.312   2.760   3.383  2.9192 -2.5293  1.8118
   74MOL    H9114837   2.316   2.873   3.244 -1.7267  0.9732  3.4381
   74MOL    O9214838   2.498   2.797   3.291 -0.4822  0.4622  0.2599
   74MOL    C9314839   2.536   2.911   3.358  0.2038  0.6234 -0.1655
   74MOL    C9414840   2.677   2.902   3.405 -0.6934  0.2121 -0.0861
   74MOL    C9514841   2.720   3.017   3.492 -0.6236 -0.1102  0.3125
   74MOL    H9614842   2.477   2.942   3.445 -0.5133  2.3475 -1.2394
   74MOL    H9714843   2.530   3.002   3.298  2.4327  0.7206 -0.2820
   74MOL    H9814844   2.677   2.818   3.475 -1.7279  0.2962  0.0316
   74MOL    H9914845   2.733   2.891   3.313  2.0106  1.1034  1.4224
   74MOL   H10014846   2.661   3.011   3.583  0.0190 -1.4333  0.6516
   74MOL   H10114847   2.709   3.111   3.437 -0.0308 -1.3255 -1.9569
   74MOL   O10214848   2.861   3.013   3.516  0.3778 -0.6176  0.0997
   74MOL   C10314849   2.902   3.054   3.653  0.2276  0.3498 -0.2534
   74MOL   C10414850   3.056   3.032   3.660 -0.1749 -0.2450  0.4844
   74MOL   C10514851   3.096   2.896   3.615 -0.2600 -0.4290 -0.3370
   74MOL   H10614852   2.847   3.008   3.736 -1.3301  2.3020 -0.1778
   74MOL   H10714853   2.876   3.156   3.682 -2.7652  0.1509 -1.9481
   74MOL   H10814854   3.091   3.111   3.593 -3.5773  0.5007 -0.5098
   74MOL   H10914855   3.090   3.054   3.761 -0.6831 -1.6847  0.9719
   74MOL   H11014856   3.081   2.895   3.507 -0.1204  0.1355 -0.3665
   74MOL   H11114857   3.043   2.815   3.664 -0.7764  1.1431  1.7919
   74MOL   O11214858   3.233   2.884   3.660 -0.3506  0.0524  0.0617
   74MOL   C11314859   3.280   2.755   3.646 -0.7506  1.1607 -0.4413
   74MOL   C11414860   3.432   2.775   3.651  0.1896  0.1475  0.1835
   74MOL   C11514861   3.490   2.818   3.511 -0.3479 -0.3496 -0.7488
   74MOL   H11614862   3.259   2.710   3.549  0.1064  0.0545 -0.1293
   74MOL   H11714863   3.234   2.690   3.721 -1.8627  1.0075 -1.2488
   74MOL   H11814864   3.462   2.849   3.726  1.8427  0.7981 -1.0927
   74MOL   H11914865   3.493   2.688   3.672  0.2673 -0.5334 -2.6669
   74MOL   H12014866   3.434   2.909   3.486 -1.4420 -1.0493 -0.8759
   74MOL   H12114867   3.477   2.746   3.430 -0.9290 -0.1149 -0.8666
   74MOL   O12214868   3.628   2.848   3.536  0.0710  0.3335  0.3909
   74MOL   C12314869   3.686   2.894   3.415  0.6250 -0.4734 -0.0394
   74MOL   C12414870   3.832   2.912   3.453 -0.3895 -0.0083 -0.3160
   74MOL   C12514871   3.916   2.935   3.334  0.7242 -0.0707 -0.2406
   74MOL   H12614872   3.649   2.995   3.395  2.0598  0.2652  0.9430
   74MOL   H12714873   3.668   2.829   3.329 -1.1328  0.4581 -0.3999
   74MOL   H12814874   3.853   2.990   3.526  0.4062 -0.9646  0.4815
   74MOL   H12914875   3.867   2.818   3.495 -0.2214  0.3117  0.2556
   74MOL   H13014876   3.864   3.010   3.274  0.9981  0.1290 -0.2300
   74MOL   H13114877   3.922   2.844   3.273 -2.0242  0.2962 -1.0839
   74MOL   O13214878   4.038   2.987   3.369 -0.5238 -0.0137 -0.5841
   74MOL   C13314879   4.134   3.008   3.273 -0.6429 -0.2646  0.2060
   74MOL   C13414880   4.271   3.058   3.338 -0.0009  0.2184 -0.9190
   74MOL   C13514881   4.384   3.090   3.242 -0.3204 -0.0247  0.3635
   74MOL   H13614882   4.102   3.100   3.225 -0.8861  0.2756  1.3741
   74MOL   H13714883   4.138   2.917   3.214 -1.5572  0.2275 -0.6231
   74MOL   H13814884   4.235   3.137   3.404 -0.1385 -2.2018  2.0195
   74MOL   H13914885   4.315   2.985   3.406  0.2431  0.3353 -0.9489
   74MOL   H14014886   4.475   3.122   3.292  0.1201 -0.8045  0.0633
   74MOL   H14114887   4.363   3.172   3.174  0.6956  0.0065  0.0822
   74MOL   O14214888   4.414   2.961   3.181 -0.4679 -0.2301 -0.1202
   74MOL   C14314889   4.535   2.969   3.115 -0.1248  0.1908 -1.1255
   74MOL   C14414890   4.560   2.828   3.059 -0.2364 -0.0735 -0.3392
   74MOL   C14514891   4.681   2.813   2.968  0.1172  0.0240 -0.1129
   74MOL   H14614892   4.618   3.007   3.174  0.1754 -1.5170 -0.4149
   74MOL   H14714893   4.524   3.048   3.040 -0.7073 -0.1194 -1.3675
   74MOL   H14814894   4.578   2.750   3.132 -0.4914  0.7409  0.6090
   74MOL   H14914895   4.468   2.799   3.008 -0.4813 -0.4117  0.2959
   74MOL   H15014896   4.769   2.832   3.030 -0.4630 -0.7485  0.9752
   74MOL   H15114897   4.676   2.874   2.879 -1.6932 -1.1507 -0.8347
   74MOL   O15214898   4.696   2.675   2.930  0.2804  0.4809 -0.2407
   74MOL   C15314899   4.816   2.643   2.853  0.0407 -0.2624  0.5100
   74MOL   C15414900   4.826   2.492   2.835  0.1024  0.1751 -0.0526
   74MOL   C15514901   4.717   2.441   2.736  0.1783  0.1509  0.1850
   74MOL   H15614902   4.900   2.684   2.910 -1.5981  3.1838  0.5502
   74MOL   H15714903   4.821   2.695   2.757 -1.3196 -2.7318 -0.9376
   74MOL   H15814904   4.928   2.479   2.799  0.1961  2.1095 -0.5730
   74MOL   H15914905   4.819   2.447   2.933 -0.1673 -0.0370 -0.1699
   74MOL   H16014906   4.708   2.498   2.643 -4.0636  1.8114  1.4905
   74MOL   H16114907   4.624   2.471   2.783  0.2255  0.5803  0.0164
   74MOL   O16214908   4.724   2.300   2.725 -0.3423 -0.1631  0.0073
   74MOL   C16314909   4.687   2.274   2.587  0.3346  0.1598 -0.5103
   74MOL   C16414910   4.713   2.121   2.575 -0.0090 -0.5089  0.5326
   74MOL   C16514911   4.709   2.087   2.429 -0.0572  0.2862  0.5539
   74MOL   H16614912   4.753   2.328   2.521  0.9163 -0.0439 -0.0978
   74MOL   H16714913   4.582   2.296   2.565 -0.1486 -1.2855  0.2414
   74MOL   H16814914   4.811   2.105   2.620  0.6859 -0.3391 -0.8765
   74MOL   H16914915   4.637   2.066   2.631  0.1922 -0.0086  1.3093
   74MOL   H17014916   4.752   2.164   2.365 -0.0911 -1.7396 -1.9726
   74MOL   H17114917   4.607   2.090   2.391  0.1479 -0.5494 -0.0718
   74MOL   O17214918   4.774   1.964   2.404  0.0747  0.2410  0.3744
   74MOL   C17314919   4.783   1.930   2.265 -0.2574 -0.3661 -0.1070
   74MOL   C17414920   4.919   1.974   2.208  0.4460  0.8715 -0.5068
   74MOL   C17514921   4.937   1.936   2.055  0.0562 -0.6235 -0.2066
   74MOL   H17614922   4.707   1.979   2.205 -1.5141  2.0724  3.3341
   74MOL   H17714923   4.776   1.821   2.262 -2.2480 -0.2858  1.0900
   74MOL   H17814924   4.925   2.083   2.207 -0.3975  0.9358  0.2349
   74MOL   H17914925   4.993   1.927   2.272 -0.9674 -0.6959  0.0381
   74MOL   H18014926   4.915   1.831   2.040  0.2126 -0.6742 -0.0831
   74MOL   H18114927   5.036   1.958   2.015 -0.6772 -0.1213 -1.7891
   74MOL   O18214928   4.855   2.022   1.983 -0.4778  0.4089  0.3271
   74MOL   C18314929   4.844   1.979   1.845  0.3209 -0.2877  0.0516
   74MOL   C18414930   4.728   2.064   1.777 -0.3970  0.3667 -0.2790
   74MOL   C18514931   4.683   2.006   1.644  0.2067  0.3666 -0.7593
   74MOL   H18614932   4.810   1.876   1.848  0.7762 -0.4076  2.1685
   74MOL   H18714933   4.940   1.971   1.794  0.2838  0.4432 -0.1374
   74MOL   H18814934   4.643   2.050   1.843 -0.5927 -1.8131 -0.9497
   74MOL   H18914935   4.733   2.173   1.778 -0.5233  0.4062  3.9121
   74MOL   H19014936   4.582   2.046   1.631  0.2281  0.5372 -0.4064
   74MOL   H19114937   4.674   1.899   1.628  0.8790  0.3473 -1.0480
   74MOL   O19214938   4.764   2.060   1.544 -0.4278 -0.5865  0.2303
   74MOL   C19314939   4.720   2.034   1.413  0.5601  0.0557 -0.3062
   74MOL   C19414940   4.818   2.082   1.309 -0.3204  0.0273  0.3514
   74MOL   C19514941   4.855   2.227   1.317  0.0090  0.1082 -0.4695
   74MOL   H19614942   4.623   2.081   1.399  1.0885  0.7243 -1.9378
   74MOL   H19714943   4.705   1.926   1.405  3.2232 -0.3328 -0.5597
   74MOL   H19814944   4.911   2.026   1.317  0.8878  2.1374  1.6487
   74MOL   H19914945   4.766   2.070   1.214  0.2398 -1.2158  0.1933
   74MOL   H20014946   4.768   2.270   1.269  0.8891  1.5536 -0.7886
   74MOL   H20114947   4.949   2.245   1.263 -0.5057  0.2672 -1.3305
   74MOL   H20214948   4.855   2.256   1.421 -1.7857  0.1479 -0.4792
   75MOL     O114949   5.778   3.795   5.293  0.2659 -0.4312 -0.3042
   75MOL     C214950   5.739   3.805   5.159  0.2445  0.6779  0.1829
   75MOL     C314951   5.693   3.948   5.136 -0.3636  0.3403  0.1885
   75MOL     C414952   5.659   3.973   4.989  1.2322 -0.4820 -0.3704
   75MOL     H514953   5.649   3.744   5.145  0.0488  1.4548 -2.1110
   75MOL     H614954   5.817   3.756   5.101 -2.3672 -3.3606 -0.1303
   75MOL     H714955   5.606   3.978   5.195  0.5409  1.5433  0.9326
   75MOL     H814956   5.778   4.009   5.165 -0.1456 -0.2727  0.8437
   75MOL     H914957   5.627   4.076   4.973  2.5089  0.2252  1.4515
   75MOL    H1014958   5.575   3.910   4.959  1.6135 -1.6821  1.0099
   75MOL    H1114959   5.865   3.833   5.295 -0.5063  1.4158 -0.4383
   75MOL    O1214960   5.776   3.955   4.918 -0.8936 -0.1209  0.7292
   75MOL    C1314961   5.754   3.973   4.774 -0.3246 -0.5475  1.3661
   75MOL    C1414962   5.739   3.830   4.711 -0.1766 -0.1966  0.1283
   75MOL    C1514963   5.703   3.839   4.562  0.2558 -0.1707 -0.0513
   75MOL    H1614964   5.849   4.012   4.740 -0.1720 -0.6627  1.6612
   75MOL    H1714965   5.671   4.038   4.743  1.0301  0.2512 -0.7031
   75MOL    H1814966   5.842   3.794   4.712 -0.2487 -0.3877  2.4288
   75MOL    H1914967   5.679   3.767   4.776 -2.8583  1.5048 -0.6018
   75MOL    H2014968   5.792   3.875   4.511  0.2922  0.5744  0.5438
   75MOL    H2114969   5.622   3.912   4.556  2.2829  2.2493  1.4644
   75MOL    O2214970   5.666   3.708   4.520 -0.1083  0.1554  0.0228
   75MOL    C2314971   5.619   3.698   4.389 -0.2191  1.0671 -0.1377
   75MOL    C2414972   5.607   3.548   4.357 -0.0464 -0.3120  0.8776
   75MOL    C2514973   5.506   3.529   4.239  0.2018 -0.5511 -0.4320
   75MOL    H2614974   5.696   3.739   4.323  0.6665 -0.7063 -0.2460
   75MOL    H2714975   5.529   3.755   4.371 -2.0761 -2.2948 -2.1018
   75MOL    H2814976   5.704   3.523   4.313 -1.0451 -1.2798 -0.7776
   75MOL    H2914977   5.590   3.480   4.440  1.9114  0.2901  1.8072
   75MOL    H3014978   5.507   3.615   4.172  0.9582 -0.2285 -0.0063
   75MOL    H3114979   5.402   3.530   4.273  0.3617  1.7727  0.0479
   75MOL    O3214980   5.522   3.414   4.158 -0.4237 -0.2225 -0.1303
   75MOL    C3314981   5.427   3.395   4.058 -0.6180  0.2166  0.1613
   75MOL    C3414982   5.459   3.264   3.979  0.2215 -0.2390  0.1228
   75MOL    C3514983   5.343   3.204   3.897  0.1100 -0.0436  0.1479
   75MOL    H3614984   5.435   3.481   3.992  0.7501 -0.4575 -0.5719
   75MOL    H3714985   5.333   3.388   4.113 -0.1521 -1.6393  0.7849
   75MOL    H3814986   5.538   3.293   3.910 -0.4600  1.2049 -0.0754
   75MOL    H3914987   5.503   3.183   4.038  1.8253  0.6273  0.1538
   75MOL    H4014988   5.289   3.275   3.834 -3.6836 -2.7003  0.2638
   75MOL    H4114989   5.262   3.170   3.961  0.8852 -3.3794 -0.5675
   75MOL    O4214990   5.379   3.106   3.796  0.3577  0.2619  0.5990
   75MOL    C4314991   5.260   3.041   3.740 -0.2389  0.1382 -0.2204
   75MOL    C4414992   5.301   2.941   3.635 -0.5062 -0.8396  0.2622
   75MOL    C4514993   5.178   2.874   3.566  0.9788 -0.8934 -0.4260
   75MOL    H4614994   5.184   3.113   3.708 -0.2740 -0.7002 -2.1030
   75MOL    H4714995   5.203   2.990   3.818 -0.5518 -0.4180 -0.8018
   75MOL    H4814996   5.365   2.992   3.563 -1.8772  0.5886  0.0249
   75MOL    H4914997   5.369   2.871   3.683  0.0984  0.1064  0.8020
   75MOL    H5014998   5.115   2.954   3.529  0.7191 -0.9393 -0.0805
   75MOL    H5114999   5.124   2.806   3.632  1.1761 -1.4679 -0.8471
   75MOL    O5215000   5.219   2.785   3.459 -0.9663  0.4524  0.2893
   75MOL    C5315001   5.107   2.715   3.395 -0.0419  0.4661 -0.5206
   75MOL    C5415002   5.159   2.655   3.267  0.6285  0.4744 -0.2039
   75MOL    C5515003   5.064   2.561   3.201  0.0936  0.1294 -0.0754
   75MOL    H5615004   5.035   2.794   3.373  0.8407  1.7517  1.0775
   75MOL    H5715005   5.050   2.652   3.464 -0.7004 -0.4011 -1.8213
   75MOL    H5815006   5.194   2.728   3.194 -0.5591  0.8552 -0.4064
   75MOL    H5915007   5.247   2.599   3.301  0.4706 -0.7132 -1.7020
   75MOL    H6015008   4.975   2.616   3.168 -1.0755 -1.1844  0.8366
   75MOL    H6115009   5.033   2.496   3.283  1.6181  0.2535  0.6122
   75MOL    O6215010   5.116   2.482   3.094 -0.4414 -0.1361 -0.7956
   75MOL    C6315011   5.077   2.345   3.100  0.1536  0.2179 -0.2831
   75MOL    C6415012   5.148   2.255   3.000 -0.0421 -0.5642  0.2733
   75MOL    C6515013   5.109   2.112   3.005  0.5008  0.3446  1.4882
   75MOL    H6615014   4.969   2.335   3.085  0.0270  2.0181 -0.6887
   75MOL    H6715015   5.095   2.313   3.203  0.1244 -1.5315 -0.7941
   75MOL    H6815016   5.157   2.298   2.900  1.4920 -2.1152 -0.2847
   75MOL    H6915017   5.252   2.251   3.034 -0.2625  0.9642  1.1813
   75MOL    H7015018   5.014   2.101   2.953  0.5453  3.2038  0.7212
   75MOL    H7115019   5.094   2.091   3.111 -1.2783  1.6551  1.5094
   75MOL    O7215020   5.214   2.030   2.956  0.1840  0.4308  0.0976
   75MOL    C7315021   5.190   1.894   2.979  0.1889 -0.3706  0.1329
   75MOL    C7415022   5.306   1.803   2.930 -1.2199 -0.4052 -0.4375
   75MOL    C7515023   5.282   1.647   2.936  0.3869 -0.2540 -0.4665
   75MOL    H7615024   5.108   1.859   2.917  0.5844  1.3050 -1.3714
   75MOL    H7715025   5.170   1.859   3.081  0.7001  0.3473  0.4820
   75MOL    H7815026   5.331   1.826   2.826  0.7717  0.5059  0.2111
   75MOL    H7915027   5.399   1.823   2.984 -0.5649 -2.8284 -0.5760
   75MOL    H8015028   5.186   1.622   2.891  1.3365  0.0367 -2.7426
   75MOL    H8115029   5.274   1.629   3.043  2.4774  2.3443  0.1719
   75MOL    O8215030   5.387   1.561   2.883 -0.5628 -0.4795  0.7301
   75MOL    C8315031   5.522   1.556   2.942  0.2598 -0.4236  0.0005
   75MOL    C8415032   5.626   1.548   2.831 -0.1277  0.3371  0.5762
   75MOL    C8515033   5.769   1.568   2.882  0.5538  0.7911 -0.3465
   75MOL    H8615034   5.520   1.461   2.995 -0.1746 -0.7965 -0.6794
   75MOL    H8715035   5.535   1.641   3.010  0.4271 -0.5469  0.1241
   75MOL    H8815036   5.597   1.458   2.776  2.3238  0.7619 -1.5039
   75MOL    H8915037   5.605   1.631   2.762  1.2224 -1.2387 -1.8138
   75MOL    H9015038   5.834   1.560   2.794  0.1072  0.0583 -0.6198
   75MOL    H9115039   5.788   1.486   2.951 -0.7191  0.0323 -0.8846
   75MOL    O9215040   5.781   1.699   2.934  0.0684 -0.1796  0.3323
   75MOL    C9315041   5.912   1.721   2.984 -0.2275  0.1177 -0.9372
   75MOL    C9415042   5.904   1.820   3.098  0.4694  0.3755  0.0928
   75MOL    C9515043   6.025   1.808   3.184 -0.5343 -0.2324  0.5097
   75MOL    H9615044   5.968   1.772   2.905  1.4700  3.6363  2.3626
   75MOL    H9715045   5.955   1.627   3.017 -1.1346 -0.0158 -0.1136
   75MOL    H9815046   5.895   1.922   3.059  1.2790 -0.2405 -1.7725
   75MOL    H9915047   5.818   1.797   3.161 -0.2569  1.6612 -0.3926
   75MOL   H10015048   6.117   1.844   3.138 -0.5716  0.4278  0.9272
   75MOL   H10115049   6.034   1.703   3.210 -1.5614 -0.6708 -0.8317
   75MOL   O10215050   5.996   1.894   3.300  0.0957 -0.2622  0.4314
   75MOL   C10315051   6.103   1.926   3.389 -0.1351  0.5965  0.9158
   75MOL   C10415052   6.105   1.811   3.493  0.2671 -0.2815 -0.0912
   75MOL   C10515053   5.973   1.795   3.588 -0.9256  0.1686  0.3325
   75MOL   H10615054   6.072   2.018   3.437 -1.4295  1.6946 -1.9166
   75MOL   H10715055   6.195   1.941   3.333  0.5778 -0.8799  1.6719
   75MOL   H10815056   6.125   1.717   3.443 -1.0979 -0.4729 -0.3073
   75MOL   H10915057   6.189   1.819   3.562 -0.3683 -0.6812  0.7474
   75MOL   H11015058   5.880   1.789   3.532 -0.6293  0.2292 -0.1788
   75MOL   H11115059   5.962   1.880   3.655 -1.5134 -1.3639  2.2203
   75MOL   O11215060   5.991   1.674   3.661 -0.3673  0.8694 -0.1769
   75MOL   C11315061   5.885   1.649   3.747  0.0894 -0.1953  0.2867
   75MOL   C11415062   5.891   1.498   3.784 -0.2461  0.0344 -0.1697
   75MOL   C11515063   5.774   1.442   3.865 -0.3298 -0.4526 -0.2262
   75MOL   H11615064   5.787   1.681   3.709 -0.6311 -3.2152 -0.5540
   75MOL   H11715065   5.900   1.714   3.833 -0.0422 -0.4304  0.4860
   75MOL   H11815066   5.913   1.448   3.690  0.4896  0.6923 -0.3503
   75MOL   H11915067   5.982   1.482   3.841 -2.2708 -2.8218  2.4644
   75MOL   H12015068   5.762   1.495   3.959 -0.3923  0.8360 -0.9478
   75MOL   H12115069   5.774   1.337   3.896 -0.1813 -0.2177  0.5653
   75MOL   O12215070   5.647   1.446   3.793 -0.1254 -0.2602 -0.9454
   75MOL   C12315071   5.537   1.367   3.853  0.1266 -0.3822  0.4328
   75MOL   C12415072   5.421   1.385   3.755 -0.6641 -0.0207 -0.5682
   75MOL   C12515073   5.362   1.526   3.742  0.4213  0.0758  0.1891
   75MOL   H12615074   5.513   1.419   3.946  3.2778 -0.4013  1.3147
   75MOL   H12715075   5.560   1.262   3.873 -1.0041 -0.4258  1.6001
   75MOL   H12815076   5.457   1.362   3.655  0.3147  2.5154 -0.8336
   75MOL   H12915077   5.349   1.309   3.786  0.5466  0.0944  2.7717
   75MOL   H13015078   5.435   1.594   3.698  0.0380 -0.7070 -1.6838
   75MOL   H13115079   5.338   1.563   3.842  0.1151 -2.1099  0.9439
   75MOL   O13215080   5.246   1.521   3.661 -0.9494 -0.4348  0.2557
   75MOL   C13315081   5.194   1.654   3.640  0.2620  0.2467  0.1574
   75MOL   C13415082   5.044   1.637   3.603  0.2512 -0.1443 -0.0192
   75MOL   C13515083   4.982   1.779   3.611 -0.9823  0.5902 -0.3231
   75MOL   H13615084   5.251   1.712   3.568 -0.6228  0.5031 -0.3410
   75MOL   H13715085   5.191   1.706   3.736 -0.0389  0.8997 -0.2031
   75MOL   H13815086   5.043   1.591   3.504  0.2852 -2.6341  1.1063
   75MOL   H13915087   5.001   1.578   3.683 -1.5042  1.9259  0.6151
   75MOL   H14015088   5.015   1.832   3.700 -2.2071  0.9792 -0.0980
   75MOL   H14115089   4.875   1.786   3.592 -0.6152  2.5746 -1.7430
   75MOL   O14215090   5.042   1.843   3.498  0.3378  0.0944 -0.3152
   75MOL   C14315091   4.988   1.967   3.459  0.4336 -0.4713  0.4864
   75MOL   C14415092   5.082   2.032   3.361  0.6029 -0.8217 -0.2467
   75MOL   C14515093   5.177   2.126   3.439  0.6390  0.2152  0.2544
   75MOL   H14615094   4.975   2.024   3.551  0.3173  0.4959 -0.1320
   75MOL   H14715095   4.893   1.940   3.413 -0.1548  2.6260 -0.2040
   75MOL   H14815096   5.139   1.963   3.299 -1.4705  0.6008 -3.8678
   75MOL   H14915097   5.025   2.091   3.290  1.1277 -0.3530 -0.2726
   75MOL   H15015098   5.243   2.068   3.504 -1.1202 -1.8106  0.2650
   75MOL   H15115099   5.122   2.194   3.504  0.4914  2.1729 -1.8571
   75MOL   O15215100   5.260   2.204   3.350  0.0838  0.1273 -0.4937
   75MOL   C15315101   5.351   2.296   3.420  0.6884  0.1260 -0.0043
   75MOL   C15415102   5.424   2.359   3.301 -0.3222  0.4533  0.0648
   75MOL   C15515103   5.548   2.437   3.342  0.4442  0.0152 -1.5242
   75MOL   H15615104   5.420   2.245   3.487  1.0412 -1.8624 -1.8068
   75MOL   H15715105   5.298   2.375   3.473 -0.5351 -0.2061 -0.7011
   75MOL   H15815106   5.465   2.277   3.243 -1.0060 -0.9753  1.5442
   75MOL   H15915107   5.349   2.418   3.247 -0.3617 -0.3474 -0.7531
   75MOL   H16015108   5.612   2.370   3.399 -0.0973  0.5554 -0.2616
   75MOL   H16115109   5.527   2.531   3.393  0.1885  0.7428 -2.9232
   75MOL   O16215110   5.615   2.469   3.223  0.3842  0.4441 -0.0012
   75MOL   C16315111   5.749   2.516   3.232  0.4561 -1.0167  0.7096
   75MOL   C16415112   5.740   2.671   3.247 -0.3528  0.0842  0.3639
   75MOL   C16515113   5.868   2.740   3.203 -0.4737  0.2318  0.2712
   75MOL   H16615114   5.801   2.505   3.137  0.1659  1.4474  0.2210
   75MOL   H16715115   5.814   2.469   3.305  0.2893  0.0684  1.5768
   75MOL   H16815116   5.656   2.715   3.193  0.9182  0.7114 -1.1086
   75MOL   H16915117   5.727   2.702   3.351  3.0621 -0.4494  0.9889
   75MOL   H17015118   5.900   2.697   3.108  0.5825 -0.4158  0.9052
   75MOL   H17115119   5.957   2.724   3.264 -1.1320 -0.1269  1.1370
   75MOL   O17215120   5.847   2.880   3.199 -0.4147 -0.2385  0.0393
   75MOL   C17315121   5.953   2.949   3.120  0.7057 -0.1567 -0.1399
   75MOL   C17415122   5.912   3.101   3.123  0.0686  0.5924 -0.5701
   75MOL   C17515123   5.987   3.191   3.022 -0.7420 -0.1373  0.2015
   75MOL   H17615124   5.948   2.920   3.014 -2.0114  0.7479 -0.3036
   75MOL   H17715125   6.055   2.940   3.157 -0.0871  1.5436  2.5773
   75MOL   H17815126   5.803   3.099   3.113 -0.1957 -0.8575  2.3048
   75MOL   H17915127   5.914   3.147   3.221  2.7393 -0.1204 -0.2695
   75MOL   H18015128   5.982   3.152   2.921  0.6103 -0.9703  0.4442
   75MOL   H18115129   6.095   3.194   3.040 -0.6360  0.0795 -0.4508
   75MOL   O18215130   5.931   3.323   3.026 -0.5663  0.2467 -0.4067
   75MOL   C18315131   5.979   3.416   2.932 -0.2483 -0.8620 -0.6665
   75MOL   C18415132   6.126   3.463   2.947  0.5724  0.1267  0.4044
   75MOL   C18515133   6.152   3.569   2.842 -0.8763 -0.4274 -0.1555
   75MOL   H18615134   5.914   3.504   2.941 -1.3735 -1.8262  1.0244
   75MOL   H18715135   5.965   3.378   2.831  1.4152 -0.3480 -1.0974
   75MOL   H18815136   6.138   3.503   3.048 -0.3574 -0.3211  0.7014
   75MOL   H18915137   6.202   3.386   2.934  1.5901  1.2625 -0.5496
   75MOL   H19015138   6.085   3.649   2.875 -0.6051 -0.7371  1.1452
   75MOL   H19115139   6.133   3.530   2.742  0.3916 -0.9814 -0.1911
   75MOL   O19215140   6.290   3.620   2.856  0.1977  0.8686 -1.0064
   75MOL   C19315141   6.305   3.730   2.771 -0.9187  0.0674  0.2614
   75MOL   C19415142   6.454   3.762   2.769 -0.3541 -0.5072 -0.5920
   75MOL   C19515143   6.496   3.897   2.696  0.8507  0.0368  0.2307
   75MOL   H19615144   6.244   3.807   2.817 -0.5825  0.0690  0.7128
   75MOL   H19715145   6.256   3.726   2.674 -0.3617  2.0328 -0.1197
   75MOL   H19815146   6.494   3.768   2.870  0.2143 -0.9892 -0.7871
   75MOL   H19915147   6.498   3.676   2.717 -0.8376 -1.9320  1.2963
   75MOL   H20015148   6.457   3.901   2.594  1.7305 -0.2211 -0.1288
   75MOL   H20115149   6.604   3.910   2.690  0.9832 -1.0106  0.2560
   75MOL   H20215150   6.446   3.979   2.747  2.0103  1.0095 -0.1742
   76MOL     O115151   6.471   0.370   4.943  0.0673 -0.6863 -0.5893
   76MOL     C215152   6.499   0.425   5.071  0.3629  0.4279  0.3413
   76MOL     C315153   6.363   0.446   5.136  0.2812  0.5632 -0.0132
   76MOL     C415154   6.383   0.523   5.268  0.5190 -0.6441  0.0449
   76MOL     H515155   6.555   0.517   5.055 -0.5482  0.7222 -1.1996
   76MOL     H615156   6.563   0.353   5.123 -3.2103 -3.2716 -0.1515
   76MOL     H715157   6.296   0.498   5.069 -0.4678  0.2601  0.4983
   76MOL     H815158   6.320   0.348   5.157 -0.2475  0.9694  0.8002
   76MOL     H915159   6.424   0.621   5.244 -0.3956 -0.2867 -0.0582
   76MOL    H1015160   6.464   0.471   5.321  1.7545  0.8189 -0.3560
   76MOL    H1115161   6.508   0.429   4.879 -3.4871 -1.4288 -3.4885
   76MOL    O1215162   6.270   0.528   5.347  0.3343 -0.7003  0.1250
   76MOL    C1315163   6.183   0.636   5.310  0.4988  0.7317 -1.2792
   76MOL    C1415164   6.059   0.636   5.397 -0.2522  1.2724 -0.5621
   76MOL    C1515165   5.959   0.740   5.335 -0.0241  0.4595 -0.4385
   76MOL    H1615166   6.154   0.626   5.206  1.3515 -0.6559 -1.4135
   76MOL    H1715167   6.236   0.729   5.329  2.4234 -0.2809 -1.5550
   76MOL    H1815168   6.030   0.531   5.402 -1.2881  1.4970 -1.6556
   76MOL    H1915169   6.090   0.660   5.499  0.4834  0.8887 -0.6888
   76MOL    H2015170   5.902   0.692   5.255 -0.6540 -0.3269  0.4724
   76MOL    H2115171   6.019   0.805   5.272  0.6288  0.1121 -0.1741
   76MOL    O2215172   5.885   0.813   5.430 -0.1937 -0.0115  0.0338
   76MOL    C2315173   5.780   0.881   5.370  0.8010  0.3911 -0.5877
   76MOL    C2415174   5.711   0.955   5.485  0.4959  0.9533 -0.5480
   76MOL    C2515175   5.571   1.009   5.449  0.1869  0.6588  0.0796
   76MOL    H2615176   5.713   0.811   5.319 -0.3640 -1.1145  2.8485
   76MOL    H2715177   5.811   0.961   5.303 -1.8014  1.9189 -0.0124
   76MOL    H2815178   5.709   0.889   5.572  3.7000  0.1209 -1.0718
   76MOL    H2915179   5.777   1.036   5.516  4.2166 -2.4795  0.7875
   76MOL    H3015180   5.538   1.023   5.346 -0.4021  0.3001  0.2123
   76MOL    H3115181   5.562   1.110   5.490  0.6650  0.2917  1.0982
   76MOL    O3215182   5.481   0.917   5.508 -0.4915  0.4336 -0.0372
   76MOL    C3315183   5.336   0.925   5.487 -0.7570 -0.1810  0.0707
   76MOL    C3415184   5.262   0.814   5.551 -0.0795 -0.6705 -0.0790
   76MOL    C3515185   5.111   0.824   5.546  0.4143  0.4253 -0.0876
   76MOL    H3615186   5.314   0.917   5.380 -0.5302 -0.4764  0.0458
   76MOL    H3715187   5.294   1.021   5.516  1.1115  0.4029  0.9717
   76MOL    H3815188   5.286   0.717   5.508 -1.4197 -0.8924 -0.3637
   76MOL    H3915189   5.290   0.828   5.655 -0.8430  0.6206 -0.0323
   76MOL    H4015190   5.076   0.846   5.445  1.9497 -0.9158 -0.9261
   76MOL    H4115191   5.079   0.903   5.614  1.8534 -0.7523  2.0189
   76MOL    O4215192   5.057   0.695   5.590 -0.7924 -0.4745 -0.5381
   76MOL    C4315193   4.921   0.665   5.557  0.3275  0.2446 -0.7906
   76MOL    C4415194   4.902   0.621   5.410  0.1223 -0.3668  0.1674
   76MOL    C4515195   4.927   0.478   5.384 -0.1258 -0.1503 -0.0743
   76MOL    H4615196   4.861   0.752   5.582 -0.7799 -0.2177 -1.7640
   76MOL    H4715197   4.887   0.585   5.622  1.1102  0.7705  0.2750
   76MOL    H4815198   4.800   0.649   5.385 -0.2223 -1.4681  0.2951
   76MOL    H4915199   4.954   0.679   5.334 -3.5592  0.1319 -2.0918
   76MOL    H5015200   4.886   0.416   5.464 -0.0914  0.3461  0.3278
   76MOL    H5115201   5.035   0.466   5.382 -0.2484 -1.2758 -0.3061
   76MOL    O5215202   4.868   0.445   5.259 -0.0924  0.5231  0.5424
   76MOL    C5315203   4.891   0.312   5.221  0.5061 -0.3653 -0.0473
   76MOL    C5415204   4.852   0.275   5.076 -0.3245  0.1786 -0.5879
   76MOL    C5515205   4.864   0.130   5.053 -0.2373  0.5080  0.1363
   76MOL    H5615206   4.847   0.242   5.292 -2.0912 -0.1422 -1.3735
   76MOL    H5715207   4.999   0.295   5.222  1.3982  4.4949 -0.3496
   76MOL    H5815208   4.748   0.306   5.060 -0.0963  1.4060  0.2370
   76MOL    H5915209   4.918   0.315   4.998  2.5957  0.6723  2.0391
   76MOL    H6015210   4.771   0.086   5.088  0.7356 -1.8587 -0.1648
   76MOL    H6115211   4.955   0.088   5.094  0.0155 -0.9785 -1.8816
   76MOL    O6215212   4.873   0.105   4.914 -0.0930  0.2736 -0.4594
   76MOL    C6315213   4.906   7.758   4.888  0.2272 -0.7682 -0.3993
   76MOL    C6415214   4.861   7.720   4.750 -0.2969 -0.0678  0.2960
   76MOL    C6515215   4.951   7.608   4.683 -0.2960 -0.1728 -0.2012
   76MOL    H6615216   4.881   7.691   4.969 -2.5594 -2.3783 -2.4990
   76MOL    H6715217   5.014   7.739   4.889  0.4147  0.2654 -0.2906
   76MOL    H6815218   4.756   7.694   4.756  0.3191 -2.7316  0.1711
   76MOL    H6915219   4.857   0.019   4.684 -0.1722 -1.7841 -2.0155
   76MOL    H7015220   4.964   7.537   4.764 -3.3545  0.4609  0.9137
   76MOL    H7115221   5.045   7.657   4.656 -0.1070 -1.3897 -1.8147
   76MOL    O7215222   4.883   7.551   4.576  0.0351 -0.4677 -0.3309
   76MOL    C7315223   4.969   7.476   4.491  0.4427 -0.1593  0.3959
   76MOL    C7415224   5.014   7.569   4.373  0.0531 -0.1137  0.2280
   76MOL    C7515225   5.080   7.491   4.255 -0.0125  0.3213 -1.1291
   76MOL    H7615226   4.907   7.394   4.454  1.4901 -2.0838  2.7823
   76MOL    H7715227   5.051   7.434   4.550 -1.3523  1.2405  4.0327
   76MOL    H7815228   4.932   7.627   4.332  0.1897 -0.1251 -0.0644
   76MOL    H7915229   5.089   7.633   4.418  0.6027 -0.5043 -0.1181
   76MOL    H8015230   5.011   7.427   4.200 -1.5736 -0.0253  1.1810
   76MOL    H8115231   5.165   7.437   4.297  0.2768  2.4310  1.0945
   76MOL    O8215232   5.138   7.583   4.169  0.0832  0.1709  0.4652
   76MOL    C8315233   5.062   7.637   4.064 -1.4734  1.0824 -1.0976
   76MOL    C8415234   5.150   7.748   4.004  0.2871 -0.7809 -0.2117
   76MOL    C8515235   5.081   0.050   3.897 -0.3334 -0.3448  0.1027
   76MOL    H8615236   4.968   7.685   4.091 -0.4246  1.5300  1.9082
   76MOL    H8715237   5.038   7.553   3.997 -0.0100 -0.5179  0.3349
   76MOL    H8815238   5.180   0.025   4.086  1.0515 -0.0821 -1.0259
   76MOL    H8915239   5.248   7.709   3.976  0.1230 -0.5543 -1.1119
   76MOL    H9015240   5.148   0.103   3.830  0.2906  0.3788  1.2874
   76MOL    H9115241   5.006   0.105   3.953  0.5936  1.1447 -0.0990
   76MOL    O9215242   5.011   7.746   3.810  0.4441  0.6180 -0.1975
   76MOL    C9315243   4.951   0.019   3.699 -0.4065  0.7395 -0.2298
   76MOL    C9415244   4.840   7.718   3.650 -0.3327 -0.2544  0.8250
   76MOL    C9515245   4.746   7.784   3.553  0.6469  0.1185 -0.2599
   76MOL    H9615246   5.032   0.046   3.632  0.8105 -0.7309  0.6092
   76MOL    H9715247   4.910   0.114   3.732 -0.6477  0.4368  0.3503
   76MOL    H9815248   4.877   7.627   3.604 -1.2511  0.8172 -2.1581
   76MOL    H9915249   4.779   7.692   3.736  2.8741 -0.4857  3.0916
   76MOL   H10015250   4.713   0.093   3.590  0.9914  0.3239 -0.4904
   76MOL   H10115251   4.662   7.718   3.529  0.0530  1.0516 -0.7528
   76MOL   O10215252   4.820   0.020   3.442 -0.0123  0.0767 -0.1625
   76MOL   C10315253   4.750   0.075   3.331  0.2553 -0.0806 -0.2168
   76MOL   C10415254   4.841   0.152   3.235 -0.3186  0.2929 -0.2942
   76MOL   C10515255   4.787   0.276   3.172  0.0201 -0.0365 -0.0371
   76MOL   H10615256   4.661   0.135   3.350 -0.6367 -1.4323 -0.0729
   76MOL   H10715257   4.700   7.780   3.282 -1.3440  1.5756 -1.4835
   76MOL   H10815258   4.935   0.185   3.278 -1.4288  1.8985  0.9847
   76MOL   H10915259   4.870   0.077   3.162 -2.0846 -0.7305  0.0091
   76MOL   H11015260   4.752   0.343   3.251 -1.5520 -0.1914 -0.5789
   76MOL   H11115261   4.693   0.257   3.120 -0.6048 -0.5355  1.2506
   76MOL   O11215262   4.886   0.330   3.082  0.5185  0.4241 -0.2067
   76MOL   C11315263   4.824   0.424   2.993  0.1878 -0.4917  0.3462
   76MOL   C11415264   4.922   0.518   2.908  0.2417 -0.0377 -0.8828
   76MOL   C11515265   4.850   0.579   2.780 -0.0206 -0.1150  0.0415
   76MOL   H11615266   4.764   0.494   3.051  0.3110 -0.1277  0.0386
   76MOL   H11715267   4.761   0.371   2.921 -1.4005  0.5770  0.9148
   76MOL   H11815268   4.976   0.588   2.972 -2.6102  0.6076  0.8896
   76MOL   H11915269   5.006   0.458   2.874 -0.0468 -2.4741  2.4699
   76MOL   H12015270   4.899   0.660   2.726 -1.1913  0.0709 -0.7415
   76MOL   H12115271   4.757   0.630   2.807 -0.0237  1.2062 -2.3769
   76MOL   O12215272   4.809   0.477   2.678 -0.2480  0.3682  0.2973
   76MOL   C12315273   4.669   0.487   2.629  0.2153 -0.8722 -0.1563
   76MOL   C12415274   4.658   0.578   2.510  0.3827  0.2291 -0.5417
   76MOL   C12515275   4.676   0.730   2.530 -0.3261 -0.0246  0.6611
   76MOL   H12615276   4.598   0.517   2.705  0.7479  1.4866 -0.5509
   76MOL   H12715277   4.640   0.385   2.605  1.4034 -1.4632  0.8430
   76MOL   H12815278   4.731   0.541   2.438 -2.2069 -1.4667 -2.3877
   76MOL   H12915279   4.567   0.552   2.456  2.8478 -2.9986 -3.3435
   76MOL   H13015280   4.709   0.765   2.433 -0.0036 -0.0846  0.7470
   76MOL   H13115281   4.751   0.753   2.606  0.4364 -1.0256  0.2253
   76MOL   O13215282   4.552   0.798   2.565 -0.3554 -0.0052  0.4917
   76MOL   C13315283   4.571   0.934   2.593  0.4451  0.5988 -0.4832
   76MOL   C13415284   4.445   0.993   2.657  0.4198  0.5168  0.2861
   76MOL   C13515285   4.426   1.143   2.645 -0.4435  0.2072  0.2918
   76MOL   H13615286   4.587   0.993   2.503 -0.7533  0.5144 -0.7562
   76MOL   H13715287   4.648   0.952   2.668  0.0895  0.0181  0.0264
   76MOL   H13815288   4.357   0.951   2.609 -1.2453  2.7272  1.3148
   76MOL   H13915289   4.437   0.966   2.762 -1.1994 -0.2189 -0.0168
   76MOL   H14015290   4.433   1.170   2.539 -0.5931  0.7024  0.4065
   76MOL   H14115291   4.513   1.194   2.687  0.8105  0.5555 -2.5957
   76MOL   O14215292   4.298   1.181   2.700  0.4038 -0.1468 -0.2419
   76MOL   C14315293   4.284   1.324   2.711 -0.6377  0.1464 -0.1880
   76MOL   C14415294   4.143   1.349   2.761  0.4464  0.1776 -0.4312
   76MOL   C14515295   4.104   1.498   2.765  0.7584 -0.0537  0.6557
   76MOL   H14615296   4.317   1.374   2.619 -1.9012 -0.4762 -0.9967
   76MOL   H14715297   4.349   1.359   2.791  1.1223 -0.1582 -1.4386
   76MOL   H14815298   4.078   1.295   2.693 -1.7807  2.4042 -0.1302
   76MOL   H14915299   4.143   1.300   2.859  1.1299 -1.6486 -1.3153
   76MOL   H15015300   4.147   1.537   2.673 -2.0053  1.3651 -0.0627
   76MOL   H15115301   4.157   1.549   2.845 -2.3897  0.0197  2.7745
   76MOL   O15215302   3.965   1.515   2.783  0.6418 -0.8680  0.0652
   76MOL   C15315303   3.924   1.647   2.758 -0.0957  0.2249 -0.2619
   76MOL   C15415304   3.772   1.667   2.781  0.1243 -0.5613 -0.4597
   76MOL   C15515305   3.733   1.810   2.801 -0.0187 -0.2776 -0.0477
   76MOL   H15615306   3.964   1.675   2.661  0.4507 -0.8517 -0.3488
   76MOL   H15715307   3.978   1.715   2.823 -0.5657 -0.8066  1.2315
   76MOL   H15815308   3.710   1.607   2.713 -0.3962 -0.4399 -0.1001
   76MOL   H15915309   3.753   1.615   2.875 -2.3968  1.5908  0.2991
   76MOL   H16015310   3.784   1.852   2.888 -0.5598  1.0195 -0.3455
   76MOL   H16115311   3.628   1.821   2.827 -0.2522 -0.4219 -0.9344
   76MOL   O16215312   3.781   1.885   2.687  0.0511 -0.4510 -0.0008
   76MOL   C16315313   3.745   2.020   2.682 -0.2973  0.6255  0.6743
   76MOL   C16415314   3.764   2.067   2.543  0.6172  0.4284 -0.1766
   76MOL   C16515315   3.766   2.221   2.539  0.1991 -0.0045 -0.3977
   76MOL   H16615316   3.790   2.086   2.755  0.5460  0.5363  0.2404
   76MOL   H16715317   3.637   2.023   2.700 -1.1267 -0.6827 -3.5236
   76MOL   H16815318   3.858   2.020   2.514 -0.3067 -1.4771 -0.1579
   76MOL   H16915319   3.688   2.036   2.471 -0.6002  0.6825  0.9722
   76MOL   H17015320   3.825   2.258   2.623 -0.2916  2.2464 -0.9966
   76MOL   H17115321   3.664   2.260   2.548  0.6159  2.0810 -3.8271
   76MOL   O17215322   3.818   2.259   2.414  0.2184  0.4566  0.7497
   76MOL   C17315323   3.774   2.395   2.390 -0.0484  0.2876  0.4891
   76MOL   C17415324   3.848   2.494   2.484 -0.6233 -0.6638  0.0637
   76MOL   C17515325   3.859   2.635   2.428 -0.2770 -0.2582 -0.0188
   76MOL   H17615326   3.668   2.414   2.405  0.0074 -0.3654  1.7893
   76MOL   H17715327   3.786   2.413   2.283 -1.0305 -1.2120  0.1008
   76MOL   H17815328   3.795   2.511   2.577  0.7984 -0.2700  0.8154
   76MOL   H17915329   3.939   2.446   2.520 -0.8721 -0.3298  1.1623
   76MOL   H18015330   3.766   2.671   2.384 -2.9169 -1.7848  3.9788
   76MOL   H18115331   3.929   2.634   2.344  0.1668  1.7282  0.3043
   76MOL   O18215332   3.919   2.728   2.517  0.7577 -0.0051  0.7493
   76MOL   C18315333   3.893   2.864   2.482 -0.8535 -0.1605  1.0643
   76MOL   C18415334   3.986   2.961   2.558  0.0319 -0.3485 -0.0474
   76MOL   C18515335   4.129   2.944   2.510  0.3674  0.0715  0.6201
   76MOL   H18615336   3.789   2.888   2.505 -0.6030  2.0321  0.0352
   76MOL   H18715337   3.907   2.880   2.375 -2.3327 -2.3641  0.5206
   76MOL   H18815338   3.940   3.060   2.556 -1.3717 -0.9820 -0.1663
   76MOL   H18915339   3.995   2.930   2.662  0.5920 -0.4310 -0.1233
   76MOL   H19015340   4.136   2.997   2.416  2.8247 -1.4764 -0.1190
   76MOL   H19115341   4.156   2.839   2.502 -1.0583 -0.2919  0.5566
   76MOL   O19215342   4.219   3.009   2.593  0.5996 -0.5164 -0.0711
   76MOL   C19315343   4.337   3.050   2.527  0.7022 -0.0005 -0.3693
   76MOL   C19415344   4.411   3.147   2.611  0.3234 -0.2318  0.1433
   76MOL   C19515345   4.478   3.079   2.739 -0.0949  0.8787 -0.2540
   76MOL   H19615346   4.315   3.102   2.433 -0.0735 -0.2678 -0.3435
   76MOL   H19715347   4.389   2.958   2.503 -3.1409 -1.9404 -1.7812
   76MOL   H19815348   4.494   3.182   2.551  0.1236  2.6906  1.4932
   76MOL   H19915349   4.345   3.234   2.619  2.3121  1.3050  0.0831
   76MOL   H20015350   4.396   3.046   2.802  0.2126  1.8253  0.6406
   76MOL   H20115351   4.553   3.145   2.783  1.1430  0.2806 -1.4313
   76MOL   H20215352   4.534   2.988   2.716 -0.9663  0.4895 -0.8463
   77MOL     O115353   0.892   6.784   1.863  0.1051  0.1366 -0.1030
   77MOL     C215354   1.013   6.828   1.798  0.1210  0.1232 -0.5917
   77MOL     C315355   1.133   6.819   1.887 -0.6751  0.1623  0.5540
   77MOL     C415356   1.249   6.905   1.848  0.6993 -0.7440 -0.4521
   77MOL     H515357   1.005   6.928   1.756  1.7051  0.3164 -0.4708
   77MOL     H615358   1.024   6.760   1.713  1.9746  0.7365 -0.8545
   77MOL     H715359   1.102   6.850   1.987  0.9201  3.2301  0.1725
   77MOL     H815360   1.171   6.719   1.909 -0.5822  0.0800  0.0327
   77MOL     H915361   1.213   7.000   1.810  0.3489 -0.9177 -0.5562
   77MOL    H1015362   1.309   6.861   1.768 -1.0851 -1.5755 -1.3686
   77MOL    H1115363   0.831   6.856   1.868 -1.3984 -1.0756 -0.7870
   77MOL    O1215364   1.332   6.921   1.964 -0.2773 -0.2245  0.3735
   77MOL    C1315365   1.421   7.030   1.961  0.6458  0.2317  0.3117
   77MOL    C1415366   1.507   7.033   2.087 -0.1798  0.4352 -0.1903
   77MOL    C1515367   1.596   7.150   2.094 -0.4484  0.3123  0.3057
   77MOL    H1615368   1.349   7.111   1.954 -1.0114 -1.2351  0.0074
   77MOL    H1715369   1.480   7.032   1.870 -0.5568  1.9793 -0.4582
   77MOL    H1815370   1.436   7.037   2.170 -0.2423 -2.0899 -0.0873
   77MOL    H1915371   1.558   6.938   2.099  0.4085  0.9409  1.4338
   77MOL    H2015372   1.544   7.242   2.068 -0.4887  0.3501  0.5201
   77MOL    H2115373   1.668   7.125   2.016  0.4275  1.0441  0.8667
   77MOL    O2215374   1.673   7.143   2.203 -0.1350  0.2187 -0.3371
   77MOL    C2315375   1.756   7.254   2.235 -0.1167 -0.1530  0.7819
   77MOL    C2415376   1.677   7.364   2.309 -0.5819 -0.1614  0.2199
   77MOL    C2515377   1.612   7.308   2.434 -0.0093 -0.2917  0.2250
   77MOL    H2615378   1.801   7.292   2.143 -1.8774  0.0878 -0.0147
   77MOL    H2715379   1.846   7.217   2.284  0.0925 -1.1593 -0.3419
   77MOL    H2815380   1.747   7.444   2.332  0.9580 -1.7082  1.0721
   77MOL    H2915381   1.598   7.397   2.242 -0.2462 -2.7483 -1.5515
   77MOL    H3015382   1.692   7.258   2.490  1.0536 -1.3086 -2.1597
   77MOL    H3115383   1.543   7.228   2.407  1.6657 -0.7656 -2.8548
   77MOL    O3215384   1.539   7.410   2.509  0.5996  0.2242 -0.1498
   77MOL    C3315385   1.463   7.346   2.605 -0.5474 -0.5300  0.7061
   77MOL    C3415386   1.374   7.438   2.681  0.0651 -0.6930  0.0482
   77MOL    C3515387   1.351   7.391   2.825 -0.0742  0.6117 -0.3913
   77MOL    H3615388   1.542   7.302   2.666 -1.5158 -2.1871  0.7881
   77MOL    H3715389   1.401   7.263   2.570 -0.9663  0.0706  0.0183
   77MOL    H3815390   1.419   7.538   2.678 -0.5968 -0.4176 -0.9864
   77MOL    H3915391   1.283   7.450   2.623 -0.1671 -1.2723  0.2968
   77MOL    H4015392   1.430   7.435   2.887 -0.1869  0.4650 -0.1419
   77MOL    H4115393   1.363   7.283   2.835 -2.1266  0.4514  0.6646
   77MOL    O4215394   1.224   7.430   2.852 -0.2841 -0.4852 -0.0795
   77MOL    C4315395   1.183   7.387   2.985  0.0043  1.2374  0.2182
   77MOL    C4415396   1.039   7.442   3.027  0.2873 -0.2450 -0.3392
   77MOL    C4515397   1.006   7.442   3.176  0.0468 -0.1795 -0.3767
   77MOL    H4615398   1.258   7.421   3.057 -1.5772  0.0088  2.5230
   77MOL    H4715399   1.185   7.278   2.986 -0.6332  1.2243  0.3264
   77MOL    H4815400   1.011   7.538   2.983  0.2734 -0.6380 -1.1766
   77MOL    H4915401   0.966   7.382   2.973 -0.5370  2.0719 -1.9108
   77MOL    H5015402   0.926   7.513   3.195 -0.1999 -0.6939  0.5247
   77MOL    H5115403   1.096   7.477   3.227 -1.1761  2.3644  0.1427
   77MOL    O5215404   0.969   7.315   3.229 -0.3419  0.1122 -0.1157
   77MOL    C5315405   0.995   7.297   3.372 -0.0291  1.1069 -0.0174
   77MOL    C5415406   0.966   7.145   3.387  0.1842  0.3062 -0.8940
   77MOL    C5515407   0.812   7.134   3.412 -0.7641 -0.3462  0.0539
   77MOL    H5615408   0.940   7.372   3.429  0.3129 -0.2853  2.1837
   77MOL    H5715409   1.103   7.308   3.381  0.1222 -2.0941  3.2924
   77MOL    H5815410   1.012   7.089   3.305  2.0938 -1.0336  1.0522
   77MOL    H5915411   1.010   7.117   3.482 -1.8682  2.5303  0.7849
   77MOL    H6015412   0.759   7.167   3.323  0.3238  0.3519 -0.3454
   77MOL    H6115413   0.775   7.191   3.498 -0.4967  1.7071 -1.1457
   77MOL    O6215414   0.786   6.996   3.432  0.3148 -0.1646  0.4974
   77MOL    C6315415   0.650   6.969   3.463  0.2530  0.0648 -0.9292
   77MOL    C6415416   0.635   6.813   3.487  0.4810 -0.3149  0.3760
   77MOL    C6515417   0.485   6.776   3.511  0.0242  0.6049  0.7599
   77MOL    H6615418   0.592   6.998   3.376  0.6844  0.2485 -1.1532
   77MOL    H6715419   0.598   7.018   3.546 -0.0701 -0.8098 -0.6097
   77MOL    H6815420   0.682   6.754   3.408 -2.2968 -1.6449 -0.3558
   77MOL    H6915421   0.696   6.793   3.575  1.4609  1.7683  0.1890
   77MOL    H7015422   0.449   6.779   3.408  0.8994  0.9782  0.4616
   77MOL    H7115423   0.421   6.842   3.569 -0.6487  1.5834 -1.0662
   77MOL    O7215424   0.475   6.636   3.542  0.1596  0.1780  0.0783
   77MOL    C7315425   0.517   6.600   3.675 -0.1834  0.2784  0.9411
   77MOL    C7415426   0.484   6.452   3.685 -0.0178 -0.0460 -0.1629
   77MOL    C7515427   0.477   6.396   3.833 -0.7469  0.3219  0.0100
   77MOL    H7615428   0.453   6.662   3.738  0.7520  0.4678  1.7265
   77MOL    H7715429   0.623   6.621   3.690  0.3814 -1.4345 -0.5119
   77MOL    H7815430   0.385   6.436   3.643 -1.3637 -1.6062  3.3982
   77MOL    H7915431   0.551   6.382   3.634  1.7150 -1.0756  3.3899
   77MOL    H8015432   0.576   6.395   3.878 -0.0231  0.1409 -1.5889
   77MOL    H8115433   0.454   6.290   3.831 -0.6165  0.2537  1.4134
   77MOL    O8215434   0.388   6.459   3.925  0.1162  0.7342  0.5548
   77MOL    C8315435   0.352   6.367   4.037 -0.5355 -0.2102  0.2547
   77MOL    C8415436   0.265   6.445   4.135  0.5326  0.1539 -0.0757
   77MOL    C8515437   0.173   6.363   4.224  0.0364 -0.3483 -0.4879
   77MOL    H8615438   0.437   6.323   4.089  0.6841  1.6709 -0.0853
   77MOL    H8715439   0.300   6.280   3.997  0.5960  0.5023 -2.9466
   77MOL    H8815440   0.326   6.500   4.206 -0.6188  1.8860 -0.4117
   77MOL    H8915441   0.221   6.525   4.077 -0.6435 -0.8355 -0.5782
   77MOL    H9015442   0.240   6.308   4.290 -0.2917  0.8650  0.8795
   77MOL    H9115443   0.129   6.280   4.167  1.6169 -1.2825 -0.3880
   77MOL    O9215444   0.094   6.441   4.315 -0.6494 -0.3550 -0.1638
   77MOL    C9315445   0.072   6.391   4.449 -0.3434  0.2629 -0.0465
   77MOL    C9415446   7.716   6.448   4.474  0.3299  0.1512 -0.1469
   77MOL    C9515447   7.603   6.399   4.383  0.4052  0.3148  0.3932
   77MOL    H9615448   0.137   6.426   4.529  1.4379 -2.0582 -0.4162
   77MOL    H9715449   0.072   6.283   4.461  2.9430  0.2400  0.1539
   77MOL    H9815450   7.687   6.408   4.571  1.7652  0.4805  0.4304
   77MOL    H9915451   7.706   6.557   4.477 -0.2303  0.1684 -1.9985
   77MOL   H10015452   7.510   6.391   4.440  0.3995 -0.3163  0.3080
   77MOL   H10115453   7.619   6.294   4.355 -0.7066  0.2212  0.0836
   77MOL   O10215454   7.589   6.485   4.267  0.9241 -0.3216 -0.4211
   77MOL   C10315455   7.560   6.415   4.148  0.1803 -0.1911  0.3522
   77MOL   C10415456   7.572   6.511   4.020  0.4746  0.3187 -0.2119
   77MOL   C10515457   7.720   6.544   4.002 -0.7497  0.0713  0.0882
   77MOL   H10615458   7.462   6.369   4.152  0.4993 -0.8459  0.8101
   77MOL   H10715459   7.639   6.339   4.142  1.7852  1.5594 -1.8936
   77MOL   H10815460   7.542   6.450   3.934  1.3806  2.1597 -1.8828
   77MOL   H10915461   7.506   6.597   4.024  0.0572  0.0418 -0.8843
   77MOL   H11015462   7.776   6.451   4.012 -0.2613  0.3874  0.3245
   77MOL   H11115463   7.749   6.623   4.072  0.9517 -0.5298  0.0769
   77MOL   O11215464   7.741   6.589   3.867 -0.2753 -0.0834  0.0640
   77MOL   C11315465   0.088   6.608   3.816  0.8443  0.8652  0.5237
   77MOL   C11415466   0.070   6.626   3.665 -0.0737 -0.0058  0.7328
   77MOL   C11515467   0.014   6.502   3.590  0.1318 -0.3241 -1.1732
   77MOL   H11615468   0.139   6.516   3.844 -1.9333 -0.6416  0.8946
   77MOL   H11715469   0.140   6.691   3.863 -0.2342  1.2057  1.1386
   77MOL   H11815470   0.006   6.711   3.640  0.0672  0.1880  1.0301
   77MOL   H11915471   0.170   6.647   3.627 -0.3873 -1.6251 -1.0468
   77MOL   H12015472   7.709   6.473   3.639 -0.6412  2.6812 -0.7902
   77MOL   H12115473   0.081   6.416   3.589 -0.0186 -0.5909  3.3289
   77MOL   O12215474   7.782   6.539   3.452  0.0255  0.2922  0.7253
   77MOL   C12315475   7.725   6.437   3.370  0.6109 -0.4647 -0.2303
   77MOL   C12415476   0.040   6.330   3.338 -0.2467 -0.1669  0.1141
   77MOL   C12515477   0.030   6.287   3.186  1.3046 -0.2713  0.1493
   77MOL   H12615478   7.693   6.495   3.283  1.9605  2.7388  1.3127
   77MOL   H12715479   7.634   6.394   3.412  1.1270  1.2912  2.9025
   77MOL   H12815480   0.140   6.368   3.353  0.0288 -0.1609 -1.6878
   77MOL   H12915481   0.036   6.250   3.412  1.9137  0.1614  0.6015
   77MOL   H13015482   7.718   6.245   3.176  1.4747 -1.2634  2.2181
   77MOL   H13115483   0.094   6.201   3.172 -0.8101 -2.0397  1.1204
   77MOL   O13215484   0.040   6.394   3.095  0.4174  0.0070  0.1204
   77MOL   C13315485   0.063   6.339   2.963  0.1853 -0.5439  0.5302
   77MOL   C13415486   0.054   6.447   2.851  0.2720  0.5588  0.0420
   77MOL   C13515487   0.156   6.556   2.863  0.1742  0.4431  0.2395
   77MOL   H13615488   7.778   6.258   2.965 -0.9422  0.4900  2.8847
   77MOL   H13715489   0.161   6.291   2.963 -0.7590 -2.5078  0.0102
   77MOL   H13815490   0.059   6.391   2.757  1.1375  0.6686  0.0202
   77MOL   H13915491   7.738   6.478   2.858  0.7619  1.8933  1.6059
   77MOL   H14015492   0.258   6.520   2.852 -0.6052 -1.6211 -0.3773
   77MOL   H14115493   0.148   6.616   2.954  1.0860  2.3718 -0.8912
   77MOL   O14215494   0.127   6.641   2.754  0.6706  0.3896 -0.8371
   77MOL   C14315495   0.195   6.763   2.762 -0.4372  0.6905  0.6819
   77MOL   C14415496   0.184   6.844   2.635 -0.4412 -0.5220 -0.3092
   77MOL   C14515497   0.280   6.965   2.651 -1.1476 -0.3144  0.0881
   77MOL   H14615498   0.299   6.732   2.770  0.2366  2.8019  0.4183
   77MOL   H14715499   0.184   6.821   2.854  0.9094  0.5347  0.9523
   77MOL   H14815500   0.219   6.795   2.544  2.0243  0.6395 -0.0156
   77MOL   H14915501   0.082   6.882   2.627 -1.3466 -1.8586  3.7137
   77MOL   H15015502   0.386   6.945   2.638 -1.0451  0.0263  0.3975
   77MOL   H15115503   0.282   7.001   2.754 -1.5858 -1.5221  0.5350
   77MOL   O15215504   0.250   7.072   2.561 -0.2527 -0.0740  0.0663
   77MOL   C15315505   0.143   7.161   2.609  0.0231 -0.0192  0.5103
   77MOL   C15415506   0.159   7.306   2.557  0.4657  0.3812 -0.2140
   77MOL   C15515507   0.039   7.383   2.599  0.1797 -0.1526  0.8392
   77MOL   H15615508   0.145   7.179   2.717 -1.2157 -1.6472  0.8222
   77MOL   H15715509   0.048   7.113   2.586  1.1765 -0.9045 -2.5742
   77MOL   H15815510   0.246   7.351   2.606  0.7332 -1.2594  0.8619
   77MOL   H15915511   0.172   7.305   2.449  1.7786 -1.3557 -0.0835
   77MOL   H16015512   0.017   7.366   2.704  0.7393 -0.5923  0.8871
   77MOL   H16115513   7.739   7.354   2.542 -1.5645  2.5547  2.0593
   77MOL   O16215514   0.072   7.527   2.576  0.1689  0.3173 -0.3136
   77MOL   C16315515   7.750   7.609   2.618 -1.1195 -0.2169  0.6025
   77MOL   C16415516   7.638   7.636   2.507  0.3022  0.9562  0.9719
   77MOL   C16515517   7.526   7.717   2.573  0.0885 -0.5438  0.5262
   77MOL   H16615518   7.786   7.708   2.643  0.2478 -0.7468  0.7923
   77MOL   H16715519   7.713   7.558   2.707 -2.1248 -1.7358 -0.6371
   77MOL   H16815520   7.682   7.695   2.426 -0.6350  1.3421  0.7446
   77MOL   H16915521   7.606   7.548   2.451 -1.1007  1.8797  0.3036
   77MOL   H17015522   7.469   7.781   2.505  0.8764  1.1350  1.4089
   77MOL   H17115523   7.560   7.776   2.658 -0.6993  0.7198 -0.0215
   77MOL   O17215524   7.428   7.627   2.622 -0.4076 -0.3693 -0.1907
   77MOL   C17315525   7.324   7.679   2.700 -0.5402  0.1532 -0.1749
   77MOL   C17415526   7.250   7.564   2.760  0.1982  0.4986 -0.1858
   77MOL   C17515527   7.133   7.616   2.840  0.3619 -0.5910 -0.5471
   77MOL   H17615528   7.256   7.748   2.650  0.6497  1.1595 -0.4533
   77MOL   H17715529   7.381   7.734   2.776 -1.9506  1.0600  0.2416
   77MOL   H17815530   7.213   7.500   2.680 -0.1344  1.4099 -0.7577
   77MOL   H17915531   7.311   7.496   2.819 -0.2267 -0.2273 -0.5713
   77MOL   H18015532   7.072   7.683   2.779 -0.7784 -0.0408  1.1377
   77MOL   H18115533   7.160   7.672   2.930 -0.1081 -2.3289  0.7253
   77MOL   O18215534   7.061   7.497   2.892 -0.0559  0.6028 -0.0992
   77MOL   C18315535   6.947   7.533   2.970 -0.3324 -0.2622 -0.4049
   77MOL   C18415536   6.844   7.416   2.965 -0.0769 -0.2203 -0.2957
   77MOL   C18515537   6.711   7.449   3.026 -0.4483 -0.0016  0.1317
   77MOL   H18615538   6.913   7.626   2.924  0.2362  0.2670  0.2249
   77MOL   H18715539   6.978   7.551   3.074  0.5163 -0.1149 -0.6794
   77MOL   H18815540   6.842   7.380   2.862  0.7920  0.9908 -0.7442
   77MOL   H18915541   6.888   7.329   3.015 -1.2938 -0.0010  1.2056
   77MOL   H19015542   6.653   7.508   2.955 -0.2590  2.2767  1.8200
   77MOL   H19115543   6.736   7.510   3.113 -1.8714  0.2472  0.3726
   77MOL   O19215544   6.652   7.324   3.050 -0.0052 -0.2757  0.7365
   77MOL   C19315545   6.530   7.336   3.122 -0.3097  0.0605  0.0464
   77MOL   C19415546   6.492   7.193   3.166  0.2414  0.5853  0.0961
   77MOL   C19515547   6.346   7.181   3.227 -0.5957  0.0261 -0.2554
   77MOL   H19615548   6.451   7.389   3.068  0.4181  1.3344  0.1965
   77MOL   H19715549   6.554   7.388   3.215  1.3804  0.8198 -0.7734
   77MOL   H19815550   6.510   7.127   3.081  0.7082  2.3364 -1.1886
   77MOL   H19915551   6.566   7.157   3.237  0.4631  1.2130  0.1928
   77MOL   H20015552   6.340   7.259   3.303 -2.7830  1.0388 -1.4226
   77MOL   H20115553   6.327   7.086   3.278 -2.4598 -0.2800 -1.4749
   77MOL   H20215554   6.268   7.196   3.153  0.3001  1.7076 -0.8892
   78MOL     O115555   2.977   0.728   5.630  0.1772  0.3680  0.5815
   78MOL     C215556   3.012   0.855   5.679 -0.0308 -0.1756 -0.3779
   78MOL     C315557   3.158   0.855   5.729  0.0675 -0.6992  0.1174
   78MOL     C415558   3.234   0.987   5.734 -0.1942 -0.8716  0.2777
   78MOL     H515559   2.942   0.876   5.759  0.4658  0.6793 -0.1691
   78MOL     H615560   2.993   0.929   5.601  1.1663  1.8198  1.1835
   78MOL     H715561   3.171   0.799   5.821  0.6141 -1.6791 -0.5447
   78MOL     H815562   3.206   0.805   5.645 -0.8564  0.1152 -0.9207
   78MOL     H915563   3.241   1.017   5.629  0.2814 -0.6546  0.3687
   78MOL    H1015564   3.337   0.983   5.769 -0.0237 -1.1375 -0.2417
   78MOL    H1115565   2.890   0.729   5.592  1.7965  1.1751 -3.3215
   78MOL    O1215566   3.174   1.090   5.813 -0.4100  0.0583 -0.1425
   78MOL    C1315567   3.233   1.225   5.808  0.0673  0.5897 -0.0669
   78MOL    C1415568   3.345   1.250   5.913  0.3797  0.7168  0.5521
   78MOL    C1515569   3.428   1.373   5.882  0.1363  0.1246 -0.2843
   78MOL    H1615570   3.150   1.294   5.822 -2.1582 -1.0879 -4.0855
   78MOL    H1715571   3.272   1.253   5.710  2.3557 -0.1868  0.5909
   78MOL    H1815572   3.294   1.255   6.009 -1.2789  0.5352 -0.3029
   78MOL    H1915573   3.406   1.161   5.906  0.6503  0.9622 -0.2890
   78MOL    H2015574   3.467   1.403   5.980 -1.4490  0.9930  0.0987
   78MOL    H2115575   3.367   1.455   5.846 -0.5591 -0.0494  0.4743
   78MOL    O2215576   3.531   1.337   5.792  0.3965  0.2607  0.0420
   78MOL    C2315577   3.646   1.424   5.773 -0.5937  0.1618 -0.0182
   78MOL    C2415578   3.746   1.359   5.686  0.0134  0.0155  0.6603
   78MOL    C2515579   3.874   1.440   5.672  0.0601 -0.0220 -0.0863
   78MOL    H2615580   3.686   1.440   5.873 -1.7896  2.1237  0.1718
   78MOL    H2715581   3.624   1.523   5.733 -0.8011 -0.0423 -0.4161
   78MOL    H2815582   3.771   1.266   5.736 -0.2852 -0.3246  0.1895
   78MOL    H2915583   3.704   1.335   5.588 -2.7241 -1.0784  2.0231
   78MOL    H3015584   3.921   1.460   5.768 -0.6202 -0.8609  0.4275
   78MOL    H3115585   3.850   1.521   5.603  2.5553  1.0474  0.2172
   78MOL    O3215586   3.962   1.357   5.592  0.2804 -0.0112  0.3966
   78MOL    C3315587   4.095   1.408   5.568 -0.1202 -0.0324  0.4834
   78MOL    C3415588   4.167   1.293   5.485  0.7099 -0.2402 -0.3318
   78MOL    C3515589   4.182   1.160   5.558  0.2776 -0.8065  0.5585
   78MOL    H3615590   4.150   1.425   5.661 -0.6600  0.4278  0.7177
   78MOL    H3715591   4.087   1.497   5.506 -0.6609  0.2961  1.0202
   78MOL    H3815592   4.113   1.267   5.394  0.2459 -0.7196  0.0685
   78MOL    H3915593   4.264   1.332   5.458 -0.4012  1.3226 -2.1682
   78MOL    H4015594   4.210   1.072   5.500 -0.6010 -0.9854  0.3926
   78MOL    H4115595   4.082   1.134   5.593 -0.6067 -0.3449 -1.5623
   78MOL    O4215596   4.268   1.166   5.668  0.3124  0.5220 -0.5418
   78MOL    C4315597   4.284   1.040   5.731  0.0734  0.7681 -0.2283
   78MOL    C4415598   4.379   1.034   5.853  0.2701 -1.0329 -0.3076
   78MOL    C4515599   4.393   0.899   5.917 -0.1020  0.7106  1.0116
   78MOL    H4615600   4.342   0.975   5.666 -1.3485 -1.4032  0.6105
   78MOL    H4715601   4.189   0.990   5.749 -0.1564  0.6643 -1.7064
   78MOL    H4815602   4.476   1.075   5.825 -0.0767 -0.5336 -0.7800
   78MOL    H4915603   4.344   1.097   5.935  2.0415  1.5380 -1.4981
   78MOL    H5015604   4.300   0.847   5.943  0.8961 -1.4874  0.2580
   78MOL    H5115605   4.435   0.922   6.014 -2.8900  1.2417  2.1576
   78MOL    O5215606   4.480   0.824   5.830 -0.2721 -0.5313 -0.6879
   78MOL    C5315607   4.545   0.717   5.905 -0.1170  0.2069 -0.4508
   78MOL    C5415608   4.604   0.606   5.815 -0.2395  0.1479 -0.0869
   78MOL    C5515609   4.496   0.534   5.729 -0.0299  0.2117  0.3452
   78MOL    H5615610   4.473   0.680   5.978  0.6377 -0.3676  0.0249
   78MOL    H5715611   4.628   0.764   5.958 -1.3213 -0.5249  2.1933
   78MOL    H5815612   4.687   0.639   5.751  1.6488  0.0270  2.2161
   78MOL    H5915613   4.648   0.530   5.880 -2.8545 -1.0465  0.3254
   78MOL    H6015614   4.419   0.599   5.688 -0.7592 -1.2197 -0.6180
   78MOL    H6115615   4.441   0.469   5.799  2.0178 -1.1000  0.7782
   78MOL    O6215616   4.564   0.470   5.615  0.0198  0.1932 -0.2996
   78MOL    C6315617   4.484   0.391   5.529  0.4084 -0.8735  0.4572
   78MOL    C6415618   4.563   0.354   5.402  0.1606  0.6115 -0.0197
   78MOL    C6515619   4.490   0.272   5.291 -0.1749  0.3740  0.2089
   78MOL    H6615620   4.394   0.447   5.505 -0.7752 -1.9537  2.2446
   78MOL    H6715621   4.466   0.302   5.589 -0.6273  0.4708  2.1750
   78MOL    H6815622   4.616   0.439   5.357 -0.0135  0.6449 -0.1592
   78MOL    H6915623   4.650   0.307   5.449  0.4601  1.1473 -0.0299
   78MOL    H7015624   4.452   0.175   5.322 -2.6246  1.1968 -0.1054
   78MOL    H7115625   4.564   0.255   5.213 -0.6024 -1.7403  0.2492
   78MOL    O7215626   4.383   0.352   5.230  0.4570  0.1444  0.3649
   78MOL    C7315627   4.315   0.283   5.122 -0.0291  0.1115  0.4648
   78MOL    C7415628   4.203   0.360   5.063  0.2687 -0.3604 -0.4476
   78MOL    C7515629   4.094   0.399   5.168  0.6865 -0.5027 -0.4281
   78MOL    H7615630   4.281   0.190   5.167  0.6681 -0.8718 -1.0247
   78MOL    H7715631   4.380   0.244   5.044  0.0270  1.4894 -0.1847
   78MOL    H7815632   4.253   0.450   5.026 -0.0540 -0.1792 -0.4437
   78MOL    H7915633   4.166   0.290   4.988  2.8826 -0.5342 -1.6330
   78MOL    H8015634   4.141   0.457   5.248 -1.1911 -2.5113  2.2438
   78MOL    H8115635   4.040   0.312   5.205 -0.2891 -0.1402 -0.9780
   78MOL    O8215636   3.994   0.474   5.107 -0.5992 -0.1918  0.1641
   78MOL    C8315637   3.880   0.490   5.188 -0.5056 -0.2509  0.0610
   78MOL    C8415638   3.763   0.531   5.105  0.4223 -0.1774  0.9563
   78MOL    C8515639   3.640   0.552   5.197 -0.0045  0.6998  0.4508
   78MOL    H8615640   3.899   0.562   5.268 -1.0592  0.4209 -0.4041
   78MOL    H8715641   3.852   0.399   5.241  0.5335 -1.3475 -1.2414
   78MOL    H8815642   3.791   0.623   5.053 -1.6494  1.5009  2.7241
   78MOL    H8915643   3.737   0.451   5.037  0.7596  0.7167 -0.2499
   78MOL    H9015644   3.662   0.624   5.276  0.8386  0.6110  0.2990
   78MOL    H9115645   3.615   0.460   5.248 -1.7055  0.6781 -0.3843
   78MOL    O9215646   3.531   0.604   5.129 -0.1566  0.2201  0.9624
   78MOL    C9315647   3.457   0.502   5.066 -0.4210  0.0052 -0.3820
   78MOL    C9415648   3.342   0.572   4.992 -0.8134 -0.1241 -0.0099
   78MOL    C9515649   3.236   0.470   4.931  0.0004 -0.1890  0.5179
   78MOL    H9615650   3.416   0.423   5.129 -0.3679  0.2279 -0.0688
   78MOL    H9715651   3.512   0.446   4.990 -1.9315  0.0173 -1.5087
   78MOL    H9815652   3.301   0.647   5.058 -2.2833 -0.5653 -0.4067
   78MOL    H9915653   3.375   0.637   4.911 -0.0292  0.3385  0.6760
   78MOL   H10015654   3.190   0.411   5.010 -2.3002 -3.5530 -3.1428
   78MOL   H10115655   3.299   0.420   4.858  0.1834  1.2009 -0.2961
   78MOL   O10215656   3.129   0.545   4.869 -0.5072  0.0916 -0.3022
   78MOL   C10315657   3.046   0.463   4.787  0.4527  1.0536  0.8634
   78MOL   C10415658   2.940   0.548   4.715  0.3300 -0.2215  0.0441
   78MOL   C10515659   2.892   0.475   4.586 -0.0026  0.9959 -0.1358
   78MOL   H10615660   2.989   0.393   4.848  1.5231 -0.4257  0.2122
   78MOL   H10715661   3.095   0.387   4.725 -2.2714  1.0775 -1.4129
   78MOL   H10815662   2.850   0.560   4.776 -0.1133  2.1835 -1.0163
   78MOL   H10915663   2.976   0.645   4.681 -3.0867  1.1425  0.1021
   78MOL   H11015664   2.833   0.391   4.623 -2.3772  2.4355 -0.5957
   78MOL   H11115665   2.972   0.422   4.534 -1.0526  0.5078 -1.2729
   78MOL   O11215666   2.817   0.558   4.498  0.9820  0.3221 -0.6669
   78MOL   C11315667   2.780   0.498   4.373 -0.1495 -0.8747 -0.0382
   78MOL   C11415668   2.660   0.401   4.404  0.0161  0.1993 -0.5252
   78MOL   C11515669   2.595   0.334   4.272 -0.4134 -0.0481 -0.4137
   78MOL   H11615670   2.856   0.435   4.326  1.1504  1.0050 -0.4980
   78MOL   H11715671   2.757   0.583   4.310 -0.8735 -0.3279  0.9554
   78MOL   H11815672   2.696   0.316   4.463  0.7776  1.6539  1.1294
   78MOL   H11915673   2.586   0.440   4.475 -0.0520  0.5548 -0.7913
   78MOL   H12015674   2.676   0.302   4.206 -2.3147 -1.8787 -1.9000
   78MOL   H12115675   2.525   0.403   4.225 -2.0178 -1.9026 -0.8042
   78MOL   O12215676   2.530   0.216   4.315 -0.5953  0.3132 -0.1296
   78MOL   C12315677   2.489   0.139   4.207 -0.3347  0.1720 -0.5928
   78MOL   C12415678   2.414   0.014   4.272 -0.1532 -0.5452  0.6376
   78MOL   C12515679   2.274   0.049   4.317 -0.7135 -0.2439  0.0470
   78MOL   H12615680   2.575   0.104   4.151  2.3861  2.2748  2.0679
   78MOL   H12715681   2.424   0.197   4.142 -0.4371  1.1298  0.3423
   78MOL   H12815682   2.413   7.722   4.198  2.2919 -1.0348  1.0901
   78MOL   H12915683   2.467   7.762   4.358 -2.9363 -0.3127  2.5596
   78MOL   H13015684   2.215   0.080   4.231 -2.5583 -2.0299  0.6162
   78MOL   H13115685   2.272   0.129   4.390  0.8634  0.4419 -0.6555
   78MOL   O13215686   2.210   7.726   4.363 -0.3250  0.4387 -0.1415
   78MOL   C13315687   2.086   7.742   4.422  0.6001 -0.5697 -0.7692
   78MOL   C13415688   2.025   7.610   4.450 -0.0340  0.4274  0.4109
   78MOL   C13515689   2.014   7.523   4.318  0.2753  0.0818 -0.1254
   78MOL   H13615690   2.017   0.017   4.367  0.0851 -0.1006  0.4201
   78MOL   H13715691   2.082   0.006   4.517 -0.9045  1.0081 -1.6621
   78MOL   H13815692   2.085   7.561   4.526  0.9230 -3.5121 -2.7049
   78MOL   H13915693   1.922   7.617   4.485  0.3426  0.3899  1.5450
   78MOL   H14015694   2.111   7.501   4.276 -1.2084 -1.1669 -3.0215
   78MOL   H14115695   1.952   7.564   4.238  0.5096 -0.3275 -0.5166
   78MOL   O14215696   1.942   7.407   4.360  0.0357  0.7020  0.1233
   78MOL   C14315697   1.908   7.325   4.247  0.0329 -0.8718 -0.6576
   78MOL   C14415698   1.855   7.193   4.301 -0.6847  0.0785  0.0673
   78MOL   C14515699   1.966   7.109   4.374 -0.2626 -0.0563 -0.2583
   78MOL   H14615700   1.988   7.337   4.174  0.7639 -0.8366  0.1343
   78MOL   H14715701   1.820   7.369   4.199  0.1621  0.6382  0.4258
   78MOL   H14815702   1.783   7.223   4.377 -1.1416 -1.3137  0.1855
   78MOL   H14915703   1.810   7.134   4.221  1.0462 -1.6175  0.3078
   78MOL   H15015704   1.934   7.014   4.418  0.2860  0.1152  0.5347
   78MOL   H15115705   2.006   7.157   4.463 -1.8245  1.4530 -0.3473
   78MOL   O15215706   2.058   7.073   4.277 -0.1548 -0.0704  0.2217
   78MOL   C15315707   2.192   7.114   4.300 -0.1249  0.3815 -0.4175
   78MOL   C15415708   2.280   7.083   4.171 -0.1937 -0.7154  0.6082
   78MOL   C15515709   2.424   7.108   4.189  0.1175 -0.4309  0.3456
   78MOL   H15615710   2.218   7.054   4.387 -1.9031 -1.1171 -0.8756
   78MOL   H15715711   2.210   7.216   4.334  1.3420  0.4406 -1.3377
   78MOL   H15815712   2.280   6.977   4.144  1.0602 -0.6801  0.4598
   78MOL   H15915713   2.231   7.149   4.099  0.4068 -1.8306 -0.8616
   78MOL   H16015714   2.427   7.203   4.241  2.4685 -0.4479  0.2790
   78MOL   H16115715   2.484   7.113   4.098 -1.2468 -1.2859 -0.6335
   78MOL   O16215716   2.467   7.018   4.291  0.0000 -0.3084  0.4059
   78MOL   C16315717   2.591   7.051   4.339  0.2269  0.0801  0.1139
   78MOL   C16415718   2.629   6.959   4.453  0.3598  0.1255 -0.0379
   78MOL   C16515719   2.782   6.953   4.474 -0.0733 -0.2763  0.0357
   78MOL   H16615720   2.588   7.142   4.398 -1.3840  1.3548 -1.8741
   78MOL   H16715721   2.666   7.039   4.260 -0.1639  1.4158 -0.4740
   78MOL   H16815722   2.580   6.979   4.548 -0.7812 -0.6010 -0.4570
   78MOL   H16915723   2.601   6.858   4.423  0.0569  0.3896 -0.6443
   78MOL   H17015724   2.811   7.055   4.498 -0.1605  0.0680 -1.2512
   78MOL   H17115725   2.842   6.934   4.385  0.4235 -1.7207  0.6780
   78MOL   O17215726   2.815   6.871   4.586 -0.5158  0.4255  0.1020
   78MOL   C17315727   2.952   6.838   4.606 -0.1055 -0.6711  0.1518
   78MOL   C17415728   3.005   6.731   4.510  0.1740  0.0966  0.2070
   78MOL   C17515729   2.921   6.602   4.505 -0.2956 -0.5753  0.6013
   78MOL   H17615730   2.955   6.798   4.708 -0.8761  0.1399  0.5035
   78MOL   H17715731   3.022   6.921   4.617  1.5320 -2.1989  1.5400
   78MOL   H17815732   3.024   6.778   4.414  0.4349 -0.6948 -0.1318
   78MOL   H17915733   3.101   6.695   4.548  0.5491  2.2098  1.3365
   78MOL   H18015734   2.832   6.619   4.444  2.1641  2.2620 -2.3739
   78MOL   H18115735   2.887   6.575   4.605  0.7075  0.6595  1.2887
   78MOL   O18215736   2.984   6.497   4.422  0.1701 -0.0251 -0.1056
   78MOL   C18315737   2.926   6.374   4.433 -0.5305 -0.0476  0.2345
   78MOL   C18415738   2.996   6.276   4.346  0.4763  0.2480 -0.4421
   78MOL   C18515739   2.972   6.291   4.201  0.5993 -0.3991  0.1912
   78MOL   H18615740   2.820   6.380   4.409 -0.1102 -1.1390 -2.0131
   78MOL   H18715741   2.943   6.328   4.531 -0.3070  0.9277  0.6594
   78MOL   H18815742   3.103   6.284   4.365  0.3191  2.2801 -0.2391
   78MOL   H18915743   2.957   6.182   4.384 -2.6997  1.1388 -1.3015
   78MOL   H19015744   2.966   6.392   4.160 -1.6071 -0.9544 -0.9344
   78MOL   H19115745   2.868   6.262   4.185  0.8120 -0.6909 -0.6901
   78MOL   O19215746   3.062   6.220   4.125  0.4358 -0.2649 -0.0222
   78MOL   C19315747   2.996   6.095   4.097 -0.1176 -0.2468 -0.1157
   78MOL   C19415748   3.108   6.005   4.062 -0.3744  0.1332 -0.3430
   78MOL   C19515749   3.078   5.865   4.002 -0.1226 -0.6068  0.3226
   78MOL   H19615750   2.922   6.096   4.018 -2.0664  2.0586  1.6614
   78MOL   H19715751   2.951   6.057   4.189  0.7807 -0.1662  0.3703
   78MOL   H19815752   3.173   6.050   3.987 -1.3382 -0.3691 -1.4912
   78MOL   H19915753   3.167   6.001   4.154 -0.4721  0.6597 -0.2555
   78MOL   H20015754   3.024   5.793   4.063 -1.0927 -0.7286 -0.6665
   78MOL   H20115755   3.171   5.820   3.966  1.9650  3.9554 -0.2792
   78MOL   H20215756   3.017   5.865   3.912 -1.6803  2.7750  1.3036
   79MOL     O115757   3.031   7.716   2.006  0.5340 -0.1888  0.0178
   79MOL     C215758   3.145   7.641   2.037  0.1169  0.0073  0.2513
   79MOL     C315759   3.220   7.625   1.902  0.1760 -0.2634 -0.0750
   79MOL     C415760   3.353   7.553   1.930  0.1770  0.1888 -0.6631
   79MOL     H515761   3.127   7.542   2.081 -0.9060  0.7248  1.4840
   79MOL     H615762   3.195   7.704   2.111 -0.8735  1.5503 -0.3914
   79MOL     H715763   3.159   7.581   1.823  0.4400 -1.6257  0.4626
   79MOL     H815764   3.246   7.719   1.853 -2.1554  0.7435  0.5424
   79MOL     H915765   3.420   7.556   1.844  1.7218  1.1570  0.5455
   79MOL    H1015766   3.327   7.450   1.951 -1.9196  0.7304 -0.4845
   79MOL    H1115767   3.011   7.781   2.071 -2.0881 -1.5493  0.6556
   79MOL    O1215768   3.422   7.604   2.045 -0.4347  0.5018 -0.1940
   79MOL    C1315769   3.532   7.519   2.092  0.4489  0.8279 -0.1092
   79MOL    C1415770   3.604   7.586   2.208 -0.3059  0.3926 -0.3374
   79MOL    C1515771   3.728   7.511   2.255  0.7251  0.6502 -0.2528
   79MOL    H1615772   3.604   7.508   2.011  1.3054  0.8714  0.6413
   79MOL    H1715773   3.499   7.418   2.119  2.1383 -0.3856 -2.4514
   79MOL    H1815774   3.629   7.688   2.177  1.7601 -0.6060 -2.1311
   79MOL    H1915775   3.533   7.589   2.291 -0.2859 -2.0785 -0.2099
   79MOL    H2015776   3.693   7.410   2.276  0.2202  0.9751  0.4718
   79MOL    H2115777   3.763   7.556   2.347  0.2823 -1.9468  1.2296
   79MOL    O2215778   3.833   7.517   2.157  0.3557 -0.1772 -0.2621
   79MOL    C2315779   3.919   7.405   2.166 -0.3968  0.0485  0.0588
   79MOL    C2415780   4.021   7.425   2.279 -0.8328  0.2071 -1.0241
   79MOL    C2515781   4.129   7.314   2.274 -0.0705 -0.0083  0.6360
   79MOL    H2615782   3.967   7.404   2.068 -1.8931  0.7012 -0.7054
   79MOL    H2715783   3.867   7.309   2.165  1.3366 -0.9009 -1.1655
   79MOL    H2815784   4.071   7.521   2.266  0.0319  0.0071  0.6125
   79MOL    H2915785   3.956   7.426   2.367 -0.7949  1.9605 -0.9863
   79MOL    H3015786   4.214   7.347   2.334  1.8949 -1.7698 -1.0513
   79MOL    H3115787   4.168   7.310   2.172  0.0691  0.9448  0.6450
   79MOL    O3215788   4.079   7.183   2.321  0.5486  0.0489  0.1124
   79MOL    C3315789   4.162   7.081   2.363 -0.4216  0.3158 -0.0819
   79MOL    C3415790   4.089   6.948   2.395  0.4921 -0.1404 -0.1236
   79MOL    C3515791   4.176   6.854   2.482 -0.3109  0.3794  0.2357
   79MOL    H3615792   4.210   7.129   2.448 -1.2404  1.6024 -0.3414
   79MOL    H3715793   4.240   7.070   2.287 -0.3901  2.4287 -0.3876
   79MOL    H3815794   3.998   6.971   2.450 -1.0914 -0.1787 -2.6319
   79MOL    H3915795   4.048   6.904   2.304  0.8413  2.3346 -1.5172
   79MOL    H4015796   4.218   6.883   2.578  1.3303 -0.4548 -0.2182
   79MOL    H4115797   4.266   6.819   2.432 -0.6931  0.4392 -0.5149
   79MOL    O4215798   4.090   6.740   2.506  0.2289 -0.4032 -1.0451
   79MOL    C4315799   4.146   6.615   2.523  0.2472  0.1000 -0.0370
   79MOL    C4415800   4.054   6.513   2.589 -0.2049  0.6709  0.6670
   79MOL    C4515801   4.117   6.367   2.597  0.3142 -0.1888  0.0830
   79MOL    H4615802   4.226   6.621   2.597  1.0454  0.1983 -0.8990
   79MOL    H4715803   4.190   6.580   2.430  0.8844 -2.0381  1.0396
   79MOL    H4815804   4.026   6.548   2.688 -0.9900  1.5802  0.1345
   79MOL    H4915805   3.963   6.509   2.529  0.2098 -0.7547  0.1147
   79MOL    H5015806   4.036   6.298   2.621 -0.4493  0.0642 -1.6843
   79MOL    H5115807   4.190   6.352   2.676  0.2986 -1.6273 -0.1760
   79MOL    O5215808   4.166   6.344   2.467 -0.1183  0.4828 -0.3091
   79MOL    C5315809   4.151   6.203   2.429 -0.0422 -0.1263 -0.3303
   79MOL    C5415810   4.186   6.172   2.288  0.4454  0.3280  0.0193
   79MOL    C5515811   4.179   6.026   2.241 -0.0139  0.7572  0.0910
   79MOL    H5615812   4.053   6.179   2.469  0.0264  1.2893  0.7506
   79MOL    H5715813   4.217   6.133   2.481  0.6894 -1.3069 -2.8081
   79MOL    H5815814   4.110   6.220   2.227 -0.1986 -1.0716 -0.3151
   79MOL    H5915815   4.275   6.211   2.240  0.7984  0.1196  0.4924
   79MOL    H6015816   4.086   5.979   2.274 -0.5480  0.5865 -1.6095
   79MOL    H6115817   4.267   5.969   2.271  0.3117  0.9865 -0.4305
   79MOL    O6215818   4.178   6.028   2.100  0.2380  0.3280 -0.1746
   79MOL    C6315819   4.162   5.901   2.045  0.4776  0.4662  0.1738
   79MOL    C6415820   4.197   5.905   1.898  0.5726  0.1882 -0.3473
   79MOL    C6515821   4.342   5.862   1.881 -0.2464 -0.1428  0.0835
   79MOL    H6615822   4.058   5.875   2.068  0.3889  0.2617 -0.4552
   79MOL    H6715823   4.225   5.829   2.097  0.0238  0.9576  1.4193
   79MOL    H6815824   4.141   5.829   1.842  1.3993  0.8420 -2.0727
   79MOL    H6915825   4.164   5.996   1.849 -0.3059  1.0346  1.7470
   79MOL    H7015826   4.365   5.762   1.917 -0.0509 -0.1479 -0.0555
   79MOL    H7115827   4.391   5.922   1.958 -0.7995  1.6755 -0.9300
   79MOL    O7215828   4.402   5.875   1.755  0.0198 -0.1051 -0.4174
   79MOL    C7315829   4.548   5.870   1.768  0.5397  0.1705  0.5779
   79MOL    C7415830   4.615   5.993   1.836  0.1295 -0.2037  0.1427
   79MOL    C7515831   4.577   6.126   1.767 -0.0842 -0.6579 -0.0564
   79MOL    H7615832   4.574   5.864   1.662 -1.3771 -1.2840  0.1557
   79MOL    H7715833   4.566   5.773   1.813 -0.5415 -0.1716  0.2968
   79MOL    H7815834   4.586   6.001   1.941 -0.4771  1.5591 -0.1496
   79MOL    H7915835   4.724   5.981   1.831  0.3144  1.0151  0.9500
   79MOL    H8015836   4.469   6.140   1.770  0.1489  0.9621  2.1780
   79MOL    H8115837   4.599   6.112   1.661  0.5780  0.9695 -0.1489
   79MOL    O8215838   4.644   6.235   1.827 -0.1000  0.2948 -0.4328
   79MOL    C8315839   4.590   6.354   1.782  0.2173  0.3076  0.4549
   79MOL    C8415840   4.677   6.475   1.839  0.2055 -0.2255  1.3122
   79MOL    C8515841   4.621   6.607   1.778  0.0794  0.2272  0.5436
   79MOL    H8615842   4.491   6.364   1.827 -0.1969 -1.8462  0.1038
   79MOL    H8715843   4.594   6.361   1.673 -0.3382 -0.4664  0.3771
   79MOL    H8815844   4.674   6.472   1.947  0.2090  0.6109  1.3437
   79MOL    H8915845   4.777   6.468   1.796 -0.8294 -0.3231 -1.1977
   79MOL    H9015846   4.522   6.630   1.818 -0.5838  1.0479 -1.4770
   79MOL    H9115847   4.621   6.613   1.669  0.9365  2.0386  0.6304
   79MOL    O9215848   4.699   6.726   1.801 -0.0349 -0.2225  0.6103
   79MOL    C9315849   4.725   6.766   1.934 -0.4486 -0.5409 -0.1388
   79MOL    C9415850   4.789   6.911   1.921 -0.2283  0.4964  0.2961
   79MOL    C9515851   4.706   7.020   1.858  0.2066 -0.3083 -0.4531
   79MOL    H9615852   4.796   6.697   1.978  0.8089 -0.3128 -1.7750
   79MOL    H9715853   4.634   6.780   1.993  1.2797  2.2024  1.9861
   79MOL    H9815854   4.814   6.942   2.022  0.4308  1.3722 -0.1297
   79MOL    H9915855   4.882   6.916   1.865 -0.0564 -0.8408  0.4486
   79MOL   H10015856   4.602   7.019   1.893  0.0580 -0.7784 -0.9015
   79MOL   H10115857   4.701   6.995   1.752 -1.5334  0.9732 -0.6887
   79MOL   O10215858   4.765   7.149   1.893  0.2688 -0.0362 -0.2686
   79MOL   C10315859   4.764   7.244   1.784 -0.1960 -0.0712 -0.8624
   79MOL   C10415860   4.845   7.368   1.831 -0.4030  0.5022 -0.3771
   79MOL   C10515861   4.824   7.502   1.753 -0.5866 -0.4193 -0.0355
   79MOL   H10615862   4.662   7.262   1.749 -0.6322  0.0028  0.4335
   79MOL   H10715863   4.808   7.201   1.694 -0.6600  1.0747 -1.6450
   79MOL   H10815864   4.816   7.383   1.935 -1.8940 -2.1735 -0.3599
   79MOL   H10915865   4.950   7.337   1.823 -1.0110 -1.8697  0.5340
   79MOL   H11015866   4.720   7.527   1.771 -0.5316 -1.6774  2.4141
   79MOL   H11115867   4.842   7.495   1.646  0.3052 -0.4716  0.1092
   79MOL   O11215868   4.902   7.604   1.816 -0.0296  0.3305  0.4183
   79MOL   C11315869   4.963   7.695   1.718 -0.0676 -0.3606  0.1864
   79MOL   C11415870   5.094   7.647   1.664  0.3167  0.2674  0.9370
   79MOL   C11515871   5.202   7.616   1.770 -0.3024 -0.1994 -0.2478
   79MOL   H11615872   4.979   7.782   1.782  0.3082 -1.5017  1.6650
   79MOL   H11715873   4.889   7.725   1.644  0.4817 -1.6429 -0.9045
   79MOL   H11815874   5.071   7.559   1.604  2.2597  1.4667 -1.6712
   79MOL   H11915875   5.130   7.716   1.587 -0.3727  0.7885  1.0771
   79MOL   H12015876   5.165   7.557   1.854  3.3944 -0.3976  1.3718
   79MOL   H12115877   5.238   7.712   1.810  0.4745 -0.5405 -0.1136
   79MOL   O12215878   5.309   7.541   1.708 -0.7815  0.0868 -0.7139
   79MOL   C12315879   5.414   7.533   1.804  0.1676 -0.3725 -0.7721
   79MOL   C12415880   5.502   7.409   1.754 -0.5032 -0.2650  0.3459
   79MOL   C12515881   5.625   7.398   1.839  0.3927 -0.1794  0.2309
   79MOL   H12615882   5.378   7.512   1.904 -1.2375  3.4645 -0.3906
   79MOL   H12715883   5.471   7.626   1.802 -0.7895  0.2179 -1.2027
   79MOL   H12815884   5.437   7.324   1.735  2.1296 -2.1143 -0.7624
   79MOL   H12915885   5.540   7.440   1.656  0.7605  0.6022  1.1013
   79MOL   H13015886   5.593   7.375   1.941  1.1831  1.0054  0.7476
   79MOL   H13115887   5.667   7.496   1.859  1.0454 -0.6969  1.4775
   79MOL   O13215888   5.712   7.295   1.789 -0.1085  0.0580 -0.0950
   79MOL   C13315889   5.839   7.318   1.852  0.2083  0.2453  0.2935
   79MOL   C13415890   5.954   7.242   1.787 -0.2583  0.3039  0.0274
   79MOL   C13515891   6.100   7.270   1.856  0.2353 -0.1363 -0.0073
   79MOL   H13615892   5.825   7.296   1.958  0.0092  2.3890  0.7250
   79MOL   H13715893   5.866   7.423   1.861  0.5268 -0.0112  2.6997
   79MOL   H13815894   5.942   7.135   1.800 -0.7406  0.6768  2.8977
   79MOL   H13915895   5.944   7.265   1.681 -0.1796  1.0060  0.1699
   79MOL   H14015896   6.171   7.196   1.820  2.0378  1.4480  0.2486
   79MOL   H14115897   6.092   7.251   1.963 -0.1705  0.1910  0.0212
   79MOL   O14215898   6.148   7.407   1.834 -0.3548 -0.2340 -0.5337
   79MOL   C14315899   6.277   7.441   1.894  1.1439 -0.1894 -0.3841
   79MOL   C14415900   6.392   7.353   1.833 -0.0370  0.0162  0.3988
   79MOL   C14515901   6.532   7.394   1.887 -0.7197 -0.3241  0.1628
   79MOL   H14615902   6.275   7.429   2.003 -2.4363  1.2113 -0.2170
   79MOL   H14715903   6.283   7.543   1.856 -4.0507  0.1818 -0.5804
   79MOL   H14815904   6.374   7.248   1.856 -0.3130  0.4954  2.5217
   79MOL   H14915905   6.398   7.354   1.725 -0.3338  0.8887  0.3828
   79MOL   H15015906   6.546   7.348   1.985  2.3485  1.2105  0.4910
   79MOL   H15115907   6.543   7.503   1.883  0.6965 -0.5177 -1.7656
   79MOL   O15215908   6.632   7.341   1.801 -0.3736  0.5951  0.7085
   79MOL   C15315909   6.753   7.369   1.859 -0.3491 -0.6972 -0.1034
   79MOL   C15415910   6.865   7.301   1.775 -0.1098 -0.3821 -0.4973
   79MOL   C15515911   7.007   7.347   1.818  0.2438  0.7959 -0.1919
   79MOL   H15615912   6.762   7.329   1.960  0.3745  1.1422  0.5770
   79MOL   H15715913   6.773   7.475   1.843 -0.6483 -0.7864 -1.1032
   79MOL   H15815914   6.860   7.193   1.789 -0.5305 -0.1674  1.0991
   79MOL   H15915915   6.843   7.315   1.669  0.3841 -1.1263 -0.7022
   79MOL   H16015916   7.029   7.304   1.916  0.6314 -2.2420 -1.5598
   79MOL   H16115917   7.017   7.455   1.826  0.1647  0.8430 -0.6995
   79MOL   O16215918   7.091   7.283   1.729  0.3908  0.2885  0.2989
   79MOL   C16315919   7.222   7.333   1.741  0.0184 -0.2611  0.3991
   79MOL   C16415920   7.331   7.242   1.684 -0.0915  0.7808 -0.5878
   79MOL   C16515921   7.481   7.296   1.707  0.3969  0.3566  0.1808
   79MOL   H16615922   7.257   7.329   1.845  0.1600 -1.4194  0.3137
   79MOL   H16715923   7.237   7.432   1.697 -1.0425 -0.7556 -1.0827
   79MOL   H16815924   7.342   7.143   1.727 -2.0678 -0.1181 -2.0915
   79MOL   H16915925   7.321   7.216   1.579  1.9495 -0.5612 -0.4817
   79MOL   H17015926   7.485   7.403   1.687 -1.7909  0.4141 -0.0961
   79MOL   H17115927   7.549   7.253   1.634  1.1943 -1.5673  2.0023
   79MOL   O17215928   7.511   7.264   1.839 -0.2245 -0.1757 -0.3850
   79MOL   C17315929   7.649   7.241   1.852 -0.0420  0.0372 -0.1943
   79MOL   C17415930   7.668   7.154   1.972 -0.3818 -0.0787 -0.2600
   79MOL   C17515931   0.027   7.141   2.017 -0.7595  0.2500 -0.3222
   79MOL   H17615932   7.703   7.336   1.848  0.7623 -0.3556  1.4353
   79MOL   H17715933   7.692   7.189   1.767 -0.4136 -0.3313 -0.1564
   79MOL   H17815934   7.602   7.189   2.051 -1.0425 -1.1885 -0.3050
   79MOL   H17915935   7.628   7.062   1.929 -1.5721  0.4965 -0.3935
   79MOL   H18015936   0.064   7.233   2.061 -0.6388  0.2911 -0.5080
   79MOL   H18115937   0.086   7.120   1.928  1.3807 -0.1024  1.1356
   79MOL   O18215938   0.036   7.030   2.104  0.5247  0.2484 -0.0087
   79MOL   C18315939   0.157   7.022   2.178  0.1536 -0.2347  0.7211
   79MOL   C18415940   0.133   6.920   2.287  0.4230 -0.4125 -0.8272
   79MOL   C18515941   0.115   6.778   2.229  0.3249 -0.2525  0.6133
   79MOL   H18615942   0.202   7.112   2.220 -1.8056  0.5807  1.1537
   79MOL   H18715943   0.239   6.993   2.112 -0.1223 -1.7539  1.0321
   79MOL   H18815944   0.215   6.923   2.359 -1.5434  0.3307  1.4456
   79MOL   H18915945   0.043   6.945   2.343  1.0128  0.6565 -0.3516
   79MOL   H19015946   0.204   6.759   2.169 -0.7589 -1.4392 -0.6658
   79MOL   H19115947   0.031   6.778   2.159 -1.8982 -0.8661  3.1927
   79MOL   O19215948   0.101   6.671   2.321 -0.3176 -0.2511 -0.4344
   79MOL   C19315949   7.759   6.658   2.373 -0.5498 -0.1733  0.1569
   79MOL   C19415950   7.750   6.533   2.464 -0.9873 -0.7331 -0.0387
   79MOL   C19515951   7.607   6.488   2.501  0.3406  0.0853  1.0238
   79MOL   H19615952   7.674   6.672   2.306 -2.1611  0.0958  2.2087
   79MOL   H19715953   7.745   6.747   2.434 -1.1505  1.0529 -1.7157
   79MOL   H19815954   0.015   6.451   2.416  1.1096  0.1247  0.7976
   79MOL   H19915955   0.008   6.558   2.560  2.9381  0.1015 -2.0522
   79MOL   H20015956   7.616   6.405   2.571  0.3440 -0.0326  0.8824
   79MOL   H20115957   7.566   6.441   2.412  1.8103 -0.6184  0.7007
   79MOL   H20215958   7.547   6.571   2.540 -0.6546 -0.1229 -0.0240
   80MOL     O115959   4.915   6.414   3.948  0.2236 -0.2117  1.1336
   80MOL     C215960   4.787   6.424   4.003  0.4526 -0.0105  0.1521
   80MOL     C315961   4.805   6.428   4.151 -0.4993 -0.1608  0.1656
   80MOL     C415962   4.892   6.550   4.197 -0.4754 -0.6274 -0.6472
   80MOL     H515963   4.713   6.351   3.971  1.0453 -0.2857 -0.6095
   80MOL     H615964   4.749   6.521   3.972 -1.7494 -0.6480  0.7553
   80MOL     H715965   4.710   6.440   4.203  1.2111 -0.3440  3.4470
   80MOL     H815966   4.840   6.334   4.193  1.2432  2.0741  3.9639
   80MOL     H915967   4.862   6.647   4.155 -1.0998 -0.2309  0.7073
   80MOL    H1015968   4.998   6.553   4.173 -0.2151 -2.2725  0.3028
   80MOL    H1115969   4.937   6.322   3.941  0.6620 -0.0342 -0.0270
   80MOL    O1215970   4.875   6.562   4.340  0.9349  0.3869 -0.7386
   80MOL    C1315971   4.858   6.690   4.393 -0.4135 -0.1148 -0.3209
   80MOL    C1415972   4.789   6.670   4.525  0.3987 -0.4015 -0.6044
   80MOL    C1515973   4.644   6.628   4.525  0.6302  0.0299  0.2404
   80MOL    H1615974   4.800   6.751   4.324 -0.3167  1.1263  0.6760
   80MOL    H1715975   4.957   6.735   4.402 -1.1499  1.3447  0.6112
   80MOL    H1815976   4.840   6.603   4.594  0.4346 -0.8387 -1.0498
   80MOL    H1915977   4.803   6.765   4.576  2.1017 -0.0114 -1.7602
   80MOL    H2015978   4.642   6.549   4.449 -1.1719  1.4084 -1.2100
   80MOL    H2115979   4.580   6.705   4.483 -0.2824  0.7734  2.9077
   80MOL    O2215980   4.603   6.586   4.656 -0.2979 -0.0235 -0.2491
   80MOL    C2315981   4.472   6.528   4.660  0.3421 -0.0327 -0.1437
   80MOL    C2415982   4.460   6.380   4.592 -0.1286 -0.9252 -0.3193
   80MOL    C2515983   4.516   6.270   4.681  0.3551  0.5269  0.9368
   80MOL    H2615984   4.397   6.593   4.615  1.3743  1.7597  0.6677
   80MOL    H2715985   4.436   6.522   4.763  1.0602 -0.4176  0.0916
   80MOL    H2815986   4.359   6.354   4.561 -0.4090 -1.3584  0.9234
   80MOL    H2915987   4.521   6.371   4.503  1.9128 -1.2789  1.0758
   80MOL    H3015988   4.496   6.289   4.786  1.4382  3.9291  0.5774
   80MOL    H3115989   4.625   6.265   4.673  0.2182  1.9313 -2.7582
   80MOL    O3215990   4.448   6.148   4.642 -0.0466  0.2247 -0.3403
   80MOL    C3315991   4.539   6.040   4.618 -0.0605 -0.4146  0.3779
   80MOL    C3415992   4.460   5.914   4.581 -0.0709 -0.3975  0.6259
   80MOL    C3515993   4.426   5.830   4.708  0.4039  0.4552 -0.5873
   80MOL    H3615994   4.601   6.019   4.705  0.3081  1.7896  0.6618
   80MOL    H3715995   4.612   6.060   4.539  1.5462 -1.2822  1.6266
   80MOL    H3815996   4.365   5.938   4.532 -0.3290 -0.1769  1.2249
   80MOL    H3915997   4.512   5.847   4.513  1.6727 -0.8183  2.3250
   80MOL    H4015998   4.379   5.897   4.780 -1.9914  0.2921 -1.9876
   80MOL    H4115999   4.510   5.795   4.769 -0.4994  0.3922  0.6357
   80MOL    O4216000   4.347   5.710   4.683  0.2367 -0.3815 -0.1390
   80MOL    C4316001   4.264   5.672   4.792  0.0126  0.6808 -0.0119
   80MOL    C4416002   4.174   5.552   4.751  0.2338  0.7453  0.5512
   80MOL    C4516003   4.090   5.483   4.857  0.2259 -0.2182  0.0548
   80MOL    H4616004   4.192   5.751   4.812 -2.5383 -0.8581 -2.5789
   80MOL    H4716005   4.319   5.672   4.886 -0.2595  2.7778  0.1797
   80MOL    H4816006   4.110   5.591   4.672 -0.2738  0.3456  0.7584
   80MOL    H4916007   4.244   5.480   4.708  0.2130  0.8686  0.3101
   80MOL    H5016008   4.001   5.439   4.813 -0.2526  2.2045 -1.4941
   80MOL    H5116009   4.051   5.572   4.906  0.9626  0.8761 -1.2965
   80MOL    O5216010   4.163   5.399   4.949  0.4707  0.2856  0.2929
   80MOL    C5316011   4.108   5.388   5.078 -0.2402  0.1438  0.5731
   80MOL    C5416012   4.142   5.518   5.151 -0.9133 -0.9824  0.5019
   80MOL    C5516013   4.289   5.533   5.195  0.0499 -0.0568  0.0695
   80MOL    H5616014   4.166   5.313   5.132  1.7855  1.4614  0.2671
   80MOL    H5716015   4.003   5.363   5.065  0.3732 -1.1828 -2.3041
   80MOL    H5816016   4.102   5.611   5.110 -1.9930 -1.3685  0.6688
   80MOL    H5916017   4.096   5.518   5.249 -2.0326 -3.5756  0.0197
   80MOL    H6016018   4.348   5.548   5.104 -0.7281 -0.7765 -0.5554
   80MOL    H6116019   4.323   5.443   5.247  1.8649 -0.2122 -1.3134
   80MOL    O6216020   4.313   5.644   5.279  0.7414  0.2944 -0.3317
   80MOL    C6316021   4.459   5.669   5.290 -0.4821 -0.3964  0.3061
   80MOL    C6416022   4.518   5.749   5.174  0.6177  0.0660  0.2625
   80MOL    C6516023   4.657   5.791   5.193 -0.5553  0.5148 -0.4560
   80MOL    H6616024   4.522   5.581   5.302  1.3621  0.8650  0.0194
   80MOL    H6716025   4.472   5.717   5.387  0.0458  1.3409 -0.6117
   80MOL    H6816026   4.519   5.686   5.085  0.1864 -1.9938  1.6900
   80MOL    H6916027   4.457   5.837   5.158  0.1055 -0.1290  1.1433
   80MOL    H7016028   4.718   5.701   5.190  1.3516  1.8280 -2.5301
   80MOL    H7116029   4.667   5.832   5.294  0.7371  0.7133 -0.6574
   80MOL    O7216030   4.701   5.881   5.087  0.0645 -0.3269  0.0869
   80MOL    C7316031   4.670   6.020   5.112 -0.5471 -0.9107 -0.0190
   80MOL    C7416032   4.749   6.106   5.017 -0.1559 -0.2102  0.0280
   80MOL    C7516033   4.698   6.249   5.031  0.1144  0.4844  0.1455
   80MOL    H7616034   4.700   6.048   5.213  0.6273  0.5329 -0.7544
   80MOL    H7716035   4.566   6.027   5.081  0.1450 -0.5094 -2.3511
   80MOL    H7816036   4.851   6.090   5.050 -0.0573  0.7617  0.2255
   80MOL    H7916037   4.732   6.068   4.916  0.1077 -1.1000  0.3176
   80MOL    H8016038   4.706   6.280   5.135 -0.5279 -1.1445  0.6921
   80MOL    H8116039   4.594   6.253   4.999  0.0382 -0.5905  0.2367
   80MOL    O8216040   4.770   6.345   4.955  0.3881  0.6280 -0.1240
   80MOL    C8316041   4.745   6.488   4.984  0.0308 -0.1997 -0.3230
   80MOL    C8416042   4.848   6.559   4.897  0.4561  0.4755 -0.4273
   80MOL    C8516043   4.838   6.709   4.886  0.2531 -0.0635 -0.0399
   80MOL    H8616044   4.755   6.505   5.092 -2.4286 -3.7299  0.5454
   80MOL    H8716045   4.645   6.524   4.958 -0.3592 -0.8128  0.3053
   80MOL    H8816046   4.937   6.527   4.953 -0.3751  0.4052  0.8725
   80MOL    H8916047   4.849   6.507   4.801  0.4369 -1.3018  0.5119
   80MOL    H9016048   4.842   6.742   4.990 -0.3084  0.0994 -0.0703
   80MOL    H9116049   4.741   6.729   4.842 -0.3015 -1.2252  0.6423
   80MOL    O9216050   4.950   6.762   4.812  0.4301 -0.0955  0.5195
   80MOL    C9316051   4.967   6.907   4.822  1.4197  0.4300 -0.9756
   80MOL    C9416052   5.094   6.963   4.766 -0.9881  0.2567  0.3219
   80MOL    C9516053   5.108   7.113   4.798  0.4876  0.4547 -0.5008
   80MOL    H9616054   4.959   6.946   4.923  1.1033 -1.2797 -0.3216
   80MOL    H9716055   4.887   6.952   4.762 -0.0297  1.0109  1.3453
   80MOL    H9816056   5.173   6.898   4.802  0.1598  1.8948  0.8509
   80MOL    H9916057   5.101   6.951   4.658  1.3874 -1.5682  0.6468
   80MOL   H10016058   5.128   7.138   4.902  0.5417 -0.3630 -0.3150
   80MOL   H10116059   5.033   7.184   4.763 -0.3675 -0.4218 -0.4770
   80MOL   O10216060   5.226   7.150   4.724 -0.5608 -0.5222 -0.2911
   80MOL   C10316061   5.271   7.285   4.744  0.0016  0.5961  0.0168
   80MOL   C10416062   5.412   7.287   4.684  0.1363 -0.0603  0.0403
   80MOL   C10516063   5.468   7.427   4.682  0.3118 -0.5517 -0.0711
   80MOL   H10616064   5.295   7.304   4.849  1.9764  2.5630 -0.7538
   80MOL   H10716065   5.198   7.362   4.717 -0.2661  0.3988  0.1683
   80MOL   H10816066   5.480   7.211   4.722  0.0190 -0.1315  0.1101
   80MOL   H10916067   5.404   7.266   4.577  0.5755  1.4839 -0.3037
   80MOL   H11016068   5.569   7.421   4.641 -0.0954 -0.1506 -1.1362
   80MOL   H11116069   5.464   7.475   4.779  2.1159  0.0255 -0.2583
   80MOL   O11216070   5.393   7.511   4.603 -0.0700  0.0952 -0.3185
   80MOL   C11316071   5.454   7.634   4.565 -0.1540 -0.6138 -0.0120
   80MOL   C11416072   5.461   7.742   4.671 -0.3178  0.5398 -0.0799
   80MOL   C11516073   5.336   7.774   4.751 -0.4491  0.3381  0.1548
   80MOL   H11616074   5.405   7.671   4.475 -2.0447 -1.5087  0.6109
   80MOL   H11716075   5.556   7.613   4.532 -0.1754  2.1614 -2.0147
   80MOL   H11816076   5.539   7.709   4.740 -1.9916  1.5432  2.3547
   80MOL   H11916077   5.494   0.046   4.626  2.2644  0.8625  2.3103
   80MOL   H12016078   5.303   7.676   4.785  0.1149  0.1613  0.1986
   80MOL   H12116079   5.255   0.028   4.691 -2.4850  1.5998  3.6685
   80MOL   O12216080   5.374   0.086   4.847 -0.0617  0.4368 -0.9629
   80MOL   C12316081   5.267   0.146   4.917  0.2056  0.3479  0.0082
   80MOL   C12416082   5.334   0.261   4.984 -0.3252 -0.2089  0.8334
   80MOL   C12516083   5.240   0.351   5.067  0.2423  0.3171  0.5053
   80MOL   H12616084   5.217   0.073   4.980 -0.7686  1.3139  0.3894
   80MOL   H12716085   5.193   0.185   4.846  0.4701  2.3209  0.7737
   80MOL   H12816086   5.418   0.219   5.040 -0.7700 -1.1615  0.8076
   80MOL   H12916087   5.370   0.333   4.911  1.3312 -1.7774  0.0537
   80MOL   H13016088   5.211   0.314   5.165  0.0467  0.8053  0.6347
   80MOL   H13116089   5.152   0.356   5.003  2.0263  0.2086 -2.0085
   80MOL   O13216090   5.280   0.487   5.073 -0.1969 -0.7417 -0.2735
   80MOL   C13316091   5.373   0.516   5.178  0.3466 -0.4319 -0.1090
   80MOL   C13416092   5.354   0.663   5.210 -0.1173 -0.5448  0.4066
   80MOL   C13516093   5.381   0.765   5.098 -0.0219  0.2970 -0.0114
   80MOL   H13616094   5.475   0.494   5.149  0.5372 -0.0805  0.2939
   80MOL   H13716095   5.345   0.451   5.261  2.3402 -2.0200 -0.6463
   80MOL   H13816096   5.253   0.688   5.245 -0.0931  0.1121  0.0125
   80MOL   H13916097   5.428   0.698   5.283 -0.3988  0.2273  0.3321
   80MOL   H14016098   5.332   0.861   5.118  1.3510  0.9513  0.2766
   80MOL   H14116099   5.362   0.733   4.996 -0.7368 -0.6376  0.4067
   80MOL   O14216100   5.523   0.795   5.096  0.7406  0.0812 -0.2107
   80MOL   C14316101   5.578   0.872   4.997 -0.3915  0.1034  0.8597
   80MOL   C14416102   5.713   0.912   5.038 -0.2616 -0.1416  0.5579
   80MOL   C14516103   5.789   0.994   4.932  0.2894 -0.0715 -0.5691
   80MOL   H14616104   5.518   0.959   4.970  1.1318  0.8906 -0.0409
   80MOL   H14716105   5.593   0.807   4.911  1.6219 -0.2380  1.4425
   80MOL   H14816106   5.705   0.978   5.125  0.0636 -0.9857  1.2332
   80MOL   H14916107   5.772   0.826   5.069 -0.4463 -1.1599 -1.7770
   80MOL   H15016108   5.714   1.067   4.901  0.1777  0.3176  0.5864
   80MOL   H15116109   5.805   0.931   4.845 -0.8363  2.1345 -2.4275
   80MOL   O15216110   5.895   1.066   4.990 -0.2051 -0.1827 -0.6786
   80MOL   C15316111   5.977   1.122   4.884  0.1916  0.2124  0.6421
   80MOL   C15416112   6.114   1.166   4.945 -0.4660 -0.0741  0.2840
   80MOL   C15516113   6.217   1.238   4.852  0.0591 -0.3360 -0.3015
   80MOL   H15616114   5.925   1.201   4.829 -1.3416 -1.6725 -0.7130
   80MOL   H15716115   6.003   1.040   4.816  1.4322  0.0666  1.2771
   80MOL   H15816116   6.107   1.233   5.031 -0.9324  1.3477 -0.8379
   80MOL   H15916117   6.160   1.077   4.988 -0.9633 -1.9811 -2.9561
   80MOL   H16016118   6.165   1.330   4.825  0.1551  0.7082  2.8864
   80MOL   H16116119   6.237   1.179   4.763 -3.0675 -2.3976  0.2834
   80MOL   O16216120   6.338   1.275   4.929 -0.0060 -0.0167  0.2132
   80MOL   C16316121   6.442   1.343   4.853  0.3340  0.4361  0.4663
   80MOL   C16416122   6.585   1.337   4.920 -0.1607  0.0002  0.1296
   80MOL   C16516123   6.591   1.386   5.059 -0.0413  0.4253  0.2942
   80MOL   H16616124   6.402   1.438   4.818  1.3455  0.3871 -0.8884
   80MOL   H16716125   6.444   1.282   4.762 -0.4213  0.5910  0.3455
   80MOL   H16816126   6.619   1.234   4.909 -2.0228 -0.9636  2.8110
   80MOL   H16916127   6.648   1.401   4.858 -2.1359  1.5155 -0.3818
   80MOL   H17016128   6.572   1.310   5.135 -0.7020  1.3569  1.0757
   80MOL   H17116129   6.513   1.459   5.076 -1.0494 -0.7200  0.6385
   80MOL   O17216130   6.719   1.442   5.085 -0.0041 -0.3600 -0.2352
   80MOL   C17316131   6.740   1.488   5.218  0.2574 -0.2330 -1.0906
   80MOL   C17416132   6.834   1.604   5.215  0.0570  0.0242 -1.1639
   80MOL   C17516133   6.870   1.651   5.360  0.4200  0.0581 -0.6389
   80MOL   H17616134   6.779   1.411   5.285  0.6695 -0.0601 -1.1332
   80MOL   H17716135   6.646   1.516   5.266  1.0739  0.8007 -0.0919
   80MOL   H17816136   6.929   1.562   5.181  1.0981  1.2451  0.1669
   80MOL   H17916137   6.802   1.683   5.148  0.2672  1.0008 -0.1390
   80MOL   H18016138   6.951   1.724   5.356 -0.4244  1.1831  1.8446
   80MOL   H18116139   6.915   1.568   5.413 -0.7549 -0.7745 -0.9246
   80MOL   O18216140   6.764   1.715   5.435  0.1487 -0.6403  0.3996
   80MOL   C18316141   6.799   1.749   5.565 -0.3790 -0.4636  1.0133
   80MOL   C18416142   6.715   1.874   5.606 -0.1871  0.0553  0.0608
   80MOL   C18516143   6.759   1.930   5.748 -0.2179  0.5073 -0.1516
   80MOL   H18616144   6.905   1.773   5.564 -0.4687 -0.0743 -1.0853
   80MOL   H18716145   6.779   1.659   5.623  1.8623 -1.4886  0.2427
   80MOL   H18816146   6.738   1.955   5.537 -2.1017  0.8036  0.2442
   80MOL   H18916147   6.609   1.847   5.596  0.3059 -1.6830 -0.6485
   80MOL   H19016148   6.852   1.986   5.742 -0.7226  1.3670  0.0114
   80MOL   H19116149   6.754   1.854   5.826  2.3934  0.5879  0.1339
   80MOL   O19216150   6.671   2.036   5.784 -0.2543  0.3850 -0.1323
   80MOL   C19316151   6.710   2.108   5.901  0.0211 -0.4277  0.5281
   80MOL   C19416152   6.654   2.035   6.025  0.1406  0.2844 -0.2246
   80MOL   C19516153   6.501   2.043   6.031  0.8909 -0.2721  0.0916
   80MOL   H19616154   6.686   2.214   5.894 -1.3773 -0.8822 -1.9932
   80MOL   H19716155   6.817   2.106   5.921  0.2043  2.5279  0.1874
   80MOL   H19816156   6.684   1.930   6.024 -1.4669 -0.1900  0.0825
   80MOL   H19916157   6.700   2.091   6.107  0.1887 -0.7518  0.4699
   80MOL   H20016158   6.452   1.979   5.958 -0.2244  0.3775  0.2584
   80MOL   H20116159   6.461   2.144   6.026 -0.0841 -0.5362  2.0789
   80MOL   H20216160   6.459   2.010   6.126 -1.5404 -1.0696 -1.2312
   81MOL     O116161   6.430   3.479   0.502 -0.5250  0.1679 -0.2313
   81MOL     C216162   6.521   3.428   0.407  0.1133  0.1651  0.4766
   81MOL     C316163   6.671   3.444   0.455  0.1288  0.4410 -0.5502
   81MOL     C416164   6.772   3.407   0.351 -0.1630  0.5978 -0.0205
   81MOL     H516165   6.507   3.475   0.310  0.1700 -0.5870  0.0964
   81MOL     H616166   6.507   3.323   0.381 -2.1547  0.6338 -0.3187
   81MOL     H716167   6.673   3.549   0.483  0.2534  0.1828  0.4383
   81MOL     H816168   6.697   3.381   0.541  0.0064 -0.1516 -0.9455
   81MOL     H916169   6.770   3.486   0.275 -1.5236  0.3939 -0.2102
   81MOL    H1016170   6.760   3.308   0.308 -1.6197  0.0663  1.5689
   81MOL    H1116171   6.421   3.410   0.567 -0.0855 -0.8806 -1.2762
   81MOL    O1216172   6.890   3.387   0.431  0.4969 -0.8961  0.1067
   81MOL    C1316173   7.000   3.345   0.355  0.3333  1.0261  0.5731
   81MOL    C1416174   7.117   3.308   0.445  0.9119 -0.1888  0.5393
   81MOL    C1516175   7.169   3.428   0.512  0.5124  0.0374 -0.0313
   81MOL    H1616176   7.019   3.420   0.278 -0.7327  0.8592  0.1370
   81MOL    H1716177   6.969   3.254   0.303  0.6956  1.2749 -0.0874
   81MOL    H1816178   7.077   3.250   0.528 -1.3365  1.2764  0.5391
   81MOL    H1916179   7.187   3.249   0.386  0.3154 -0.8609  0.4860
   81MOL    H2016180   7.088   3.466   0.574 -1.6558  0.3024 -2.8899
   81MOL    H2116181   7.206   3.505   0.443  2.7053 -0.1645  0.8647
   81MOL    O2216182   7.279   3.385   0.596  0.2376  0.2796 -0.2747
   81MOL    C2316183   7.304   3.466   0.713  0.3074  0.5474 -0.8783
   81MOL    C2416184   7.365   3.603   0.682  0.3183  0.0299  0.7064
   81MOL    C2516185   7.380   3.705   0.799  0.9848 -0.1587 -0.1844
   81MOL    H2616186   7.385   3.414   0.765 -1.8165 -0.5311  1.4068
   81MOL    H2716187   7.216   3.479   0.775  0.4675  0.4383 -0.6280
   81MOL    H2816188   7.462   3.582   0.637 -0.9106 -1.3341 -1.3923
   81MOL    H2916189   7.310   3.652   0.601  1.3354 -1.3527 -0.8713
   81MOL    H3016190   7.456   3.679   0.873  0.7138 -0.6211 -0.0665
   81MOL    H3116191   7.288   3.727   0.853  1.7552 -0.3932  1.2386
   81MOL    O3216192   7.437   3.826   0.755 -0.4919  0.2047 -0.4164
   81MOL    C3316193   7.364   3.910   0.669  0.0598  0.7796  0.2477
   81MOL    C3416194   7.395   4.057   0.710  0.0811  1.0933 -0.1526
   81MOL    C3516195   7.305   4.157   0.649  0.5385 -0.7187 -0.3817
   81MOL    H3616196   7.262   3.872   0.670  0.8573 -1.4606  0.0710
   81MOL    H3716197   7.399   3.899   0.566  0.9089  0.7286  0.5340
   81MOL    H3816198   7.381   4.075   0.817  2.0298 -1.1113  0.5199
   81MOL    H3916199   7.501   4.080   0.695  0.3093  1.6636  2.0485
   81MOL    H4016200   7.310   4.248   0.708  1.0316 -0.8290 -0.2584
   81MOL    H4116201   7.199   4.132   0.663  0.5298  0.4786  1.9118
   81MOL    O4216202   7.349   4.160   0.512  0.4462  0.4083  0.8343
   81MOL    C4316203   7.296   4.267   0.437  0.4581 -0.2018 -0.1970
   81MOL    C4416204   7.355   4.268   0.297  0.2869  0.7277  0.3733
   81MOL    C4516205   7.292   4.156   0.215 -0.1650  0.0727 -0.0549
   81MOL    H4616206   7.333   4.360   0.479 -0.7055 -0.1180  0.6623
   81MOL    H4716207   7.187   4.273   0.435  0.3832 -1.5963 -0.8229
   81MOL    H4816208   7.344   4.362   0.243  1.8821  1.3934  1.1741
   81MOL    H4916209   7.464   4.263   0.305  0.2765 -1.3108 -0.3539
   81MOL    H5016210   7.185   4.178   0.216  0.0194  1.0435 -0.7529
   81MOL    H5116211   7.302   4.064   0.272 -4.1044  0.0826  0.8234
   81MOL    O5216212   7.347   4.148   0.082 -0.0200 -0.1030 -0.6786
   81MOL    C5316213   7.306   4.257   0.008 -0.6837 -0.8463 -0.0474
   81MOL    C5416214   7.210   4.210   7.687 -0.2182 -0.5514 -1.3828
   81MOL    C5516215   7.156   4.303   7.580  0.4617 -0.6916 -0.7005
   81MOL    H5616216   7.392   4.310   7.755 -0.9050  1.3375  2.1702
   81MOL    H5716217   7.251   4.331   0.066 -1.1733  0.7472 -2.4649
   81MOL    H5816218   7.266   4.131   7.638  1.1264 -0.2919 -0.2996
   81MOL    H5916219   7.121   4.168   7.734  1.4644 -2.5374  0.0752
   81MOL    H6016220   7.239   4.339   7.520 -0.4997  2.2865 -0.3179
   81MOL    H6116221   7.108   4.390   7.626 -0.6093 -1.8868  0.5170
   81MOL    O6216222   7.066   4.228   7.504 -0.0375 -0.2037  0.9140
   81MOL    C6316223   6.929   4.265   7.522  0.3429 -0.0635 -0.0688
   81MOL    C6416224   6.848   4.154   7.469 -0.1262 -0.2147  0.6567
   81MOL    C6516225   6.698   4.154   7.506  0.2202 -0.0831 -0.6035
   81MOL    H6616226   6.904   4.353   7.463 -0.8178  0.8298  1.7227
   81MOL    H6716227   6.917   4.290   7.627  1.7597 -2.1115  0.6167
   81MOL    H6816228   6.859   4.160   7.361 -0.7887 -2.0926  0.4704
   81MOL    H6916229   6.895   4.065   7.512 -1.8658 -1.7582 -0.5667
   81MOL    H7016230   6.645   4.244   7.476 -0.1738  0.8197  2.6414
   81MOL    H7116231   6.686   4.140   7.613 -2.9241 -1.9021 -1.1342
   81MOL    O7216232   6.650   4.036   7.453 -0.3176  0.2505 -0.0940
   81MOL    C7316233   6.506   4.010   7.478  0.3787  0.8273  0.0975
   81MOL    C7416234   6.472   3.886   7.393  0.1443  0.2373  0.4960
   81MOL    C7516235   6.493   3.744   7.456  0.7611 -0.1920  0.0506
   81MOL    H7616236   6.442   4.094   7.453 -0.2676  0.4365  0.4305
   81MOL    H7716237   6.487   3.982   7.581  1.9152  1.7501  0.6392
   81MOL    H7816238   6.368   3.891   7.362 -0.0560  2.7857  1.3973
   81MOL    H7916239   6.532   3.891   7.302  1.1657  0.9127  1.1862
   81MOL    H8016240   6.414   3.719   7.526  2.1216 -4.2694  0.2522
   81MOL    H8116241   6.595   3.741   7.496 -0.2841  0.0607  2.8148
   81MOL    O8216242   6.492   3.650   7.347  0.5106  0.1747 -1.0372
   81MOL    C8316243   6.483   3.518   7.401  0.2247  0.0724 -0.6345
   81MOL    C8416244   6.477   3.411   7.292  0.2609  0.3503 -0.5814
   81MOL    C8516245   6.350   3.407   7.200  0.9583  0.2269 -0.1731
   81MOL    H8616246   6.394   3.514   7.464  0.6820  2.5627  0.2100
   81MOL    H8716247   6.570   3.490   7.462 -0.0299  0.4105 -0.1125
   81MOL    H8816248   6.559   3.431   7.222  0.3576  1.8615 -0.0699
   81MOL    H8916249   6.499   3.313   7.333 -1.3557  0.8743  1.5983
   81MOL    H9016250   6.345   3.506   7.154  2.1953  0.8277  0.9530
   81MOL    H9116251   6.257   3.385   7.254  0.4719  1.1810 -0.6025
   81MOL    O9216252   6.360   3.298   7.113  0.0406 -0.0573 -0.4584
   81MOL    C9316253   6.253   3.294   7.018  0.8485  0.3345 -0.6458
   81MOL    C9416254   6.272   3.398   6.903  0.4306 -0.4474 -0.7294
   81MOL    C9516255   6.411   3.387   6.842 -0.3587  0.0984 -0.1069
   81MOL    H9616256   6.157   3.309   7.067  0.6567  0.9364 -1.1965
   81MOL    H9716257   6.251   3.192   6.980 -3.1915  0.2599 -0.4187
   81MOL    H9816258   6.190   3.392   6.832  1.3323  0.4538 -1.8658
   81MOL    H9916259   6.262   3.501   6.940  2.5197 -0.5644  0.2371
   81MOL   H10016260   6.418   3.288   6.795  1.9953 -0.1273  0.6779
   81MOL   H10116261   6.487   3.386   6.920  0.8734 -0.2563 -1.2795
   81MOL   O10216262   6.448   3.496   6.761  0.1420  0.4581 -0.2099
   81MOL   C10316263   6.593   3.501   6.734  0.1544  0.4655 -0.0241
   81MOL   C10416264   6.628   3.650   6.712  0.5990  0.3795  0.4872
   81MOL   C10516265   6.606   3.745   6.828  0.4207  0.4671 -0.2533
   81MOL   H10616266   6.625   3.442   6.649 -1.2476  1.0436 -0.9754
   81MOL   H10716267   6.650   3.456   6.815 -2.6550  1.1249  2.4150
   81MOL   H10816268   6.732   3.661   6.679  1.4768 -0.7513  2.7113
   81MOL   H10916269   6.565   3.683   6.630 -1.1718 -2.6056  0.6004
   81MOL   H11016270   6.663   3.699   6.908  0.5021 -0.9994 -1.1343
   81MOL   H11116271   6.504   3.764   6.863 -0.5486 -3.2704 -0.8833
   81MOL   O11216272   6.661   3.873   6.795 -0.0333 -0.1623  0.1391
   81MOL   C11316273   6.614   3.981   6.879 -0.1554  0.4621  0.0862
   81MOL   C11416274   6.666   4.122   6.828 -0.0082  0.3838 -0.0297
   81MOL   C11516275   6.621   4.137   6.676 -0.0696 -0.4734  0.5815
   81MOL   H11616276   6.651   3.962   6.979 -0.9582  1.4346  0.5813
   81MOL   H11716277   6.505   3.975   6.883 -0.1797  1.7408  2.8299
   81MOL   H11816278   6.634   4.204   6.892  1.3040 -0.4086  1.7194
   81MOL   H11916279   6.775   4.121   6.824 -0.0329  1.1018 -0.8034
   81MOL   H12016280   6.518   4.171   6.673 -0.3823 -1.1014  3.3669
   81MOL   H12116281   6.638   4.049   6.615  1.0303 -0.5766  1.0167
   81MOL   O12216282   6.693   4.253   6.621  0.1249  0.2487 -0.2449
   81MOL   C12316283   6.629   4.313   6.505  0.3346  0.6866 -0.5793
   81MOL   C12416284   6.731   4.413   6.445  0.2624  0.4365  0.4747
   81MOL   C12516285   6.682   4.494   6.324  0.0238 -0.2739  0.3333
   81MOL   H12616286   6.537   4.364   6.537  0.9200 -0.2461  2.7409
   81MOL   H12716287   6.613   4.238   6.428 -3.3522  0.1429  0.5788
   81MOL   H12816288   6.764   4.481   6.524  1.1084  0.1862  0.3405
   81MOL   H12916289   6.813   4.347   6.418 -1.3417 -2.7090  2.9327
   81MOL   H13016290   6.588   4.548   6.337 -0.4520 -1.0307  0.0499
   81MOL   H13116291   6.662   4.426   6.242  0.2387 -0.4922  0.4601
   81MOL   O13216292   6.791   4.588   6.273 -0.0495 -0.7904  0.0431
   81MOL   C13316293   6.746   4.669   6.171 -0.3418 -0.0243  0.6023
   81MOL   C13416294   6.855   4.760   6.112 -0.1904 -0.1785  0.1133
   81MOL   C13516295   6.819   4.845   5.990 -0.0435  0.1310  0.6021
   81MOL   H13616296   6.663   4.722   6.219 -1.9132 -1.6277 -0.3041
   81MOL   H13716297   6.713   4.601   6.093 -1.9458  1.5506 -0.1171
   81MOL   H13816298   6.903   4.821   6.188  0.8259 -0.1315 -0.5547
   81MOL   H13916299   6.928   4.682   6.087 -1.5183 -2.4239  2.8346
   81MOL   H14016300   6.764   4.788   5.915  1.1135  1.0027 -0.9169
   81MOL   H14116301   6.913   4.876   5.946  0.4652 -1.2658  0.6637
   81MOL   O14216302   6.730   4.951   6.034 -0.3135  1.2372  0.0300
   81MOL   C14316303   6.699   5.054   5.938 -0.9222 -0.1922  0.4408
   81MOL   C14416304   6.771   5.185   5.966 -0.0436  0.2344  0.7484
   81MOL   C14516305   6.771   5.282   5.851  0.2871  0.1830 -0.0839
   81MOL   H14616306   6.592   5.074   5.941 -1.2982 -1.8336 -0.8252
   81MOL   H14716307   6.718   5.032   5.833 -1.0470  0.6604  0.2374
   81MOL   H14816308   6.728   5.231   6.055  0.8589 -0.7677  1.7106
   81MOL   H14916309   6.874   5.154   5.982 -0.7402 -1.7568  1.6684
   81MOL   H15016310   6.671   5.286   5.808 -0.0900  0.7529  0.8242
   81MOL   H15116311   6.822   5.238   5.766 -1.3123  0.1103 -1.0282
   81MOL   O15216312   6.825   5.407   5.877  0.5045 -0.0717  0.3111
   81MOL   C15316313   6.743   5.497   5.957  0.6683  0.4070  0.7256
   81MOL   C15416314   6.804   5.641   5.991 -0.4955  0.1498 -0.1312
   81MOL   C15516315   6.717   5.738   6.086  0.3900 -0.3334  0.4605
   81MOL   H15616316   6.748   5.446   6.053 -1.4274 -1.4686 -0.1052
   81MOL   H15716317   6.641   5.509   5.920  1.3466 -1.8617 -2.0898
   81MOL   H15816318   6.906   5.625   6.025 -0.5616  0.7859  0.3701
   81MOL   H15916319   6.811   5.699   5.899 -1.8882  1.3291  0.4865
   81MOL   H16016320   6.630   5.776   6.033  0.2027  2.2709  2.5267
   81MOL   H16116321   6.766   5.831   6.114 -0.4677  0.4793 -0.7397
   81MOL   O16216322   6.664   5.662   6.197  0.1652  0.0336  0.2634
   81MOL   C16316323   6.750   5.623   6.296 -0.4479 -0.4981 -0.1655
   81MOL   C16416324   6.668   5.537   6.398  0.0646  0.0010  0.3039
   81MOL   C16516325   6.745   5.494   6.514  0.0483  0.1708  0.4815
   81MOL   H16616326   6.775   5.711   6.354 -2.3537  0.1379 -0.2585
   81MOL   H16716327   6.836   5.574   6.249  1.0218 -1.3248  3.2600
   81MOL   H16816328   6.585   5.597   6.436 -0.7523 -1.0030  0.1057
   81MOL   H16916329   6.637   5.445   6.348 -2.4584  0.8529  0.2483
   81MOL   H17016330   6.784   5.578   6.570  0.3214  0.2902  0.1131
   81MOL   H17116331   6.823   5.421   6.495 -1.8141 -1.2304 -2.1613
   81MOL   O17216332   6.660   5.415   6.602 -0.6554 -0.1471  0.1417
   81MOL   C17316333   6.708   5.407   6.735  0.7578 -0.2749  0.4177
   81MOL   C17416334   6.595   5.357   6.828 -0.3331  0.1925  0.2332
   81MOL   C17516335   6.538   5.220   6.787  0.3058  0.5607 -0.6421
   81MOL   H17616336   6.746   5.502   6.773 -1.5178  0.2207  1.5631
   81MOL   H17716337   6.783   5.328   6.745 -0.0589 -1.2780 -1.1553
   81MOL   H17816338   6.635   5.364   6.929 -0.9936 -0.2812  0.5279
   81MOL   H17916339   6.513   5.427   6.821 -2.0789 -1.9330 -1.0532
   81MOL   H18016340   6.617   5.145   6.793 -1.1600 -0.8531  1.9292
   81MOL   H18116341   6.517   5.223   6.680  2.5896  1.3268 -1.0984
   81MOL   O18216342   6.427   5.201   6.867 -0.0543  0.0372 -0.1381
   81MOL   C18316343   6.327   5.123   6.804 -0.1803 -0.0037  0.6043
   81MOL   C18416344   6.214   5.098   6.905 -0.0198  0.3377  0.5313
   81MOL   C18516345   6.105   5.006   6.855 -0.0562 -0.5655  0.3075
   81MOL   H18616346   6.366   5.026   6.773 -0.0927  0.0167  0.6522
   81MOL   H18716347   6.287   5.172   6.715  3.0192 -2.9785 -2.6199
   81MOL   H18816348   6.251   5.052   6.997  0.6171 -1.9139 -0.8231
   81MOL   H18916349   6.164   5.194   6.923 -1.1665 -0.2704  0.6339
   81MOL   H19016350   6.070   5.055   6.764  2.6917  1.1362  0.1076
   81MOL   H19116351   6.030   4.994   6.934 -0.3763 -2.6992 -0.2697
   81MOL   O19216352   6.158   4.878   6.822 -0.1275  0.0047  0.2034
   81MOL   C19316353   6.066   4.791   6.747 -0.0312 -0.5156 -1.1199
   81MOL   C19416354   5.950   4.730   6.846 -0.1397  0.3018  0.2290
   81MOL   C19516355   5.986   4.622   6.943 -0.6994 -0.0459  0.1332
   81MOL   H19616356   6.117   4.709   6.696 -2.1177 -3.0299  0.7042
   81MOL   H19716357   6.023   4.847   6.664 -0.7409  2.5745  1.2312
   81MOL   H19816358   5.895   4.809   6.896 -1.0368 -0.3185  0.2302
   81MOL   H19916359   5.871   4.694   6.780 -0.4037 -1.8021  1.6392
   81MOL   H20016360   6.025   4.534   6.890 -1.5593 -0.4099  0.1060
   81MOL   H20116361   5.895   4.591   6.992 -2.0750 -0.4382 -2.5579
   81MOL   H20216362   6.053   4.651   7.024 -0.4254 -1.8358  0.5625
   82MOL     O116363   4.393   1.722   7.526  0.2702 -0.2779 -0.3119
   82MOL     C216364   4.366   1.800   7.632 -0.3364 -0.0975 -0.3533
   82MOL     C316365   4.224   1.760   7.684 -0.2627  0.9642 -0.3259
   82MOL     C416366   4.180   1.843   0.026  0.3177  0.1044  0.1873
   82MOL     H516367   4.366   1.901   7.591  3.0456  0.3126  0.5380
   82MOL     H616368   4.445   1.794   7.707 -0.5698  0.2382 -0.0823
   82MOL     H716369   4.142   1.757   7.613  0.3071 -2.0560 -0.9388
   82MOL     H816370   4.221   1.661   7.729  3.5128  1.0863  0.4102
   82MOL     H916371   4.247   1.825   0.109  0.9769  0.7514 -0.1940
   82MOL    H1016372   4.079   1.810   0.052  0.7632 -3.6475 -2.5195
   82MOL    H1116373   4.467   1.764   7.485 -0.1059  1.8684  1.0884
   82MOL    O1216374   4.163   1.988   0.008  0.2049  0.5270  0.0428
   82MOL    C1316375   4.128   2.051   0.131  0.0290  0.2514 -0.5055
   82MOL    C1416376   4.080   2.195   0.103  0.1100  0.2780 -1.0530
   82MOL    C1516377   4.025   2.259   0.232  0.2048  0.1188 -0.7570
   82MOL    H1616378   4.208   2.045   0.205  0.8383  1.2529 -1.2793
   82MOL    H1716379   4.036   2.005   0.166 -0.7438  2.0242 -0.1379
   82MOL    H1816380   4.157   2.261   0.063 -1.3453  3.0252  0.5563
   82MOL    H1916381   3.998   2.186   0.031  1.7703 -0.1747 -2.9509
   82MOL    H2016382   4.092   2.230   0.313  0.2033 -0.4185 -0.9428
   82MOL    H2116383   3.926   2.219   0.256  0.1687  0.5207 -0.2301
   82MOL    O2216384   4.041   2.405   0.233  0.0031  0.0301 -0.7173
   82MOL    C2316385   3.955   2.453   0.337 -0.0751 -0.7954 -0.5249
   82MOL    C2416386   3.964   2.604   0.361 -0.5783  0.2973  0.4129
   82MOL    C2516387   3.873   2.650   0.477  0.9430  0.2453 -0.3796
   82MOL    H2616388   3.989   2.407   0.430  1.1983 -0.3783 -0.7731
   82MOL    H2716389   3.851   2.427   0.324 -0.4981  1.1204 -1.1858
   82MOL    H2816390   4.069   2.634   0.366 -0.5794  0.4715 -0.5878
   82MOL    H2916391   3.934   2.661   0.273  0.6222  0.7405  0.2862
   82MOL    H3016392   3.871   2.576   0.557  2.0692 -0.2346 -0.7814
   82MOL    H3116393   3.770   2.666   0.446 -0.6851 -2.1425  3.4202
   82MOL    O3216394   3.921   2.769   0.530  0.2727  0.1194 -0.1032
   82MOL    C3316395   3.845   2.822   0.637 -0.2369  0.3881  0.5599
   82MOL    C3416396   3.848   2.980   0.649  0.5174  0.3138  0.2636
   82MOL    C3516397   3.763   3.044   0.757  0.0709 -0.9366 -0.5145
   82MOL    H3616398   3.876   2.788   0.735  1.1035 -1.8115 -0.5936
   82MOL    H3716399   3.740   2.795   0.628  0.1004 -0.5905 -0.5277
   82MOL    H3816400   3.951   3.012   0.663  0.2793  0.2099  2.4338
   82MOL    H3916401   3.807   3.022   0.557 -0.0416 -0.5085  0.1271
   82MOL    H4016402   3.666   2.994   0.753 -0.4906  0.1681 -0.8490
   82MOL    H4116403   3.753   3.150   0.736 -0.7149 -0.7543  0.7231
   82MOL    O4216404   3.831   3.024   0.879 -0.1452 -0.0595 -0.0659
   82MOL    C4316405   3.753   3.040   0.990  1.0998 -0.5705 -0.7121
   82MOL    C4416406   3.850   3.003   1.109  0.4310 -0.1049 -0.4021
   82MOL    C4516407   3.776   2.998   1.244  0.0422  0.3306 -0.4195
   82MOL    H4616408   3.665   2.976   0.980  1.1104 -0.8845  1.0735
   82MOL    H4716409   3.721   3.144   1.000  0.2353 -1.0081  1.5008
   82MOL    H4816410   3.906   2.913   1.084  0.0993 -0.6824  0.8815
   82MOL    H4916411   3.915   3.090   1.113 -1.4011  1.2822 -0.2519
   82MOL    H5016412   3.707   2.914   1.252 -1.7318  1.6385 -1.3181
   82MOL    H5116413   3.744   3.102   1.258  1.8931  0.7774  0.6862
   82MOL    O5216414   3.882   2.976   1.333 -0.3753  0.5864  0.1353
   82MOL    C5316415   3.837   2.991   1.464  0.2942  0.0323  0.8311
   82MOL    C5416416   3.764   2.870   1.516  0.7774 -0.0691  0.7553
   82MOL    C5516417   3.701   2.887   1.660  0.5126 -1.0066  0.2977
   82MOL    H5616418   3.767   3.074   1.477  0.2460  0.1895 -0.3418
   82MOL    H5716419   3.915   3.011   1.538 -0.9497  1.1463  1.8561
   82MOL    H5816420   3.682   2.847   1.449  2.0292  1.0832 -1.2208
   82MOL    H5916421   3.833   2.786   1.527  1.5750  0.9601  4.5761
   82MOL    H6016422   3.785   2.912   1.725  2.1986  0.8718 -2.4757
   82MOL    H6116423   3.657   2.793   1.692 -2.4934  0.5093  0.8117
   82MOL    O6216424   3.591   2.980   1.650 -0.1030 -0.2561 -0.5777
   82MOL    C6316425   3.518   3.004   1.772  0.0565  1.1189  0.1842
   82MOL    C6416426   3.421   3.127   1.760 -0.0329  0.7210 -0.4170
   82MOL    C6516427   3.303   3.133   1.859  0.1720  0.2988 -0.6970
   82MOL    H6616428   3.594   3.017   1.850  0.1074  1.9761 -0.0022
   82MOL    H6716429   3.472   2.912   1.806  0.5925 -0.2962 -2.8265
   82MOL    H6816430   3.469   3.224   1.768 -0.5419  0.7828  2.1716
   82MOL    H6916431   3.385   3.137   1.658 -1.5115 -0.4358 -0.0285
   82MOL    H7016432   3.243   3.043   1.852  1.8304 -1.0471  1.6682
   82MOL    H7116433   3.238   3.214   1.826  1.3324  1.4150 -0.2985
   82MOL    O7216434   3.355   3.150   1.991  0.1395  0.6167 -0.1391
   82MOL    C7316435   3.267   3.220   2.073 -0.2553  1.0346 -0.7118
   82MOL    C7416436   3.280   3.370   2.063  0.1042 -0.2173  0.6300
   82MOL    C7516437   3.213   3.440   2.178  0.1257 -0.3482 -0.2709
   82MOL    H7616438   3.299   3.180   2.169 -2.0729 -1.5356 -1.1299
   82MOL    H7716439   3.162   3.193   2.067  0.0671 -0.1981 -0.7846
   82MOL    H7816440   3.387   3.388   2.058 -0.0408  0.2190 -1.3824
   82MOL    H7916441   3.248   3.405   1.965 -4.1439 -0.6561  1.7453
   82MOL    H8016442   3.266   3.411   2.268  1.7746  2.1291 -0.4119
   82MOL    H8116443   3.109   3.406   2.185  0.0881 -0.4480 -1.2364
   82MOL    O8216444   3.217   3.578   2.164  0.1749 -0.0105  0.2766
   82MOL    C8316445   3.164   3.647   2.276 -0.1814 -0.2741 -0.6941
   82MOL    C8416446   3.124   3.786   2.220  0.9636 -0.6962  0.7667
   82MOL    C8516447   3.009   3.778   2.119  0.4641 -0.4160  0.3609
   82MOL    H8616448   3.243   3.659   2.349 -0.4409 -0.2720 -0.4141
   82MOL    H8716449   3.078   3.598   2.321  0.2734 -1.6061 -1.2645
   82MOL    H8816450   3.100   3.856   2.300 -0.2896  2.6987 -2.4706
   82MOL    H8916451   3.201   3.833   2.159 -0.4789  0.7883  0.0398
   82MOL    H9016452   2.937   3.704   2.154  1.8878 -1.8190  0.3811
   82MOL    H9116453   3.050   3.731   2.030  1.1665  1.1602 -0.1778
   82MOL    O9216454   2.942   3.899   2.091 -0.3482 -0.3935 -0.1523
   82MOL    C9316455   2.822   3.884   2.023 -0.0039  0.7417 -0.6111
   82MOL    C9416456   2.851   3.832   1.880  0.3259  0.1128  0.0616
   82MOL    C9516457   2.734   3.845   1.779 -0.0416  0.3639 -0.2827
   82MOL    H9616458   2.773   3.981   2.013  0.4528  0.7925 -2.7185
   82MOL    H9716459   2.755   3.809   2.065  0.2096 -0.3131 -2.1006
   82MOL    H9816460   2.939   3.887   1.848 -0.7538  2.1751  0.5332
   82MOL    H9916461   2.872   3.725   1.876 -0.9547 -0.2200  1.4190
   82MOL   H10016462   2.689   3.944   1.772 -0.5925  0.1394  0.1433
   82MOL   H10116463   2.656   3.776   1.810 -1.2837  1.9358  0.1576
   82MOL   O10216464   2.774   3.818   1.643  0.1529  0.2379  0.3487
   82MOL   C10316465   2.686   3.839   1.537 -0.2219 -0.1371 -0.1079
   82MOL   C10416466   2.749   3.806   1.402  0.0704 -0.0948 -0.4638
   82MOL   C10516467   2.643   3.821   1.281 -0.4325  0.1040  0.0824
   82MOL   H10616468   2.662   3.945   1.522  3.1789  0.4983 -1.4694
   82MOL   H10716469   2.592   3.784   1.546 -0.4924  0.4690  0.7861
   82MOL   H10816470   2.833   3.874   1.386  0.9157 -0.5304  1.9269
   82MOL   H10916471   2.790   3.705   1.404 -0.6837 -0.3933  0.0363
   82MOL   H11016472   2.543   3.800   1.318  0.0899  1.3113  2.3235
   82MOL   H11116473   2.667   3.758   1.195 -0.7617 -1.3197  1.0097
   82MOL   O11216474   2.622   3.959   1.241 -0.6549  0.1356 -0.1999
   82MOL   C11316475   2.568   3.969   1.111  0.3745  0.0370  0.1375
   82MOL   C11416476   2.543   4.098   1.047 -0.6086  0.3369  0.4554
   82MOL   C11516477   2.509   4.073   0.896 -0.1004 -0.1687 -0.9792
   82MOL   H11616478   2.469   3.924   1.119 -0.9265  2.4761 -1.5680
   82MOL   H11716479   2.632   3.912   1.043 -0.1353  1.8425 -1.9352
   82MOL   H11816480   2.472   4.155   1.107  2.4695  0.2854  4.2870
   82MOL   H11916481   2.627   4.167   1.050 -1.3610  1.2921  0.1133
   82MOL   H12016482   2.601   4.043   0.847  1.6654 -0.6406  2.4339
   82MOL   H12116483   2.484   4.155   0.830 -1.4131 -0.0469 -0.3511
   82MOL   O12216484   2.400   3.975   0.888 -0.0487  0.0965  0.1731
   82MOL   C12316485   2.351   3.968   0.750  0.0347  0.1493 -0.2294
   82MOL   C12416486   2.262   3.839   0.731  0.5622 -0.1415  0.2164
   82MOL   C12516487   2.169   3.856   0.608  0.3323 -0.3068 -0.0434
   82MOL   H12616488   2.442   3.956   0.691 -2.9586 -0.2567 -5.0596
   82MOL   H12716489   2.297   4.059   0.724  1.0315  0.4409 -1.3104
   82MOL   H12816490   2.327   3.754   0.710  0.3530  0.1474 -1.6596
   82MOL   H12916491   2.202   3.836   0.822 -1.8446  1.5830 -1.2745
   82MOL   H13016492   2.227   3.860   0.515  2.4639  0.6812  1.2911
   82MOL   H13116493   2.124   3.955   0.605 -1.1676 -1.0218 -2.6176
   82MOL   O13216494   2.078   3.750   0.598  0.4368  0.3151  0.1284
   82MOL   C13316495   1.969   3.758   0.690 -0.4728 -0.1239  0.2125
   82MOL   C13416496   1.881   3.626   0.672  0.0932  0.4024  0.4351
   82MOL   C13516497   1.740   3.621   0.726  0.3806 -0.4019 -0.0489
   82MOL   H13616498   1.909   3.847   0.674 -0.4816 -0.3305 -0.9118
   82MOL   H13716499   1.991   3.764   0.797  1.3519 -0.4394 -0.1215
   82MOL   H13816500   1.879   3.603   0.565  1.6656  1.5027  0.1495
   82MOL   H13916501   1.937   3.542   0.715 -2.2069 -1.1779  0.4305
   82MOL   H14016502   1.673   3.695   0.683 -2.1432 -2.4263  0.2498
   82MOL   H14116503   1.751   3.652   0.830  2.6255 -1.6538  0.1195
   82MOL   O14216504   1.685   3.497   0.704  0.3111  0.1441 -0.0382
   82MOL   C14316505   1.615   3.496   0.575 -0.2184  0.5329 -0.4383
   82MOL   C14416506   1.597   3.347   0.534 -0.3247 -0.0925 -0.2492
   82MOL   C14516507   1.507   3.325   0.411  0.8060  0.4277  0.5866
   82MOL   H14616508   1.661   3.556   0.497 -1.7344 -0.5842 -2.2218
   82MOL   H14716509   1.519   3.547   0.589 -0.1010  0.3170  1.3474
   82MOL   H14816510   1.694   3.302   0.512  0.2008  1.3353 -0.8789
   82MOL   H14916511   1.548   3.303   0.621  0.6616  2.1669  1.4968
   82MOL   H15016512   1.403   3.354   0.423  0.4735 -0.4577 -0.1264
   82MOL   H15116513   1.489   3.220   0.389 -1.3584  1.1710 -1.4489
   82MOL   O15216514   1.563   3.389   0.294  0.1183  0.2201  0.1856
   82MOL   C15316515   1.523   3.338   0.171  0.1597 -0.2155  0.3940
   82MOL   C15416516   1.600   3.417   0.063  0.8790 -0.6496  0.2053
   82MOL   C15516517   1.563   3.573   0.072 -0.8080  0.2686 -0.3318
   82MOL   H15616518   1.418   3.367   0.158  0.9748  1.8966 -1.9859
   82MOL   H15716519   1.522   3.229   0.175  0.2865 -0.2375 -0.0965
   82MOL   H15816520   1.708   3.400   0.071  0.8265 -0.7327  0.7550
   82MOL   H15916521   1.562   3.369   7.762  0.0099  2.0323 -0.9287
   82MOL   H16016522   1.610   3.622   0.158 -1.6811 -0.6490  0.6799
   82MOL   H16116523   1.455   3.575   0.083 -0.7322 -1.1987  0.8874
   82MOL   O16216524   1.606   3.628   7.741 -0.6007 -1.3776 -0.2699
   82MOL   C16316525   1.593   3.771   7.747  0.0994  0.1030 -0.9316
   82MOL   C16416526   1.632   3.835   7.615 -0.1712  0.1806 -1.2076
   82MOL   C16516527   1.544   3.821   7.496  0.2450 -0.6313  0.6919
   82MOL   H16616528   1.666   3.806   0.031  1.4399  2.5579 -3.3612
   82MOL   H16716529   1.497   3.804   7.787  0.5359 -0.0035  0.2235
   82MOL   H16816530   1.638   3.940   7.643  0.5934  0.0572 -0.8927
   82MOL   H16916531   1.732   3.804   7.584 -0.4079 -0.8222 -0.9935
   82MOL   H17016532   1.439   3.834   7.525  0.6534  2.8646  0.8235
   82MOL   H17116533   1.544   3.717   7.462  0.5920  0.2960 -2.3175
   82MOL   O17216534   1.591   3.916   7.394 -0.7587 -0.7061  0.1782
   82MOL   C17316535   1.501   3.926   7.288  0.6861  0.5686 -0.7348
   82MOL   C17416536   1.383   4.013   7.336 -0.3761  0.0104  0.3085
   82MOL   C17516537   1.333   4.121   7.242 -0.2265 -0.2062 -0.1711
   82MOL   H17616538   1.473   3.828   7.251 -0.0042 -0.1550  1.5903
   82MOL   H17716539   1.548   3.968   7.200  1.0668 -0.7027 -1.1447
   82MOL   H17816540   1.290   3.957   7.329 -0.1522 -0.0566 -3.5803
   82MOL   H17916541   1.387   4.051   7.438 -2.6359 -1.1975  0.8736
   82MOL   H18016542   1.350   4.087   7.140  2.1773 -0.9176  0.4269
   82MOL   H18116543   1.399   4.207   7.255 -1.1506  0.7453 -1.6185
   82MOL   O18216544   1.193   4.152   7.253  0.3027 -0.0836 -0.4181
   82MOL   C18316545   1.156   4.269   7.184  0.3941  0.3133  0.0031
   82MOL   C18416546   1.031   4.339   7.245 -0.2169 -0.3275  0.6270
   82MOL   C18516547   0.962   4.441   7.148 -0.3297  0.5551  0.0032
   82MOL   H18616548   1.135   4.239   7.081 -2.5093  0.9936  0.3277
   82MOL   H18716549   1.234   4.345   7.180  0.5185  0.1703 -0.2686
   82MOL   H18816550   0.954   4.262   7.248 -0.5775  0.0002  0.0195
   82MOL   H18916551   1.046   4.376   7.347  0.6124 -1.5213  0.9487
   82MOL   H19016552   1.037   4.521   7.150  1.0259 -0.6246 -2.1932
   82MOL   H19116553   0.868   4.482   7.186  0.0325  1.5172 -0.1134
   82MOL   O19216554   0.945   4.391   7.017  0.0107 -0.4960 -0.6949
   82MOL   C19316555   0.923   4.497   6.928 -0.1438 -0.8677  0.2848
   82MOL   C19416556   0.969   4.473   6.783 -0.2983  0.2296 -0.7646
   82MOL   C19516557   0.908   4.347   6.724  0.3863 -0.0684  0.5845
   82MOL   H19616558   0.974   4.587   6.962  1.3816 -1.3030 -0.7588
   82MOL   H19716559   0.817   4.524   6.930 -0.2202 -1.0544 -0.6836
   82MOL   H19816560   0.949   4.551   6.710  0.1983 -1.0953 -2.3561
   82MOL   H19916561   1.077   4.461   6.781 -0.2899 -0.3899  1.5844
   82MOL   H20016562   0.806   4.371   6.695  0.0986  1.3687  2.7113
   82MOL   H20116563   0.908   4.265   6.796 -1.8315 -0.4188  0.2211
   82MOL   H20216564   0.971   4.326   6.637  1.4483 -2.4683  1.8852
   83MOL     O116565   3.773   4.114   1.401 -0.8600  0.3144  0.0674
   83MOL     C216566   3.819   4.113   1.535  0.1286 -0.1465  0.6780
   83MOL     C316567   3.736   4.208   1.622 -0.4619  0.8424  0.4453
   83MOL     C416568   3.780   4.226   1.765  0.6779  0.3305  0.8024
   83MOL     H516569   3.924   4.143   1.534  0.2161 -0.4469  0.6923
   83MOL     H616570   3.814   4.011   1.572 -0.1653 -0.7126 -0.8692
   83MOL     H716571   3.744   4.310   1.585  0.0532  0.1458 -1.4121
   83MOL     H816572   3.631   4.176   1.622 -0.8286  1.9798  1.6777
   83MOL     H916573   3.888   4.244   1.761  0.5424  0.7700 -1.4937
   83MOL    H1016574   3.776   4.128   1.813 -1.5594  0.3560  0.7017
   83MOL    H1116575   3.821   4.050   1.350 -0.2318  0.1340  0.8757
   83MOL    O1216576   3.721   4.331   1.845  0.0914 -0.0163 -0.1891
   83MOL    C1316577   3.579   4.304   1.856 -0.3056  0.7015 -0.2625
   83MOL    C1416578   3.517   4.419   1.937 -0.3829  0.2696  0.6517
   83MOL    C1516579   3.378   4.389   1.998 -0.9542  0.8148 -0.1231
   83MOL    H1616580   3.564   4.209   1.907  3.8348 -0.3493 -0.7691
   83MOL    H1716581   3.523   4.307   1.762  2.4657  0.2516 -1.9961
   83MOL    H1816582   3.576   4.439   2.027  1.2587 -2.1075  0.1551
   83MOL    H1916583   3.507   4.512   1.881  2.7265  1.0880  1.3050
   83MOL    H2016584   3.303   4.343   1.933  0.3539 -2.4536  0.5634
   83MOL    H2116585   3.326   4.480   2.028 -2.2426 -0.1268  0.5244
   83MOL    O2216586   3.382   4.298   2.111 -0.8383  0.3821  0.0326
   83MOL    C2316587   3.257   4.265   2.146 -0.4445  0.1911 -0.8267
   83MOL    C2416588   3.270   4.192   2.286  0.4927  0.2004 -0.4240
   83MOL    C2516589   3.134   4.157   2.354  0.0444 -0.1501  0.9833
   83MOL    H2616590   3.211   4.201   2.071 -1.7432  0.6559 -0.4429
   83MOL    H2716591   3.198   4.356   2.156  0.3970  0.7419 -0.8256
   83MOL    H2816592   3.326   4.101   2.269  0.2356  0.5659 -3.5195
   83MOL    H2916593   3.325   4.249   2.361  0.9420 -0.1700 -0.4730
   83MOL    H3016594   3.088   4.077   2.296  3.1173 -1.1071 -0.2366
   83MOL    H3116595   3.074   4.248   2.348  0.6912  0.3127  1.4452
   83MOL    O3216596   3.152   4.120   2.487 -0.3429 -0.0958 -0.4195
   83MOL    C3316597   3.035   4.074   2.551  0.5284  0.0722 -0.4847
   83MOL    C3416598   3.057   4.018   2.682  0.5285  0.6699 -0.0444
   83MOL    C3516599   2.934   3.981   2.762 -0.1493  0.2198  0.2090
   83MOL    H3616600   2.988   3.994   2.493 -1.5678 -0.4167  1.7760
   83MOL    H3716601   2.958   4.151   2.555 -1.2741 -1.7417  0.8133
   83MOL    H3816602   3.132   3.939   2.686  0.3448  0.3923 -1.6653
   83MOL    H3916603   3.100   4.096   2.745  0.6673 -0.3863  1.1926
   83MOL    H4016604   2.879   4.075   2.763  0.7143  0.7848 -2.1567
   83MOL    H4116605   2.956   3.954   2.865 -0.8164  3.8841  1.3836
   83MOL    O4216606   2.856   3.881   2.691 -0.5279 -0.4488  0.0387
   83MOL    C4316607   2.794   3.786   2.779  0.4529  0.3789 -0.3708
   83MOL    C4416608   2.864   3.645   2.790  0.3114 -0.6921  0.5009
   83MOL    C4516609   2.805   3.542   2.881 -0.0369 -0.6382  0.3926
   83MOL    H4616610   2.691   3.775   2.743  0.2933 -2.6320  0.7964
   83MOL    H4716611   2.798   3.818   2.883  0.9423  1.6489 -0.7708
   83MOL    H4816612   2.856   3.600   2.690 -2.2728 -0.1985  0.4516
   83MOL    H4916613   2.967   3.658   2.823  0.5977 -0.7441 -0.3417
   83MOL    H5016614   2.787   3.600   2.972 -0.8586  1.5389 -1.1287
   83MOL    H5116615   2.877   3.463   2.903 -0.2452 -0.8379  0.3624
   83MOL    O5216616   2.686   3.486   2.825 -0.6343  0.5212 -0.2271
   83MOL    C5316617   2.593   3.461   2.930  0.5353 -0.0234 -0.3782
   83MOL    C5416618   2.460   3.391   2.883  0.4688  0.0918  0.6003
   83MOL    C5516619   2.384   3.311   2.988  0.1488 -0.2629  0.7355
   83MOL    H5616620   2.557   3.553   2.976  0.7808  1.2181 -2.5940
   83MOL    H5716621   2.644   3.398   3.002  0.2705 -0.7844 -0.8458
   83MOL    H5816622   2.394   3.459   2.830  1.8548 -0.7027 -2.2234
   83MOL    H5916623   2.499   3.327   2.804 -4.0903  1.5935 -3.1078
   83MOL    H6016624   2.456   3.249   3.042  0.9456  0.8599  0.9779
   83MOL    H6116625   2.321   3.233   2.946 -0.0155  1.0670 -1.5636
   83MOL    O6216626   2.308   3.400   3.073 -0.5026  0.1172 -0.2484
   83MOL    C6316627   2.242   3.338   3.177 -0.0773 -0.0299 -0.2190
   83MOL    C6416628   2.098   3.288   3.126  0.2910 -0.4336 -0.6954
   83MOL    C6516629   2.001   3.405   3.084  0.5953 -0.1156 -0.1909
   83MOL    H6616630   2.235   3.412   3.257 -1.3222 -0.5781  0.1939
   83MOL    H6716631   2.302   3.254   3.210 -1.7133 -1.3460 -0.5208
   83MOL    H6816632   2.105   3.213   3.047  0.4656  0.7977 -1.8440
   83MOL    H6916633   2.061   3.235   3.215  0.4292  2.5300  1.1793
   83MOL    H7016634   1.900   3.366   3.071  0.1253 -0.0934  3.0865
   83MOL    H7116635   2.037   3.440   2.987 -1.3041  1.5922 -0.3170
   83MOL    O7216636   1.993   3.506   3.186  0.7336 -0.1914 -0.2206
   83MOL    C7316637   2.055   3.631   3.146 -0.9007 -0.3755 -0.1873
   83MOL    C7416638   2.054   3.717   3.275 -0.5538 -0.0040 -0.5801
   83MOL    C7516639   2.118   3.856   3.260 -0.2713  0.1701  0.0849
   83MOL    H7616640   1.984   3.671   3.074 -0.7022 -0.4124 -0.4053
   83MOL    H7716641   2.157   3.626   3.106 -0.9859  0.7172 -0.5653
   83MOL    H7816642   1.950   3.708   3.305 -0.1973 -2.0052  0.1375
   83MOL    H7916643   2.110   3.655   3.346 -0.5641 -0.1536 -0.7018
   83MOL    H8016644   2.072   3.925   3.189  1.6175 -0.6325 -2.0000
   83MOL    H8116645   2.222   3.853   3.226  0.1088  1.5608  1.0942
   83MOL    O8216646   2.121   3.914   3.391  0.3195  0.7899 -0.2131
   83MOL    C8316647   2.169   4.041   3.383  0.0990  0.4152 -0.4224
   83MOL    C8416648   2.177   4.098   3.525 -0.2741  0.2406  0.2772
   83MOL    C8516649   2.269   4.215   3.544 -0.1746  0.0689  0.3036
   83MOL    H8616650   2.124   4.114   3.315 -0.9807  1.6880  1.5995
   83MOL    H8716651   2.271   4.042   3.347  1.3061  2.6704  2.8080
   83MOL    H8816652   2.078   4.119   3.566 -1.2293 -0.0374 -1.8219
   83MOL    H8916653   2.229   4.022   3.582 -1.4947 -0.4514  0.4906
   83MOL    H9016654   2.227   4.307   3.503  1.3298  0.6313 -0.0148
   83MOL    H9116655   2.365   4.185   3.502 -0.5490 -1.6047  0.6081
   83MOL    O9216656   2.274   4.240   3.680 -0.1239 -0.1297  0.1240
   83MOL    C9316657   2.363   4.350   3.700 -0.6902  0.4725 -0.2944
   83MOL    C9416658   2.372   4.381   3.859  0.2184  0.3760  0.0173
   83MOL    C9516659   2.237   4.434   3.896  0.4268  0.8590 -0.4443
   83MOL    H9616660   2.331   4.440   3.647 -2.2367 -0.5596 -1.1270
   83MOL    H9716661   2.465   4.324   3.673 -0.7667  0.0547 -0.1756
   83MOL    H9816662   2.391   4.283   3.902  2.1659  1.3296  1.3855
   83MOL    H9916663   2.456   4.446   3.883  2.4041 -2.3165  0.0071
   83MOL   H10016664   2.155   4.385   3.844  0.2213  1.7417 -0.9602
   83MOL   H10116665   2.228   4.538   3.863  0.4533  0.4643 -1.7153
   83MOL   O10216666   2.212   4.437   4.035 -0.5798 -0.2207 -0.7161
   83MOL   C10316667   2.099   4.513   4.068  0.3586  0.0725 -0.0439
   83MOL   C10416668   2.070   4.505   4.227  0.2614 -0.3144 -0.3663
   83MOL   C10516669   1.972   4.606   4.275 -0.2650 -0.2735 -0.0035
   83MOL   H10616670   2.010   4.476   4.017  1.2445  0.1947 -1.7150
   83MOL   H10716671   2.111   4.620   4.050  1.4139 -0.3267 -1.8217
   83MOL   H10816672   2.041   4.410   4.271  0.1491  0.6616  1.7189
   83MOL   H10916673   2.166   4.525   4.275  0.4012  0.0164 -0.7811
   83MOL   H11016674   2.001   4.704   4.238 -4.3585  0.3934 -1.7487
   83MOL   H11116675   1.961   4.602   4.383  1.0830 -0.4994  0.1362
   83MOL   O11216676   1.842   4.576   4.232 -0.4390 -0.4392 -0.3440
   83MOL   C11316677   1.741   4.664   4.286  0.3082  0.3840 -0.3511
   83MOL   C11416678   1.601   4.618   4.233 -0.2263  0.0778 -0.2439
   83MOL   C11516679   1.493   4.726   4.247 -0.5395 -0.1202 -0.8467
   83MOL   H11616680   1.753   4.769   4.260 -0.8822  0.8135  0.7381
   83MOL   H11716681   1.740   4.658   4.395 -1.6139  0.6305 -0.3335
   83MOL   H11816682   1.590   4.593   4.127  0.0698 -0.9387 -0.0383
   83MOL   H11916683   1.564   4.529   4.283  0.8216 -0.8096 -1.0530
   83MOL   H12016684   1.397   4.675   4.247 -1.1391  0.9850 -0.0704
   83MOL   H12116685   1.494   4.810   4.177  0.1315  2.2765  1.9151
   83MOL   O12216686   1.509   4.786   4.377 -0.0169  0.3218  0.0663
   83MOL   C12316687   1.440   4.720   4.478 -0.0143 -0.1095 -0.0184
   83MOL   C12416688   1.450   4.815   4.604  0.0438 -0.3761 -0.0269
   83MOL   C12516689   1.362   4.767   4.718  0.8927 -0.8717  0.5163
   83MOL   H12616690   1.498   4.631   4.503  1.4991  0.4627 -1.4404
   83MOL   H12716691   1.337   4.691   4.458  0.1775 -1.9957  1.5815
   83MOL   H12816692   1.553   4.825   4.637 -0.1262 -0.9498  0.6938
   83MOL   H12916693   1.416   4.914   4.572 -0.6043 -0.6778 -0.2965
   83MOL   H13016694   1.326   4.664   4.721 -0.9448 -0.2774 -0.2624
   83MOL   H13116695   1.274   4.831   4.713  2.1608  0.8514  0.2839
   83MOL   O13216696   1.414   4.799   4.841  0.1708 -0.3286 -0.4701
   83MOL   C13316697   1.334   4.758   4.947  0.5846 -0.1326 -0.4920
   83MOL   C13416698   1.382   4.782   5.094 -0.2942 -0.3480  0.3337
   83MOL   C13516699   1.272   4.749   5.199 -0.4725  0.0088  0.1918
   83MOL   H13616700   1.318   4.650   4.944 -0.7497  0.0428 -0.0583
   83MOL   H13716701   1.234   4.800   4.935  0.6892 -0.3396 -2.1319
   83MOL   H13816702   1.467   4.713   5.092 -0.1792 -0.1962 -1.3453
   83MOL   H13916703   1.418   4.882   5.116  1.2171 -0.8515  0.2417
   83MOL   H14016704   1.210   4.662   5.177 -2.1018  1.0034  0.7365
   83MOL   H14116705   1.206   4.836   5.200  1.9717  1.9000  2.0163
   83MOL   O14216706   1.329   4.747   5.337 -0.2797 -1.1879  0.3857
   83MOL   C14316707   1.375   4.628   5.377  0.4575 -0.5414  0.7911
   83MOL   C14416708   1.459   4.661   5.503 -0.9553  0.2031 -1.0768
   83MOL   C14516709   1.535   4.539   5.546 -1.0200  0.0603 -0.5255
   83MOL   H14616710   1.425   4.575   5.295 -1.0133 -0.1270 -0.3936
   83MOL   H14716711   1.291   4.562   5.399 -0.1527 -0.9630 -2.5195
   83MOL   H14816712   1.532   4.741   5.498  0.0465 -0.6246 -0.0778
   83MOL   H14916713   1.394   4.704   5.579  0.2496 -0.5130  0.3997
   83MOL   H15016714   1.472   4.457   5.579 -0.4307  0.0958  0.7326
   83MOL   H15116715   1.594   4.574   5.631 -0.2609  0.0331 -1.0303
   83MOL   O15216716   1.633   4.488   5.447  0.1095 -0.2835 -0.7019
   83MOL   C15316717   1.736   4.409   5.497 -0.0895  0.4282 -1.0247
   83MOL   C15416718   1.795   4.320   5.385 -0.2962 -0.1550 -0.4503
   83MOL   C15516719   1.911   4.226   5.432  0.2399 -0.5988 -0.3512
   83MOL   H15616720   1.709   4.343   5.579  0.0720  0.5646 -0.8604
   83MOL   H15716721   1.815   4.470   5.542 -0.6519 -0.6461  1.5289
   83MOL   H15816722   1.720   4.256   5.339  0.1597 -1.7985  1.0073
   83MOL   H15916723   1.848   4.384   5.315 -1.2917  0.3069 -0.7815
   83MOL   H16016724   1.993   4.287   5.471  0.7800 -1.7756  0.3760
   83MOL   H16116725   1.946   4.167   5.347  1.9946 -2.9374  1.9282
   83MOL   O16216726   1.854   4.133   5.527  0.5341  0.5968 -0.5110
   83MOL   C16316727   1.946   4.068   5.610 -0.6744  0.0041  0.2691
   83MOL   C16416728   1.879   4.000   5.723  0.4399  0.2227  0.1413
   83MOL   C16516729   1.974   3.945   5.832  0.5233  1.5521 -0.3141
   83MOL   H16616730   2.020   4.142   5.642 -0.9327  0.8930 -1.1353
   83MOL   H16716731   1.995   3.995   5.545 -3.8490 -0.7927 -1.3353
   83MOL   H16816732   1.811   4.075   5.764  2.3671  1.9701  0.2335
   83MOL   H16916733   1.816   3.921   5.682 -0.2099 -0.4205  2.2912
   83MOL   H17016734   2.016   4.034   5.878 -0.6809  1.4049  1.1051
   83MOL   H17116735   2.052   3.886   5.784 -0.3242  1.4744 -1.6189
   83MOL   O17216736   1.910   3.871   5.932  0.7726  0.0241  0.4254
   83MOL   C17316737   2.004   3.840   6.037 -0.3615 -0.7718 -0.3472
   83MOL   C17416738   1.939   3.851   6.169  0.2369 -0.4390 -0.0412
   83MOL   C17516739   1.896   3.989   6.213  0.7440 -0.3037 -0.4121
   83MOL   H17616740   2.088   3.910   6.043 -1.1886  0.2290 -0.3526
   83MOL   H17716741   2.045   3.739   6.028  0.6633 -0.2273 -1.9658
   83MOL   H17816742   1.858   3.779   6.181 -0.1343  0.2263  1.6441
   83MOL   H17916743   2.011   3.818   6.244  0.9476  3.2546  0.9795
   83MOL   H18016744   1.844   3.981   6.308  1.2869 -1.7264 -0.2159
   83MOL   H18116745   1.818   4.033   6.152  0.7397 -0.3806 -0.4613
   83MOL   O18216746   2.010   4.070   6.238  0.4144  0.5827  0.0125
   83MOL   C18316747   2.000   4.210   6.223  0.1901  0.0470  0.4710
   83MOL   C18416748   2.032   4.251   6.082  0.3098  0.8375  0.4252
   83MOL   C18516749   2.039   4.405   6.048 -0.2604  0.4928  0.3652
   83MOL   H18616750   2.071   4.269   6.280 -0.1529  1.0663 -0.1400
   83MOL   H18716751   1.901   4.238   6.258 -0.0062 -0.9177  0.7106
   83MOL   H18816752   2.126   4.202   6.054  0.1620  0.0062  1.3504
   83MOL   H18916753   1.962   4.205   6.012  0.7492  0.7460  0.0415
   83MOL   H19016754   2.107   4.451   6.119  0.4783  1.5195 -0.9982
   83MOL   H19116755   1.942   4.454   6.062 -0.7911  0.5931 -3.2295
   83MOL   O19216756   2.092   4.435   5.920  0.1638  0.6700 -0.3737
   83MOL   C19316757   2.008   4.431   5.802 -0.1046 -0.0470  0.2784
   83MOL   C19416758   2.099   4.483   5.695  0.7765 -0.2920 -0.3839
   83MOL   C19516759   2.233   4.419   5.660 -1.2981 -0.1287 -0.6645
   83MOL   H19616760   1.922   4.495   5.819  0.2747  0.5556 -0.0553
   83MOL   H19716761   1.978   4.328   5.782 -1.2248  0.3378 -0.0233
   83MOL   H19816762   2.039   4.477   5.605  2.6126  0.5110 -1.6988
   83MOL   H19916763   2.103   4.590   5.716 -2.5150 -0.2473  0.1878
   83MOL   H20016764   2.219   4.326   5.605  1.6869 -1.7696  1.1914
   83MOL   H20116765   2.294   4.399   5.749 -0.7123 -0.5334 -1.1470
   83MOL   H20216766   2.292   4.477   5.590  0.8572 -0.6888  0.6199
   84MOL     O116767   6.390   1.689   3.036  0.1033  0.0151  0.2977
   84MOL     C216768   6.386   1.763   2.914  0.1933  0.4396  0.3877
   84MOL     C316769   6.412   1.912   2.935 -0.3655 -0.3657  0.3046
   84MOL     C416770   6.418   1.997   2.809 -0.1755  0.0384  0.5626
   84MOL     H516771   6.299   1.738   2.852  2.0000 -2.5373 -1.0831
   84MOL     H616772   6.463   1.723   2.847 -0.0036  0.5038  0.1240
   84MOL     H716773   6.340   1.952   3.007  0.1159 -0.0000  0.5816
   84MOL     H816774   6.510   1.924   2.981 -0.6295 -0.6205  0.9364
   84MOL     H916775   6.332   1.989   2.743  0.5202  0.7840 -0.4440
   84MOL    H1016776   6.505   1.963   2.753 -1.2229 -1.6689 -0.0852
   84MOL    H1116777   6.350   1.606   3.014 -1.8520  0.6876  1.2715
   84MOL    O1216778   6.440   2.129   2.843 -0.7430  0.9333  0.9626
   84MOL    C1316779   6.463   2.216   2.735 -0.8346 -0.5373  0.4172
   84MOL    C1416780   6.485   2.360   2.774  0.0568  0.0075 -0.3840
   84MOL    C1516781   6.538   2.458   2.669  0.3813 -0.2050 -0.4513
   84MOL    H1616782   6.381   2.211   2.662  0.0050 -1.6426 -0.4670
   84MOL    H1716783   6.556   2.175   2.697 -0.5256 -0.9782  1.6223
   84MOL    H1816784   6.394   2.396   2.822  0.0906  0.8105 -0.9149
   84MOL    H1916785   6.562   2.354   2.852  0.3509 -3.0621 -0.8588
   84MOL    H2016786   6.488   2.446   2.573 -3.1599  0.1200  1.2829
   84MOL    H2116787   6.643   2.444   2.641  0.4021  0.8091 -0.9143
   84MOL    O2216788   6.517   2.596   2.699  0.3550  0.2717 -0.2446
   84MOL    C2316789   6.611   2.657   2.777 -0.0211  0.1510  0.2369
   84MOL    C2416790   6.618   2.810   2.754  0.1681 -0.8922 -1.0530
   84MOL    C2516791   6.704   2.887   2.858 -1.0071  0.3966 -0.0066
   84MOL    H2616792   6.711   2.619   2.754  0.1171  0.6286  0.0367
   84MOL    H2716793   6.595   2.629   2.881  1.3105 -2.9907 -0.3505
   84MOL    H2816794   6.645   2.823   2.650  3.7114  1.1327  0.0269
   84MOL    H2916795   6.513   2.833   2.768  0.8615  0.6078  2.3576
   84MOL    H3016796   6.672   2.992   2.857 -1.2560  0.3130 -1.5094
   84MOL    H3116797   6.807   2.868   2.827 -1.8385 -0.5538 -2.2138
   84MOL    O3216798   6.691   2.834   2.989  0.4844  0.3033  0.0627
   84MOL    C3316799   6.770   2.907   3.080  0.9562 -0.4467 -0.2445
   84MOL    C3416800   6.733   2.856   3.218 -0.7880  0.0353 -0.2708
   84MOL    C3516801   6.813   2.934   3.321  0.0373  0.6901 -0.1353
   84MOL    H3616802   6.760   3.015   3.069  1.3987 -0.4024 -0.2324
   84MOL    H3716803   6.875   2.885   3.060  1.6126  1.1034  1.3048
   84MOL    H3816804   6.627   2.849   3.241 -0.8598  3.6467  0.7438
   84MOL    H3916805   6.753   2.749   3.211  1.0240  0.2289  1.5551
   84MOL    H4016806   6.771   2.915   3.420  0.6499  0.2961  0.0527
   84MOL    H4116807   6.801   3.039   3.293  0.5040 -0.0700 -3.4604
   84MOL    O4216808   6.952   2.907   3.316 -0.0758 -0.8062 -0.4036
   84MOL    C4316809   7.035   2.968   3.407 -0.0961 -0.4840 -0.2085
   84MOL    C4416810   7.172   2.906   3.419  0.0278  0.5461 -0.1127
   84MOL    C4516811   7.265   2.995   3.500 -0.0121  0.0840  0.1354
   84MOL    H4616812   6.995   2.966   3.509 -1.8815 -0.6273 -0.8837
   84MOL    H4716813   7.038   3.072   3.375  0.2960 -0.8347 -1.3258
   84MOL    H4816814   7.172   2.823   3.489 -0.8573  0.6301 -0.0176
   84MOL    H4916815   7.221   2.884   3.323 -0.4055  1.8630 -0.6469
   84MOL    H5016816   7.216   3.016   3.595 -0.8450 -0.7299 -0.1098
   84MOL    H5116817   7.260   3.092   3.451  0.9165 -0.3983 -0.9229
   84MOL    O5216818   7.397   2.936   3.507  0.0582  0.4925 -0.2479
   84MOL    C5316819   7.480   3.026   3.577 -0.5066  0.5593 -0.4916
   84MOL    C5416820   7.617   2.956   3.587  0.2050  0.5924  0.4568
   84MOL    C5516821   7.720   3.038   3.660 -0.0269  0.8187  0.0188
   84MOL    H5616822   7.441   3.043   3.677  1.0222 -0.2697  0.2592
   84MOL    H5716823   7.496   3.124   3.530  0.4464  0.8564  0.4387
   84MOL    H5816824   7.598   2.859   3.632 -0.8601 -0.1089 -1.4625
   84MOL    H5916825   7.657   2.935   3.488  2.2314 -0.5490  1.4759
   84MOL    H6016826   7.706   3.142   3.630 -0.3173  0.7986  0.0815
   84MOL    H6116827   0.029   2.999   3.629 -0.9993 -1.1923 -0.5782
   84MOL    O6216828   7.694   3.011   3.798 -0.5657 -0.3378 -0.6425
   84MOL    C6316829   0.016   3.053   3.882  0.3423 -0.2500  0.4168
   84MOL    C6416830   7.766   3.027   4.031  0.8977  0.4405 -0.5281
   84MOL    C6516831   0.047   3.120   4.131 -0.0867 -0.0921  0.1705
   84MOL    H6616832   0.038   3.159   3.871 -1.6623  0.2395  0.8512
   84MOL    H6716833   0.111   3.001   3.870  0.6132  0.5831 -1.1580
   84MOL    H6816834   7.658   3.044   4.039  1.2623  2.3400  0.8937
   84MOL    H6916835   7.780   2.924   4.062  1.0391  1.0189  1.4435
   84MOL    H7016836   0.022   3.223   4.105  0.6084  0.4959  1.7607
   84MOL    H7116837   0.155   3.111   4.129 -0.1556 -1.8680  1.9849
   84MOL    O7216838   0.010   3.086   4.259  0.2388 -0.2921  0.4509
   84MOL    C7316839   0.090   3.148   4.358  0.3697 -0.5846 -0.4328
   84MOL    C7416840   0.050   3.095   4.495 -0.1687 -0.0330  0.2548
   84MOL    C7516841   0.094   3.191   4.610  0.1763  0.0791  0.0277
   84MOL    H7616842   0.070   3.253   4.373  1.9478 -0.4172  0.5850
   84MOL    H7716843   0.198   3.133   4.346  0.7534  1.9283 -0.2833
   84MOL    H7816844   7.731   3.073   4.495 -0.1478 -0.1548  1.0700
   84MOL    H7916845   0.110   3.005   4.503 -0.5522 -0.3816 -0.7163
   84MOL    H8016846   0.078   3.293   4.575  1.3128  1.0522  2.2352
   84MOL    H8116847   0.197   3.171   4.640  0.5523  0.0407 -1.2893
   84MOL    O8216848   0.019   3.156   4.725  0.4154 -0.4097 -0.0115
   84MOL    C8316849   0.011   3.268   4.814 -0.0537  0.2495 -0.2242
   84MOL    C8416850   7.727   3.237   4.953  0.0619  0.3008  0.4659
   84MOL    C8516851   7.585   3.178   4.938  0.2168  0.0861 -0.7108
   84MOL    H8616852   7.741   3.346   4.764 -0.3076 -0.4096 -0.9734
   84MOL    H8716853   0.108   3.311   4.838  1.4039 -1.8031 -2.1681
   84MOL    H8816854   7.786   3.158   5.000 -0.0049 -0.6219 -0.9649
   84MOL    H8916855   7.734   3.322   5.020  1.4109 -0.3698  1.1976
   84MOL    H9016856   7.587   3.095   4.867 -0.5069 -1.5217  1.1113
   84MOL    H9116857   7.515   3.257   4.912  0.6179  0.5355 -0.4230
   84MOL    O9216858   7.551   3.148   5.072 -0.3289  0.5092  0.9849
   84MOL    C9316859   7.410   3.114   5.081  0.0845 -0.4609  0.1373
   84MOL    C9416860   7.388   3.006   5.192 -0.3323  0.3960 -0.1032
   84MOL    C9516861   7.416   3.068   5.328  0.2352 -0.4488 -0.0614
   84MOL    H9616862   7.377   3.078   4.983  0.3529  2.4486 -1.0817
   84MOL    H9716863   7.354   3.206   5.095 -2.5869 -1.6264 -2.2377
   84MOL    H9816864   7.284   2.973   5.192  0.2008 -1.5528 -3.2089
   84MOL    H9916865   7.443   2.913   5.178 -0.7661 -0.1656  1.7651
   84MOL   H10016866   7.346   3.149   5.345 -0.8638 -1.8670  2.3730
   84MOL   H10116867   7.516   3.110   5.336 -0.4524  1.5824 -1.5577
   84MOL   O10216868   7.391   2.975   5.435 -0.1793 -0.5093  0.2804
   84MOL   C10316869   7.457   3.000   5.550 -0.4898 -0.0596 -0.1791
   84MOL   C10416870   7.378   2.933   5.663 -0.1407  0.4580 -0.0765
   84MOL   C10516871   7.402   2.789   5.689 -0.6104  0.7605 -0.2417
   84MOL   H10616872   7.453   3.108   5.564 -0.4786  0.0925 -1.3191
   84MOL   H10716873   7.563   2.975   5.545 -0.4383  0.4016 -1.8218
   84MOL   H10816874   7.420   2.980   5.752  1.0720  0.2027 -0.5076
   84MOL   H10916875   7.269   2.943   5.661 -0.4670 -2.0733  1.7908
   84MOL   H11016876   7.508   2.767   5.676  0.3106  4.1739  0.8158
   84MOL   H11116877   7.349   2.723   5.621  3.0279 -2.5844 -0.0480
   84MOL   O11216878   7.368   2.761   5.829 -0.0477 -0.1438  0.5340
   84MOL   C11316879   7.417   2.624   5.872 -0.0066  0.0560  0.4586
   84MOL   C11416880   7.334   2.516   5.808  0.6068  0.5511 -0.9104
   84MOL   C11516881   7.385   2.380   5.854  0.4412  0.4074  0.2386
   84MOL   H11616882   7.414   2.613   5.980  0.7266  0.1265  0.4862
   84MOL   H11716883   7.522   2.604   5.854  0.6161  2.8338  0.7020
   84MOL   H11816884   7.226   2.513   5.823  0.6037 -1.7621 -1.1951
   84MOL   H11916885   7.333   2.520   5.699 -1.7077  0.8570 -0.9087
   84MOL   H12016886   7.414   2.375   5.959 -0.8888  0.0227  0.5983
   84MOL   H12116887   7.482   2.356   5.812 -0.0743  1.1106 -1.4116
   84MOL   O12216888   7.277   2.291   5.844 -0.4187 -0.2693  0.6380
   84MOL   C12316889   7.302   2.159   5.877  0.7187 -0.1408  0.3190
   84MOL   C12416890   7.194   2.054   5.835 -0.9644 -0.0474  0.1602
   84MOL   C12516891   7.208   1.915   5.890  0.6100 -0.4844 -0.1362
   84MOL   H12616892   7.329   2.151   5.982 -0.3615 -3.6586  0.3939
   84MOL   H12716893   7.390   2.133   5.818  0.7037  0.9478 -0.1988
   84MOL   H12816894   7.096   2.099   5.853 -1.8995 -1.3996 -1.3476
   84MOL   H12916895   7.203   2.047   5.727 -0.4636  1.2079  0.1173
   84MOL   H13016896   7.202   1.915   5.999  1.4662  0.7010 -0.0856
   84MOL   H13116897   7.307   1.872   5.880  0.4158 -1.3672  1.5337
   84MOL   O13216898   7.116   1.826   5.830 -0.0204 -0.1375 -0.0686
   84MOL   C13316899   7.124   1.695   5.893 -0.0250 -0.0744 -0.6204
   84MOL   C13416900   7.025   1.603   5.816 -0.6509 -0.3121  0.4155
   84MOL   C13516901   7.081   1.552   5.680  0.6060 -0.0213 -0.6455
   84MOL   H13616902   7.105   1.691   6.000  1.9968 -0.2133 -0.2473
   84MOL   H13716903   7.228   1.670   5.871 -0.2799  1.4462 -3.7682
   84MOL   H13816904   7.008   1.519   5.884  1.3885  0.1290  1.4927
   84MOL   H13916905   6.929   1.654   5.802  0.2738  1.0809 -0.9240
   84MOL   H14016906   7.132   1.634   5.630  0.8037 -1.0153 -2.1201
   84MOL   H14116907   7.008   1.507   5.612  0.8282  0.0937 -0.9609
   84MOL   O14216908   7.172   1.449   5.721  0.3833  0.3785 -0.0002
   84MOL   C14316909   7.219   1.374   5.610  0.0142 -0.2007 -1.2270
   84MOL   C14416910   7.320   1.275   5.673  0.2827 -0.0256 -0.0053
   84MOL   C14516911   7.392   1.190   5.563 -0.3196  0.5187 -0.4854
   84MOL   H14616912   7.271   1.432   5.535 -1.0926  3.8662  1.0237
   84MOL   H14716913   7.141   1.320   5.557 -1.7906  0.8214  0.3086
   84MOL   H14816914   7.401   1.321   5.730  0.6049 -2.0384  1.1992
   84MOL   H14916915   7.258   1.217   5.741 -0.2634  0.2908 -0.2333
   84MOL   H15016916   7.476   1.135   5.607 -0.8804  2.1464  2.7428
   84MOL   H15116917   7.418   1.261   5.484  1.8925  1.2628  0.8505
   84MOL   O15216918   7.300   1.091   5.517  0.1490 -0.3445 -0.3828
   84MOL   C15316919   7.330   1.045   5.385 -1.2176  0.8086 -0.4398
   84MOL   C15416920   7.233   0.948   5.316  0.0951  0.1354  0.0961
   84MOL   C15516921   7.094   1.011   5.303  0.0908  0.1582  0.3134
   84MOL   H15616922   7.428   0.996   5.380 -2.2719 -1.5621  1.0649
   84MOL   H15716923   7.331   1.132   5.320 -1.6901 -0.2931 -1.9591
   84MOL   H15816924   7.268   0.922   5.217  1.8677  1.1765  0.4311
   84MOL   H15916925   7.220   0.854   5.370  0.8477  0.2900  0.5639
   84MOL   H16016926   7.099   1.113   5.264 -0.4551 -0.0598 -0.3414
   84MOL   H16116927   7.054   1.017   5.405  0.7268 -1.2484  0.6562
   84MOL   O16216928   7.010   0.921   5.232 -0.8079 -0.3468  0.3221
   84MOL   C16316929   6.878   0.948   5.223 -0.0701 -0.1416 -0.8150
   84MOL   C16416930   6.812   0.850   5.133  0.5481 -0.0208 -0.5027
   84MOL   C16516931   6.665   0.872   5.132  0.5199 -0.4929  0.3402
   84MOL   H16616932   6.876   1.049   5.183 -1.7389  0.4547  0.7065
   84MOL   H16716933   6.840   0.937   5.325  0.8183  0.2247 -0.4372
   84MOL   H16816934   6.853   0.863   5.033 -0.4704 -1.1095 -1.0636
   84MOL   H16916935   6.852   0.751   5.153  3.6949  1.4827  1.2665
   84MOL   H17016936   6.640   0.979   5.135 -1.4212 -0.9425  0.9228
   84MOL   H17116937   6.621   0.832   5.223 -0.4121  0.5094  0.3526
   84MOL   O17216938   6.602   0.814   5.024 -0.4055 -0.4413  0.5309
   84MOL   C17316939   6.459   0.847   5.017 -0.6845  0.6730 -0.4027
   84MOL   C17416940   6.402   0.784   4.892  0.2581  0.3724  0.2071
   84MOL   C17516941   6.260   0.823   4.861 -0.2331 -0.0604 -0.1529
   84MOL   H17616942   6.443   0.954   5.018  2.3207  1.1624  0.4345
   84MOL   H17716943   6.396   0.817   5.101  2.9771  0.1822  2.3272
   84MOL   H17816944   6.468   0.806   4.807  0.6763 -1.5451  0.0224
   84MOL   H17916945   6.405   0.676   4.904  0.2353  0.5166  1.6007
   84MOL   H18016946   6.238   0.921   4.817  0.4926 -1.6763 -4.3342
   84MOL   H18116947   6.212   0.816   4.959  2.4881 -0.2886  1.2047
   84MOL   O18216948   6.194   0.730   4.777 -0.2265  0.7001  0.4683
   84MOL   C18316949   6.051   0.736   4.762 -0.1759  0.2398  0.1811
   84MOL   C18416950   5.972   0.668   4.875  0.1544 -0.2403 -0.0088
   84MOL   C18516951   6.009   0.532   4.915 -0.6964  0.0076  0.5887
   84MOL   H18616952   6.025   0.683   4.670  0.7454  0.0248  0.0354
   84MOL   H18716953   6.029   0.842   4.747  2.7156  1.2768  2.6477
   84MOL   H18816954   5.993   0.732   4.961 -1.6857 -0.6367  0.7648
   84MOL   H18916955   5.868   0.679   4.843 -0.2665 -0.6635  1.1483
   84MOL   H19016956   6.117   0.519   4.924 -0.6957  0.6680  1.4966
   84MOL   H19116957   5.980   0.472   4.828  1.0641  0.6180 -0.4452
   84MOL   O19216958   5.942   0.506   5.035 -0.0318  0.5385 -0.8314
   84MOL   C19316959   5.960   0.376   5.074  0.3815 -0.1492 -0.3034
   84MOL   C19416960   5.863   0.338   5.183 -0.9726  0.1904 -0.5572
   84MOL   C19516961   5.718   0.336   5.140 -0.2763  0.3727  0.5115
   84MOL   H19616962   6.063   0.365   5.110 -0.1704 -0.4339  1.2262
   84MOL   H19716963   5.952   0.305   4.992 -0.6079 -0.5327  0.1212
   84MOL   H19816964   5.894   0.245   5.231  0.4559  1.6799  1.4945
   84MOL   H19916965   5.887   0.411   5.261  4.1572 -1.9958  0.1354
   84MOL   H20016966   5.684   0.416   5.074 -0.3163  0.0398  0.1261
   84MOL   H20116967   5.651   0.321   5.225 -1.9389  0.8553 -0.6821
   84MOL   H20216968   5.701   0.242   5.088 -1.9218  0.9384 -0.0059
   85MOL     O116969   4.508   3.788   6.308 -0.2053 -0.0936  0.1752
   85MOL     C216970   4.371   3.786   6.322  0.8419  0.2862 -0.3325
   85MOL     C316971   4.340   3.800   6.470 -0.2204 -0.1581  0.7181
   85MOL     C416972   4.194   3.840   6.503 -0.3042  0.3016  0.3222
   85MOL     H516973   4.334   3.691   6.286  0.9534  0.5554 -1.1618
   85MOL     H616974   4.335   3.870   6.263  2.7932  0.6885 -1.0190
   85MOL     H716975   4.360   3.701   6.512 -0.2963 -0.8378 -0.8474
   85MOL     H816976   4.402   3.875   6.519 -2.1387  2.3059 -0.5149
   85MOL     H916977   4.181   3.862   6.609  1.4846 -0.3421  0.6896
   85MOL    H1016978   4.125   3.759   6.480 -0.1027  0.6200 -1.4478
   85MOL    H1116979   4.536   3.772   6.219  2.2886 -2.8595  1.3589
   85MOL    O1216980   4.156   3.955   6.432  0.1175 -0.2312  0.1698
   85MOL    C1316981   4.010   3.969   6.419  0.6472 -0.1499 -0.0799
   85MOL    C1416982   3.975   4.078   6.314  0.3048 -0.3505  0.5314
   85MOL    C1516983   3.831   4.130   6.337 -0.4137 -0.5219 -0.4752
   85MOL    H1616984   3.976   3.990   6.520  0.6952  0.5273 -0.2052
   85MOL    H1716985   3.965   3.871   6.403  0.3133  0.0854 -0.6011
   85MOL    H1816986   4.042   4.164   6.314  1.6568 -1.3839 -1.4217
   85MOL    H1916987   3.985   4.027   6.218  1.2778 -0.6203  0.7729
   85MOL    H2016988   3.823   4.162   6.442  0.1179 -1.2974 -0.1969
   85MOL    H2116989   3.766   4.046   6.315 -4.7883  2.3565  0.7378
   85MOL    O2216990   3.801   4.240   6.250 -0.3342 -0.4168 -0.4677
   85MOL    C2316991   3.676   4.296   6.291  0.4003  0.5366  0.1982
   85MOL    C2416992   3.665   4.444   6.242 -0.0788  0.1529  0.2789
   85MOL    C2516993   3.541   4.520   6.288 -0.2530  0.7083 -0.2399
   85MOL    H2616994   3.661   4.294   6.399  0.2198  1.3592  0.1907
   85MOL    H2716995   3.598   4.248   6.232  3.4286 -2.2455 -1.7871
   85MOL    H2816996   3.756   4.500   6.264  0.7276 -1.2174  0.4544
   85MOL    H2916997   3.662   4.435   6.134  0.5853  0.0224  0.2705
   85MOL    H3016998   3.502   4.475   6.378 -0.3588 -2.3899 -1.7839
   85MOL    H3116999   3.464   4.493   6.215 -0.4973 -1.4492  0.7812
   85MOL    O3217000   3.563   4.660   6.293  0.4921 -0.0695  0.8034
   85MOL    C3317001   3.459   4.753   6.307 -0.3724 -0.1638 -0.2949
   85MOL    C3417002   3.460   4.867   6.203  0.5680 -0.2966 -0.2382
   85MOL    C3517003   3.354   4.973   6.237 -0.2274 -0.0850 -0.3051
   85MOL    H3617004   3.486   4.794   6.404  2.7093 -0.3049 -1.0449
   85MOL    H3717005   3.359   4.709   6.314 -1.1915  1.6750  0.0878
   85MOL    H3817006   3.557   4.917   6.211  0.7275 -0.2424 -2.1833
   85MOL    H3917007   3.446   4.822   6.105  0.5390 -0.9236  0.0520
   85MOL    H4017008   3.349   5.016   6.337  0.6468 -0.0027 -0.2855
   85MOL    H4117009   3.259   4.928   6.209  1.0788 -2.0482 -1.7099
   85MOL    O4217010   3.381   5.089   6.156  0.4164 -0.5137 -0.7269
   85MOL    C4317011   3.362   5.075   6.011  0.0478 -0.3336  0.3552
   85MOL    C4417012   3.402   5.201   5.937 -0.0864 -0.1014  0.4159
   85MOL    C4517013   3.408   5.187   5.786  0.2187  0.0162 -0.8999
   85MOL    H4617014   3.255   5.057   6.005 -0.1005  0.1902  1.3739
   85MOL    H4717015   3.418   4.992   5.967  0.0355  0.3842 -1.0662
   85MOL    H4817016   3.328   5.280   5.951 -0.2642 -0.5901  2.3489
   85MOL    H4917017   3.502   5.235   5.967 -0.4248  2.4148 -1.1428
   85MOL    H5017018   3.495   5.125   5.762 -0.3070 -1.7472  1.5140
   85MOL    H5117019   3.410   5.289   5.747 -0.4810  1.1880  2.0180
   85MOL    O5217020   3.292   5.118   5.752  0.2644 -0.0673 -0.6606
   85MOL    C5317021   3.259   5.108   5.613 -0.0085  0.1987 -0.2915
   85MOL    C5417022   3.147   5.007   5.593 -0.5547  0.0118  1.0437
   85MOL    C5517023   3.114   4.994   5.448 -0.4444 -0.4136  0.4914
   85MOL    H5617024   3.349   5.068   5.567  1.2024  1.2525  1.0784
   85MOL    H5717025   3.241   5.203   5.562  0.5593 -0.4764 -1.7497
   85MOL    H5817026   3.175   4.909   5.632  1.4193  0.7700  1.5962
   85MOL    H5917027   3.068   5.038   5.661 -0.1934  0.6197  1.1854
   85MOL    H6017028   3.202   4.963   5.391  0.1913  1.2555  0.5625
   85MOL    H6117029   3.085   5.087   5.400  1.5759 -0.5313 -1.0655
   85MOL    O6217030   3.020   4.892   5.445  0.1745  0.3174 -0.7661
   85MOL    C6317031   2.976   4.870   5.310  0.4027  0.1717  0.5982
   85MOL    C6417032   2.870   4.758   5.314 -0.1613 -0.0998  0.1995
   85MOL    C6517033   2.930   4.624   5.362 -0.3510 -0.8009 -0.2295
   85MOL    H6617034   3.055   4.837   5.242 -0.0937 -0.7272  0.4460
   85MOL    H6717035   2.939   4.964   5.271 -0.4318  0.0323  1.0373
   85MOL    H6817036   2.785   4.785   5.377  0.4910  0.3372  0.9072
   85MOL    H6917037   2.838   4.735   5.213 -2.3783 -1.8247  1.2335
   85MOL    H7017038   2.946   4.621   5.470  0.7943  2.8606 -0.2310
   85MOL    H7117039   3.031   4.615   5.321  0.6141  3.7735  0.9083
   85MOL    O7217040   2.852   4.520   5.332 -0.0549  0.3600 -0.2187
   85MOL    C7317041   2.905   4.393   5.356  0.5139  0.3561 -0.6532
   85MOL    C7417042   2.812   4.278   5.383  0.3609  0.6496  0.2199
   85MOL    C7517043   2.881   4.145   5.424 -0.6823 -0.2600  0.3029
   85MOL    H7617044   2.952   4.395   5.455  0.7488 -3.6488 -0.6033
   85MOL    H7717045   2.983   4.372   5.283  0.5265  0.7840 -0.7628
   85MOL    H7817046   2.740   4.311   5.457  1.2203  0.4900  1.1313
   85MOL    H7917047   2.756   4.273   5.289  0.8471 -2.0494  0.0195
   85MOL    H8017048   2.802   4.070   5.435  0.1077 -1.0139  0.8706
   85MOL    H8117049   2.924   4.156   5.523 -0.0935 -1.7465  0.2255
   85MOL    O8217050   2.989   4.111   5.334  0.3892  0.9802 -0.3196
   85MOL    C8317051   3.053   3.990   5.376  0.2455  0.5788  0.0119
   85MOL    C8417052   3.181   3.960   5.294  0.2079 -0.1591 -0.4399
   85MOL    C8517053   3.262   3.846   5.347  0.5061  0.6239 -0.1279
   85MOL    H8617054   2.985   3.905   5.381  1.5703 -0.4215  1.6953
   85MOL    H8717055   3.103   4.015   5.470 -0.3724  2.7050 -0.1974
   85MOL    H8817056   3.162   3.949   5.187  0.8934 -1.2630 -0.4489
   85MOL    H8917057   3.250   4.044   5.292 -1.1986  1.0269 -0.9002
   85MOL    H9017058   3.313   3.873   5.439  0.6549  0.6974 -0.2321
   85MOL    H9117059   3.342   3.830   5.274 -0.7523  0.8140 -1.5919
   85MOL    O9217060   3.183   3.733   5.354 -0.4822  0.1145  0.7200
   85MOL    C9317061   3.242   3.615   5.407 -0.1599 -0.3081 -0.1127
   85MOL    C9417062   3.164   3.492   5.387  0.2904 -0.5605  0.7686
   85MOL    C9517063   3.052   3.464   5.487  0.2226 -0.8645 -0.7258
   85MOL    H9617064   3.258   3.620   5.515 -1.0902  1.8387 -0.0375
   85MOL    H9717065   3.344   3.604   5.369 -0.3653  0.2510 -0.8362
   85MOL    H9817066   3.120   3.473   5.289 -1.2480  0.5929  1.2157
   85MOL    H9917067   3.229   3.405   5.394  0.9636 -0.2103 -0.8608
   85MOL   H10017068   3.086   3.436   5.586 -1.0893  0.3169  0.0766
   85MOL   H10117069   2.984   3.386   5.451 -1.6350 -0.2558  1.3748
   85MOL   O10217070   2.972   3.586   5.494 -0.3074  0.2921 -0.1429
   85MOL   C10317071   2.883   3.583   5.603  0.6968 -0.1333  0.3351
   85MOL   C10417072   2.794   3.708   5.609 -0.2438 -0.2983 -0.5347
   85MOL   C10517073   2.850   3.824   5.692  0.1419  0.1802 -0.4180
   85MOL   H10617074   2.937   3.561   5.695  1.7265 -0.4214 -0.3385
   85MOL   H10717075   2.814   3.500   5.591 -0.9568  1.2152  0.1596
   85MOL   H10817076   2.793   3.736   5.504  0.8766  0.2396 -0.4109
   85MOL   H10917077   2.699   3.679   5.654  0.3755 -0.9723  0.3773
   85MOL   H11017078   2.782   3.909   5.694  0.2813  0.2987 -0.7389
   85MOL   H11117079   2.938   3.863   5.641  0.7458  0.5278  0.8683
   85MOL   O11217080   2.891   3.789   5.822  0.0154 -0.3890 -0.0342
   85MOL   C11317081   2.785   3.774   5.918  0.2010 -0.4401 -0.5061
   85MOL   C11417082   2.838   3.699   6.041  0.7254 -0.5588  0.0998
   85MOL   C11517083   2.897   3.565   6.007  0.0422 -0.2880 -0.5146
   85MOL   H11617084   2.697   3.726   5.875 -0.2163  0.6796 -0.9118
   85MOL   H11717085   2.744   3.872   5.941  1.4897  0.8672 -3.4343
   85MOL   H11817086   2.913   3.755   6.098 -1.3429  0.1597  2.2097
   85MOL   H11917087   2.752   3.688   6.108  0.8868 -0.1045  0.3841
   85MOL   H12017088   2.994   3.582   5.960  0.1849  1.8387  0.4906
   85MOL   H12117089   2.835   3.507   5.939  0.8970 -0.8773 -0.8061
   85MOL   O12217090   2.915   3.500   6.131 -0.3494 -0.2873 -0.2706
   85MOL   C12317091   2.969   3.364   6.120  0.1720 -0.6305 -0.2545
   85MOL   C12417092   3.009   3.330   6.266  0.1871 -0.2877  0.3977
   85MOL   C12517093   3.079   3.187   6.281  0.1417 -0.3562 -0.4945
   85MOL   H12617094   3.049   3.365   6.046  0.2052 -3.8090 -0.3219
   85MOL   H12717095   2.886   3.304   6.081 -0.2829  0.2186 -0.6264
   85MOL   H12817096   3.088   3.403   6.281  0.1897 -0.2938  0.4137
   85MOL   H12917097   2.919   3.330   6.328  1.0094  0.1518  1.5979
   85MOL   H13017098   3.155   3.164   6.206  1.4988 -0.2412  0.8113
   85MOL   H13117099   3.008   3.104   6.282  0.2271 -0.4450 -1.2809
   85MOL   O13217100   3.149   3.189   6.406  0.0985  0.2033  0.0303
   85MOL   C13317101   3.227   3.068   6.418  0.4577 -0.3169 -0.1864
   85MOL   C13417102   3.296   3.061   6.552  0.3910 -0.7255 -0.2011
   85MOL   C13517103   3.324   2.928   6.598  0.5547  0.2492 -0.3609
   85MOL   H13617104   3.302   3.058   6.340  0.7801  2.4670 -0.2793
   85MOL   H13717105   3.164   2.979   6.408  0.1955  0.0238 -1.6124
   85MOL   H13817106   3.386   3.121   6.548  2.0183 -3.0553  0.3382
   85MOL   H13917107   3.236   3.107   6.630  1.5529 -1.3512  1.0854
   85MOL   H14017108   3.411   2.936   6.663  0.6690 -1.3039 -0.2886
   85MOL   H14117109   3.357   2.864   6.516  1.3585  0.1107  0.0720
   85MOL   O14217110   3.206   2.871   6.661 -0.1945 -0.2815 -0.1223
   85MOL   C14317111   3.239   2.750   6.735 -0.3787  0.2895 -0.5257
   85MOL   C14417112   3.112   2.668   6.756  0.2971 -0.2595  0.1866
   85MOL   C14517113   3.015   2.697   6.872  0.2010  0.3821  0.3553
   85MOL   H14617114   3.300   2.761   6.824  0.2758 -1.0218 -0.8028
   85MOL   H14717115   3.312   2.698   6.672 -1.0722 -1.4691  0.1112
   85MOL   H14817116   3.063   2.681   6.660  2.4665 -1.0588 -1.0543
   85MOL   H14917117   3.125   2.560   6.768  0.5328 -0.1649  0.8519
   85MOL   H15017118   2.932   2.628   6.859  1.1914 -0.2662 -2.9522
   85MOL   H15117119   2.975   2.797   6.855  1.1530  0.2963 -2.6922
   85MOL   O15217120   3.084   2.680   6.996  0.4348 -0.1061 -0.3856
   85MOL   C15317121   3.013   2.713   7.112  0.1692 -0.0292 -0.0488
   85MOL   C15417122   3.075   2.651   7.233  0.1927 -0.1468 -0.4454
   85MOL   C15517123   3.021   2.704   7.373  0.2132  0.4629  0.7287
   85MOL   H15617124   2.915   2.668   7.101  1.0622 -1.6372 -1.6022
   85MOL   H15717125   2.989   2.819   7.121  1.6953  0.1430  2.4572
   85MOL   H15817126   3.094   2.543   7.227 -0.1307 -0.2705  0.6632
   85MOL   H15917127   3.176   2.689   7.216  0.5774 -1.1805 -0.5352
   85MOL   H16017128   2.970   2.799   7.356  0.8134  0.7569  0.5611
   85MOL   H16117129   3.101   2.730   7.442  1.9651 -0.2072 -1.0167
   85MOL   O16217130   2.923   2.615   7.428  0.5910  0.1422  0.3346
   85MOL   C16317131   2.842   2.653   7.534 -0.0917  0.3099  0.3332
   85MOL   C16417132   2.785   2.528   7.604  0.0564 -0.1898 -0.4553
   85MOL   C16517133   2.653   2.474   7.546 -0.4385  0.0371 -0.0501
   85MOL   H16617134   2.760   2.711   7.492 -0.2422 -0.5890 -0.6594
   85MOL   H16717135   2.894   2.716   7.606 -2.3660  0.8294  1.5804
   85MOL   H16817136   2.861   2.452   7.619  0.2635  0.0123 -0.4827
   85MOL   H16917137   2.760   2.556   7.706  1.3823  1.8873 -0.6752
   85MOL   H17017138   2.679   2.458   7.441 -1.4133 -3.3306  0.1646
   85MOL   H17117139   2.592   2.564   7.539  1.6381  1.2995 -2.9332
   85MOL   O17217140   2.602   2.354   7.602  0.4665 -0.0221  0.2855
   85MOL   C17317141   2.477   2.323   7.546 -0.6289  0.1274 -0.2126
   85MOL   C17417142   2.399   2.241   7.639 -0.1578  0.2943 -0.0373
   85MOL   C17517143   2.257   2.224   7.587 -0.3946 -0.5599  0.3626
   85MOL   H17617144   2.501   2.268   7.455 -0.9728 -0.7541  0.2244
   85MOL   H17717145   2.419   2.414   7.532 -0.2743  0.3009 -0.5557
   85MOL   H17817146   2.445   2.143   7.654 -2.6626 -0.9197  0.0445
   85MOL   H17917147   2.399   2.297   7.733 -0.2355  1.3812 -0.6744
   85MOL   H18017148   2.243   2.173   7.491 -0.0884 -1.4404  0.7740
   85MOL   H18117149   2.200   2.316   7.592 -1.4114 -1.1341 -0.5422
   85MOL   O18217150   2.193   2.142   7.684 -0.0650 -0.2410  0.1805
   85MOL   C18317151   2.146   2.208   0.013  0.3634  0.1636 -0.2613
   85MOL   C18417152   2.059   2.122   0.104  0.3943 -0.2535  0.3328
   85MOL   C18517153   1.905   2.129   0.057 -0.2105 -0.3085 -0.2123
   85MOL   H18617154   2.083   2.295   7.782  1.6117  1.0593 -0.3720
   85MOL   H18717155   2.223   2.244   0.081  0.6839 -2.0246  0.5588
   85MOL   H18817156   2.095   2.020   0.115 -0.0853 -0.5594 -0.7867
   85MOL   H18917157   2.065   2.175   0.199 -0.6479  0.4096  0.0363
   85MOL   H19017158   1.913   2.117   7.737  0.9506 -1.3075 -0.0190
   85MOL   H19117159   1.874   2.232   0.073 -2.1919 -1.0861  1.1974
   85MOL   O19217160   1.827   2.039   0.135 -0.0940  0.3396 -0.3211
   85MOL   C19317161   1.825   1.913   0.074 -0.2619 -0.4958  0.5048
   85MOL   C19417162   1.720   1.823   0.142 -0.0540  0.4616 -0.4930
   85MOL   C19517163   1.697   1.694   0.061 -0.2290 -0.1974 -0.3723
   85MOL   H19617164   1.915   1.851   0.079 -1.4573 -2.1033  4.1973
   85MOL   H19717165   1.802   1.925   7.757 -0.6265  1.5886  0.8106
   85MOL   H19817166   1.763   1.800   0.240  0.5527  0.8683 -0.6595
   85MOL   H19917167   1.622   1.865   0.165  1.1772  1.8906  2.5164
   85MOL   H20017168   1.694   1.708   7.742  0.5517  0.2978 -0.3385
   85MOL   H20117169   1.610   1.635   0.089 -2.0508  1.5051 -2.3415
   85MOL   H20217170   1.772   1.618   0.083 -3.2727 -3.6414 -1.5167
   86MOL     O117171   2.241   6.713   5.774  0.1338  0.5775 -0.0328
   86MOL     C217172   2.108   6.721   5.747  0.5739 -0.3308 -0.2667
   86MOL     C317173   2.087   6.823   5.637  0.0189  0.7204  0.1204
   86MOL     C417174   1.943   6.835   5.592  0.4646  0.3817  0.7406
   86MOL     H517175   2.064   6.739   5.845 -1.4051 -0.0808 -1.1792
   86MOL     H617176   2.072   6.620   5.724  0.0419 -0.0129 -0.8342
   86MOL     H717177   2.130   6.919   5.665 -0.1074  0.9890 -0.6137
   86MOL     H817178   2.146   6.792   5.550 -0.1548  1.0845 -0.1261
   86MOL     H917179   1.918   6.747   5.532  1.4558  0.5937  0.0069
   86MOL    H1017180   1.945   6.929   5.537 -1.0924  0.9329  1.5987
   86MOL    H1117181   2.274   6.665   5.699 -1.9141 -1.4168  0.2887
   86MOL    O1217182   1.849   6.863   5.691 -0.5804 -0.0398  0.2236
   86MOL    C1317183   1.718   6.884   5.636  0.1371  0.2158 -0.0591
   86MOL    C1417184   1.629   6.861   5.760  0.0023 -0.5649  0.1340
   86MOL    C1517185   1.480   6.876   5.729 -0.2679  0.4572 -0.3583
   86MOL    H1617186   1.692   6.807   5.563 -0.7583  0.6286 -0.1844
   86MOL    H1717187   1.723   6.990   5.610  1.3158  0.5349  1.4040
   86MOL    H1817188   1.640   6.754   5.779  0.7832 -0.2946  1.2625
   86MOL    H1917189   1.657   6.917   5.849 -0.4763  1.2404 -0.8328
   86MOL    H2017190   1.417   6.859   5.817 -0.4037 -0.2307 -0.5901
   86MOL    H2117191   1.445   6.796   5.664 -1.1693 -0.4954  1.2741
   86MOL    O2217192   1.452   7.005   5.675  0.7014  0.6312 -0.2785
   86MOL    C2317193   1.315   7.032   5.630  0.5205  0.3800 -0.0492
   86MOL    C2417194   1.286   7.183   5.633  0.1840  0.0774  0.4554
   86MOL    C2517195   1.142   7.210   5.608  0.9128 -0.0815  0.7155
   86MOL    H2617196   1.254   6.980   5.704  0.6967  1.3168  0.7762
   86MOL    H2717197   1.283   6.989   5.535 -0.2214  0.3676  0.2058
   86MOL    H2817198   1.305   7.221   5.733  2.0843 -1.6778  0.7909
   86MOL    H2917199   1.354   7.245   5.574 -2.6172  0.0960 -2.8971
   86MOL    H3017200   1.112   7.312   5.634  0.6533  0.0365 -0.0255
   86MOL    H3117201   1.099   7.139   5.679  0.4163  2.3598  2.9663
   86MOL    O3217202   1.117   7.182   5.470 -0.0026 -0.1707 -0.0712
   86MOL    C3317203   1.158   7.282   5.381 -0.0616  0.1051 -0.6288
   86MOL    C3417204   1.220   7.212   5.262 -0.2026  0.1810 -0.3309
   86MOL    C3517205   1.269   7.305   5.156 -2.2129  0.2808 -0.1998
   86MOL    H3617206   1.243   7.342   5.413  0.6505 -1.0369 -0.3446
   86MOL    H3717207   1.083   7.355   5.352 -1.8217 -0.3697  2.4624
   86MOL    H3817208   1.300   7.149   5.300 -0.6554  0.0048  0.3466
   86MOL    H3917209   1.154   7.138   5.218 -0.1600  1.2747 -2.3107
   86MOL    H4017210   1.334   7.387   5.184  1.9615 -2.5769 -1.0481
   86MOL    H4117211   1.189   7.367   5.115 -0.9693  1.4661 -0.8581
   86MOL    O4217212   1.329   7.224   5.059 -0.5283 -0.4132 -0.2085
   86MOL    C4317213   1.253   7.174   4.943  0.0634 -0.5498  0.1424
   86MOL    C4417214   1.349   7.091   4.854 -0.0636  0.2774  0.3539
   86MOL    C4517215   1.393   6.966   4.924 -0.3390  0.7001 -0.9079
   86MOL    H4617216   1.225   7.266   4.892 -0.0022 -1.0970 -0.8310
   86MOL    H4717217   1.158   7.134   4.978 -0.8446  1.5526  0.1180
   86MOL    H4817218   1.290   7.070   4.766 -0.4968  0.2516  0.6488
   86MOL    H4917219   1.446   7.137   4.837 -0.1334  1.2250  2.3509
   86MOL    H5017220   1.303   6.913   4.956  0.0631  0.5278 -0.0326
   86MOL    H5117221   1.453   6.989   5.012 -1.3982 -1.1966  0.3466
   86MOL    O5217222   1.456   6.876   4.836 -0.2844 -0.0425 -0.3342
   86MOL    C5317223   1.490   6.745   4.887 -0.3314  0.1961 -0.5888
   86MOL    C5417224   1.588   6.743   5.010 -0.2952 -0.0058  0.4010
   86MOL    C5517225   1.622   6.598   5.044 -0.0860 -0.0354  0.6557
   86MOL    H5617226   1.539   6.689   4.807  0.6698  0.9043 -0.4752
   86MOL    H5717227   1.394   6.708   4.923  1.7015 -1.7444  3.0978
   86MOL    H5817228   1.681   6.791   4.978  0.3590  0.1713  2.4713
   86MOL    H5917229   1.548   6.797   5.095 -0.9922  1.2667 -0.7257
   86MOL    H6017230   1.670   6.555   4.956  0.3162  0.3448  0.6870
   86MOL    H6117231   1.529   6.546   5.069 -0.9546  2.3036  2.5103
   86MOL    O6217232   1.707   6.599   5.160  0.2495 -0.0823  0.3046
   86MOL    C6317233   1.762   6.473   5.191  0.9485  0.1428  0.5463
   86MOL    C6417234   1.836   6.497   5.324  0.3296 -0.0066 -0.7226
   86MOL    C6517235   1.933   6.383   5.344  0.2983  0.1132 -0.1197
   86MOL    H6617236   1.836   6.446   5.116 -0.1184 -0.4081 -0.3199
   86MOL    H6717237   1.693   6.389   5.201  0.3801  0.4829 -0.4344
   86MOL    H6817238   1.893   6.589   5.337 -0.4311 -0.0507  3.7747
   86MOL    H6917239   1.764   6.502   5.406  0.3937  2.8834 -0.7692
   86MOL    H7017240   1.980   6.368   5.247  0.5942 -1.8756  0.3113
   86MOL    H7117241   1.882   6.292   5.376 -1.9177  1.6362  0.7247
   86MOL    O7217242   2.019   6.422   5.444 -0.2705 -0.0606 -0.0458
   86MOL    C7317243   2.120   6.324   5.463  0.1189 -0.2364 -0.7164
   86MOL    C7417244   2.238   6.395   5.524 -0.0031  0.3439  0.1013
   86MOL    C7517245   2.299   6.514   5.447 -0.0935 -0.3177  0.2193
   86MOL    H7617246   2.140   6.274   5.369 -2.3173  1.1080 -1.9834
   86MOL    H7717247   2.084   6.244   5.528  2.4098 -1.8550 -1.3671
   86MOL    H7817248   2.208   6.445   5.616 -0.2654 -0.4201  0.4296
   86MOL    H7917249   2.314   6.322   5.554 -0.5058 -0.8575 -1.4835
   86MOL    H8017250   2.223   6.590   5.431  1.1897  0.8865 -0.2248
   86MOL    H8117251   2.324   6.488   5.344 -0.8684 -2.5453  0.5598
   86MOL    O8217252   2.403   6.572   5.521  0.1375  0.1779  0.1230
   86MOL    C8317253   2.450   6.689   5.464  0.0600 -0.1210  0.5102
   86MOL    C8417254   2.597   6.705   5.517 -0.0032 -0.1842  0.1572
   86MOL    C8517255   2.655   6.842   5.498 -0.1558  1.2454  0.0493
   86MOL    H8617256   2.394   6.767   5.517 -0.7980  1.4947 -2.6866
   86MOL    H8717257   2.432   6.712   5.359 -0.9499 -0.2728  0.6447
   86MOL    H8817258   2.599   6.683   5.624 -1.4217 -0.4320  0.1408
   86MOL    H8917259   2.655   6.629   5.465 -0.9861  0.0709 -1.3559
   86MOL    H9017260   2.633   6.858   5.393  3.5702 -0.8264 -1.1386
   86MOL    H9117261   2.761   6.831   5.525 -0.0906 -0.2784 -0.8195
   86MOL    O9217262   2.582   6.936   5.575 -0.1234 -0.2072 -0.2202
   86MOL    C9317263   2.630   7.073   5.555  0.2206  0.2022  0.5829
   86MOL    C9417264   2.528   7.156   5.479  0.4310 -0.4649 -0.2549
   86MOL    C9517265   2.571   7.301   5.453 -0.3733  0.4330  0.2453
   86MOL    H9617266   2.725   7.088   5.503 -0.1433  0.9778  0.1333
   86MOL    H9717267   2.637   7.110   5.658 -0.7886 -0.7185  0.9874
   86MOL    H9817268   2.514   7.120   5.377 -0.4244  2.4889 -1.2250
   86MOL    H9917269   2.430   7.160   5.526 -0.1467 -0.5468 -1.4462
   86MOL   H10017270   2.487   7.341   5.396 -0.7040  0.3114  0.6367
   86MOL   H10117271   2.663   7.300   5.395  0.9956 -1.3487  2.3430
   86MOL   O10217272   2.593   7.363   5.583 -0.4028 -0.2949  0.4029
   86MOL   C10317273   2.620   7.510   5.577  1.0360  0.0875 -0.1544
   86MOL   C10417274   2.660   7.590   5.697  0.4426  0.1607 -0.1204
   86MOL   C10517275   2.712   7.733   5.674 -0.4212 -0.0497 -0.7673
   86MOL   H10617276   2.539   7.562   5.526  1.6284  1.4026  0.2290
   86MOL   H10717277   2.701   7.523   5.505  0.0176 -0.3259 -1.4118
   86MOL   H10817278   2.574   7.587   5.764  1.3986 -0.1131  1.1058
   86MOL   H10917279   2.746   7.544   5.745  0.3003  1.7312  1.7311
   86MOL   H11017280   2.643   0.024   5.648 -0.8937 -1.1599 -2.9791
   86MOL   H11117281   2.785   7.745   5.594  1.0226 -0.5520  0.4388
   86MOL   O11217282   2.764   7.770   5.800 -0.3180 -0.3719 -0.0821
   86MOL   C11317283   2.790   0.116   5.819  0.4222  0.0146 -0.4894
   86MOL   C11417284   2.839   0.145   5.963 -0.1026 -0.8011 -0.1619
   86MOL   C11517285   2.973   0.076   5.990  0.3188 -0.6354 -0.6648
   86MOL   H11617286   2.697   0.170   5.802  0.9087  0.9710 -0.2108
   86MOL   H11717287   2.852   0.142   5.732 -0.6373  0.5497 -1.0903
   86MOL   H11817288   2.856   0.252   5.975 -0.4687 -0.3516 -3.2597
   86MOL   H11917289   2.756   0.118   6.028 -0.9343  1.0097 -0.4559
   86MOL   H12017290   3.049   0.109   5.919  1.2900 -0.7997  0.2979
   86MOL   H12117291   2.969   7.756   5.975  0.5570 -0.7642  0.2196
   86MOL   O12217292   3.024   0.099   6.122 -0.0584  0.4647  0.9526
   86MOL   C12317293   3.161   0.052   6.128  0.8654 -0.4021  0.1039
   86MOL   C12417294   3.223   0.069   6.265  0.2461  1.3765  0.3063
   86MOL   C12517295   3.372   0.084   6.284  0.1303  0.4874  0.1976
   86MOL   H12617296   3.220   0.095   6.047 -1.3454  1.2726 -0.6424
   86MOL   H12717297   3.158   7.733   6.107  0.7740 -1.0055  2.9907
   86MOL   H12817298   3.182   0.168   6.284  1.2779  1.4280  2.4538
   86MOL   H12917299   3.187   0.002   6.344 -1.8158  0.9696 -0.9278
   86MOL   H13017300   3.411   0.183   6.260 -1.6402  1.1586 -0.0378
   86MOL   H13117301   3.413   0.004   6.222 -1.5714  0.6537 -1.2029
   86MOL   O13217302   3.410   0.058   6.421 -0.1137 -0.1349  0.5484
   86MOL   C13317303   3.551   0.058   6.440 -0.1165 -0.1384  0.3279
   86MOL   C13417304   3.582   0.021   6.583  0.5252 -0.3730 -0.2837
   86MOL   C13517305   3.729   0.006   6.619  0.3558 -0.6648  0.3332
   86MOL   H13617306   3.584   0.158   6.413  1.0565  0.1715  2.8019
   86MOL   H13717307   3.592   7.769   6.375 -1.6965 -0.0856 -0.7734
   86MOL   H13817308   3.545   0.100   6.648 -0.4001 -1.2806  0.3060
   86MOL   H13917309   3.530   7.715   6.602  0.0240 -0.8667 -3.7679
   86MOL   H14017310   3.738   7.752   6.719 -1.4787 -3.3798 -0.5946
   86MOL   H14117311   3.767   0.108   6.610 -1.1710 -0.1547 -0.5334
   86MOL   O14217312   3.797   7.697   6.539 -0.0500 -0.3710 -0.5660
   86MOL   C14317313   3.938   7.735   6.533  0.3453 -0.0976  0.5638
   86MOL   C14417314   4.019   7.615   6.487 -0.2980 -0.4434  0.3051
   86MOL   C14517315   3.970   7.570   6.352 -0.0464 -0.2916  0.4650
   86MOL   H14617316   3.969   7.774   6.630 -0.2754  0.1491  0.6680
   86MOL   H14717317   3.950   0.031   6.464  0.6540 -1.1109 -0.6198
   86MOL   H14817318   4.120   7.656   6.478 -0.1195 -0.7796  0.7800
   86MOL   H14917319   4.004   7.534   6.558 -2.9801  0.4366  0.7912
   86MOL   H15017320   3.977   7.654   6.283  0.1244  0.1991  1.0757
   86MOL   H15117321   3.863   7.549   6.351 -0.1293  0.1368  0.3848
   86MOL   O15217322   4.028   7.444   6.313 -0.1587  0.0342  0.2549
   86MOL   C15317323   3.990   7.415   6.181  0.0025 -0.8078  0.6548
   86MOL   C15417324   4.029   7.271   6.156  0.0018  0.4470 -0.0531
   86MOL   C15517325   3.985   7.227   6.018 -0.2791  0.6660 -0.8738
   86MOL   H15617326   4.052   7.477   6.116 -1.5568 -0.6681 -0.7256
   86MOL   H15717327   3.888   7.449   6.165 -0.3564 -1.4652  1.4855
   86MOL   H15817328   4.136   7.252   6.169 -0.2114 -0.1069  0.9634
   86MOL   H15917329   3.974   7.208   6.226  0.8505  1.2793  1.3919
   86MOL   H16017330   3.877   7.230   6.003 -0.2328 -1.0086 -1.7000
   86MOL   H16117331   4.005   7.120   6.020 -1.8231  0.3797  1.0367
   86MOL   O16217332   4.071   7.288   5.929 -0.5172  0.3137  0.0691
   86MOL   C16317333   4.047   7.255   5.795 -0.2169 -0.2875 -0.1829
   86MOL   C16417334   4.167   7.316   5.724 -0.0346 -0.4164  0.5573
   86MOL   C16517335   4.206   7.239   5.599 -0.4808  0.0548 -0.5271
   86MOL   H16617336   3.947   7.286   5.767 -1.6472 -3.7553  0.8906
   86MOL   H16717337   4.049   7.146   5.793 -0.7541 -0.2992  0.1436
   86MOL   H16817338   4.158   7.420   5.695  2.4747 -0.6361 -1.1727
   86MOL   H16917339   4.251   7.319   5.794 -2.1208 -0.7463  3.1735
   86MOL   H17017340   4.111   7.242   5.547 -1.9303 -1.2427  1.9488
   86MOL   H17117341   4.234   7.135   5.610  0.9534  0.2449 -2.1439
   86MOL   O17217342   4.298   7.323   5.533  0.3902  0.0107  0.4277
   86MOL   C17317343   4.295   7.306   5.393  0.0117 -0.5604  0.6671
   86MOL   C17417344   4.426   7.366   5.330 -0.0638 -0.7229 -0.1447
   86MOL   C17517345   4.544   7.319   5.415 -0.5180 -0.3920 -0.2309
   86MOL   H17617346   4.205   7.357   5.357 -0.1046  0.0071  1.7446
   86MOL   H17717347   4.278   7.203   5.364 -0.6921 -0.4129  0.5380
   86MOL   H17817348   4.427   7.336   5.226  0.6634 -0.2027 -0.2937
   86MOL   H17917349   4.427   7.475   5.333 -1.9657 -0.7324  2.0219
   86MOL   H18017350   4.531   7.213   5.433 -4.1460  0.0750  0.3023
   86MOL   H18117351   4.537   7.360   5.516 -1.0112  0.6829 -0.6924
   86MOL   O18217352   4.670   7.348   5.352  0.3131  0.4352 -0.2486
   86MOL   C18317353   4.780   7.326   5.443 -0.6522  0.1329  0.3684
   86MOL   C18417354   4.796   7.180   5.499 -0.1582 -0.7101 -0.1431
   86MOL   C18517355   4.935   7.143   5.563  0.2901  0.5725  0.5181
   86MOL   H18617356   4.780   7.391   5.531  1.2200 -1.7797  1.8457
   86MOL   H18717357   4.864   7.366   5.387 -1.1215  0.2339 -0.2713
   86MOL   H18817358   4.717   7.149   5.568 -0.8012 -1.7124 -1.3101
   86MOL   H18917359   4.783   7.113   5.414 -2.9488  0.6135 -0.8253
   86MOL   H19017360   4.955   7.036   5.571 -2.8137 -0.1147 -0.2809
   86MOL   H19117361   4.937   7.188   5.662 -0.1058  2.2608 -0.2236
   86MOL   O19217362   5.040   7.199   5.486  0.2289 -0.5799  0.4564
   86MOL   C19317363   5.173   7.189   5.554  0.2381  0.0974 -0.0402
   86MOL   C19417364   5.286   7.271   5.488  0.0080 -0.3145 -0.1651
   86MOL   C19517365   5.263   7.424   5.488  0.2115 -0.5229 -0.0530
   86MOL   H19617366   5.198   7.083   5.556 -0.9126 -0.1876  2.5946
   86MOL   H19717367   5.170   7.229   5.656  0.5486 -0.1055  0.0498
   86MOL   H19817368   5.375   7.242   5.544  0.7592 -0.4538 -1.4032
   86MOL   H19917369   5.309   7.236   5.387  1.0090  0.8061 -0.3297
   86MOL   H20017370   5.318   7.481   5.413 -0.1171  1.0138  0.8642
   86MOL   H20117371   5.289   7.475   5.581 -2.4047 -0.0082  0.4372
   86MOL   H20217372   5.156   7.439   5.473 -0.8226 -5.1033  1.8002
   87MOL     O117373   0.731   7.532   2.159  0.5791 -0.6983  0.1670
   87MOL     C217374   0.791   7.656   2.148 -0.4679  0.0391 -0.1223
   87MOL     C317375   0.791   7.750   2.273  0.7983  0.6338  0.1119
   87MOL     C417376   0.833   0.109   2.236 -0.0341 -0.1123  0.0857
   87MOL     H517377   0.733   7.707   2.072  1.2954 -0.7113 -2.0257
   87MOL     H617378   0.886   7.618   2.110  1.2495  0.0171  3.9610
   87MOL     H717379   0.689   7.773   2.302  0.3310 -1.0520 -0.1639
   87MOL     H817380   0.840   7.718   2.365  0.9735  0.6223  0.0159
   87MOL     H917381   0.829   0.177   2.321 -1.2750 -1.6156  1.2657
   87MOL    H1017382   0.786   0.156   2.149  3.1720  2.5666 -0.2841
   87MOL    H1117383   0.772   7.483   2.228 -0.3428 -0.5248  0.8509
   87MOL    O1217384   0.975   0.105   2.208  0.1549 -0.4118  0.1508
   87MOL    C1317385   1.030   0.234   2.184  0.1053 -0.0600 -0.0934
   87MOL    C1417386   1.181   0.222   2.148 -0.7009  0.1661  0.0099
   87MOL    C1517387   1.203   0.162   2.003 -0.4089  0.1310  0.1233
   87MOL    H1617388   1.011   0.298   2.270 -1.1036  2.0615 -1.8649
   87MOL    H1717389   0.975   0.283   2.103 -1.1703 -0.2591  0.6348
   87MOL    H1817390   1.242   0.309   2.170  2.1269 -1.4060 -1.3735
   87MOL    H1917391   1.239   0.158   2.215  0.1190  0.2320 -0.6290
   87MOL    H2017392   1.153   0.223   1.927  1.2750 -0.3792 -1.4249
   87MOL    H2117393   1.154   0.064   1.999 -0.4578  0.0342  2.2536
   87MOL    O2217394   1.340   0.158   1.970  0.1354 -0.2629  0.1339
   87MOL    C2317395   1.345   0.092   1.839  0.4986  0.0923 -0.1479
   87MOL    C2417396   1.300   0.190   1.719  0.0896  0.2767 -0.1165
   87MOL    C2517397   1.268   0.119   1.591 -0.0501  0.4032  1.0360
   87MOL    H2617398   1.287   7.788   1.839  0.4748  0.1097  0.1399
   87MOL    H2717399   1.448   0.066   1.812 -0.2965 -4.4664  0.8213
   87MOL    H2817400   1.210   0.248   1.738 -0.3215 -0.1345 -0.7952
   87MOL    H2917401   1.385   0.258   1.707 -0.2439  0.4682 -1.5154
   87MOL    H3017402   1.253   0.188   1.508 -2.1869 -0.1004  0.9719
   87MOL    H3117403   1.176   0.061   1.594 -1.1857  1.8940 -2.0752
   87MOL    O3217404   1.388   0.045   1.554  0.1552 -0.1833 -0.3597
   87MOL    C3317405   1.361   7.728   1.463  0.9422  0.6517 -0.1185
   87MOL    C3417406   1.467   7.624   1.474 -0.1941  0.1289  0.2368
   87MOL    C3517407   1.596   7.669   1.413 -0.6347 -0.1237  0.4042
   87MOL    H3617408   1.354   7.767   1.362 -0.9757  0.8540  0.0723
   87MOL    H3717409   1.265   7.695   1.502  0.2469  2.5656 -0.1410
   87MOL    H3817410   1.471   7.596   1.579 -0.9308  0.3193  0.3214
   87MOL    H3917411   1.428   7.538   1.420 -0.7750 -0.0760  0.9727
   87MOL    H4017412   1.646   7.741   1.478  0.1972  0.5039 -0.9188
   87MOL    H4117413   1.586   7.698   1.309 -1.0409 -2.8609 -0.3663
   87MOL    O4217414   1.675   7.548   1.405 -0.3333 -0.1990  0.3341
   87MOL    C4317415   1.798   7.576   1.345  0.7781 -0.5287  0.1062
   87MOL    C4417416   1.838   7.445   1.278 -0.2954  0.1541  0.2201
   87MOL    C4517417   1.959   7.458   1.188  0.1706  0.5303  0.5184
   87MOL    H4617418   1.875   7.601   1.417  1.0082 -0.0170 -0.3186
   87MOL    H4717419   1.788   7.654   1.269  1.7614 -1.4519 -0.9955
   87MOL    H4817420   1.862   7.377   1.360 -4.0176  0.9880  2.1214
   87MOL    H4917421   1.752   7.405   1.224  0.3059 -1.4081  0.3803
   87MOL    H5017422   2.042   7.501   1.244 -0.2968  1.9675  0.1294
   87MOL    H5117423   1.931   7.527   1.108 -1.2558  1.3772  1.7239
   87MOL    O5217424   1.989   7.325   1.142 -0.5094 -0.2803  0.1254
   87MOL    C5317425   2.094   7.326   1.047 -0.6597 -0.6657 -0.7153
   87MOL    C5417426   2.085   7.190   0.985 -0.1062  0.1011  0.1214
   87MOL    C5517427   1.955   7.163   0.908 -0.0361 -0.0904 -0.1695
   87MOL    H5617428   2.192   7.333   1.093 -0.0340 -0.6427 -2.0506
   87MOL    H5717429   2.072   7.404   0.974  0.6267  0.4725  0.0909
   87MOL    H5817430   2.165   7.183   0.911 -0.0560 -0.7376  0.2415
   87MOL    H5917431   2.111   7.115   1.060 -1.3849 -1.7405 -1.2341
   87MOL    H6017432   1.942   7.248   0.841 -0.9664 -0.1074 -0.0149
   87MOL    H6117433   1.863   7.159   0.966 -0.4044  0.8516 -0.6798
   87MOL    O6217434   1.968   7.049   0.834  0.3526  0.0224  0.1308
   87MOL    C6317435   1.890   7.043   0.716 -0.4244 -0.5097  0.4597
   87MOL    C6417436   1.943   6.934   0.626 -0.3619 -0.2583  0.2271
   87MOL    C6517437   1.850   6.894   0.509 -0.6355 -0.0262  0.3136
   87MOL    H6617438   1.879   7.142   0.672 -0.5482 -0.2064  1.1593
   87MOL    H6717439   1.790   7.015   0.750 -0.4975 -2.3241 -1.1754
   87MOL    H6817440   2.042   6.967   0.595  0.6160 -3.2595 -0.0100
   87MOL    H6917441   1.970   6.845   0.683  2.0159  1.0843  1.2664
   87MOL    H7017442   1.812   6.979   0.452  0.7232  1.3299  1.3651
   87MOL    H7117443   1.759   6.849   0.548 -1.1383  0.1539 -0.6498
   87MOL    O7217444   1.914   6.785   0.439 -0.3196  0.8142  0.4596
   87MOL    C7317445   1.841   6.736   0.333 -0.2780 -0.8832 -0.7562
   87MOL    C7417446   1.913   6.611   0.279 -0.6591 -0.1341  0.1717
   87MOL    C7517447   1.998   6.642   0.161 -0.1608 -0.4248 -0.6574
   87MOL    H7617448   1.839   6.813   0.256 -1.8153 -0.9018 -0.7482
   87MOL    H7717449   1.740   6.712   0.366  0.0805 -2.5685 -0.8096
   87MOL    H7817450   1.965   6.566   0.364 -0.7661 -1.3707 -0.4121
   87MOL    H7917451   1.836   6.538   0.251  0.5430 -1.3183 -0.0747
   87MOL    H8017452   2.058   6.733   0.173 -1.7433  0.1524  3.7331
   87MOL    H8117453   1.940   6.651   0.069 -2.0585  1.0365  0.6343
   87MOL    O8217454   2.093   6.536   0.137  0.2534 -0.3102 -0.0350
   87MOL    C8317455   2.043   6.407   0.095  0.4305  0.2835 -0.3501
   87MOL    C8417456   2.179   6.332   0.102  0.5435  0.1899  0.2783
   87MOL    C8517457   2.168   6.182   0.080  0.2918  0.1412 -0.1943
   87MOL    H8617458   2.001   6.398   7.783 -0.1287  2.2361 -0.3103
   87MOL    H8717459   1.972   6.373   0.170  0.7612 -2.4986 -1.2291
   87MOL    H8817460   2.244   6.376   0.027 -0.1986 -0.1172 -0.5457
   87MOL    H8917461   2.233   6.342   0.197 -0.7922 -1.7109  1.2864
   87MOL    H9017462   2.135   6.162   7.767  0.8642 -2.3550  0.0631
   87MOL    H9117463   2.091   6.147   0.149 -3.1805  2.2328 -2.9173
   87MOL    O9217464   2.291   6.118   0.097  0.0698 -0.3880 -0.2186
   87MOL    C9317465   2.296   5.980   0.067 -0.1757 -0.5710 -0.5576
   87MOL    C9417466   2.433   5.937   0.133  0.6494  0.0475  0.0750
   87MOL    C9517467   2.449   5.783   0.114  0.2851 -0.2714 -0.3791
   87MOL    H9617468   2.275   5.977   7.749 -0.5719  1.1015 -0.5441
   87MOL    H9717469   2.207   5.939   0.116 -0.0989 -0.3268 -0.2076
   87MOL    H9817470   2.512   5.985   0.075 -0.5396  0.7279 -1.0080
   87MOL    H9917471   2.446   5.962   0.238 -1.5263 -1.4570  0.7398
   87MOL   H10017472   2.484   5.762   0.012 -0.0595  0.9967 -0.7734
   87MOL   H10117473   2.361   5.727   0.142 -0.2402  0.1730 -1.1259
   87MOL   O10217474   2.564   5.746   0.188  0.5968 -0.1013 -0.2241
   87MOL   C10317475   2.581   5.609   0.196  0.2755 -0.3156  0.6771
   87MOL   C10417476   2.718   5.585   0.141  0.2508  0.3201  0.1125
   87MOL   C10517477   2.749   5.433   0.126 -0.2517 -0.1471  0.2442
   87MOL   H10617478   2.510   5.551   0.136 -0.0288  0.5008  0.2426
   87MOL   H10717479   2.579   5.572   0.298  0.5188 -0.4188  0.6470
   87MOL   H10817480   2.726   5.639   0.046 -2.4635  0.8694  0.1551
   87MOL   H10917481   2.791   5.622   0.213 -2.7067  2.2151  2.2548
   87MOL   H11017482   2.675   5.395   0.055  0.5648 -0.0510 -0.6652
   87MOL   H11117483   2.728   5.388   0.223  0.5320  0.2360  0.5913
   87MOL   O11217484   2.892   5.417   0.097  0.1534 -0.0120 -0.4960
   87MOL   C11317485   2.934   5.440   7.753  1.2271 -0.6280 -0.6191
   87MOL   C11417486   3.082   5.409   7.736 -0.1129 -0.5462 -0.8691
   87MOL   C11517487   3.127   5.426   7.591  0.4657 -0.1059  0.2277
   87MOL   H11617488   2.913   5.541   7.718 -1.5288 -0.5143  1.1558
   87MOL   H11717489   2.869   5.376   7.692  3.4606 -0.1769 -3.5370
   87MOL   H11817490   3.135   5.488   0.002  0.4793 -3.0093  2.3050
   87MOL   H11917491   3.103   5.308   7.773 -1.8025 -1.4095 -2.2529
   87MOL   H12017492   3.236   5.427   7.588  0.4555 -1.6218 -2.0534
   87MOL   H12117493   3.092   5.520   7.549 -1.3009 -1.2113 -0.8540
   87MOL   O12217494   3.078   5.316   7.510 -0.1294 -0.3435  0.1919
   87MOL   C12317495   3.126   5.317   7.376  0.4174  0.1966 -0.0240
   87MOL   C12417496   3.059   5.203   7.303 -0.3970 -0.0407  0.4594
   87MOL   C12517497   3.100   5.188   7.157  0.4386  0.0894  0.3829
   87MOL   H12617498   3.235   5.312   7.377  0.4431  0.7683  0.0172
   87MOL   H12717499   3.098   5.403   7.317  0.1214  0.0193 -0.1419
   87MOL   H12817500   3.088   5.108   7.347  3.3463 -1.0074 -3.6551
   87MOL   H12917501   2.951   5.214   7.295 -0.0663  1.7653 -2.6173
   87MOL   H13017502   3.205   5.161   7.140  0.9010  1.9245  0.2362
   87MOL   H13117503   3.104   5.285   7.109  0.1007 -0.4781 -0.8016
   87MOL   O13217504   3.017   5.100   7.089  0.0978 -0.3277  0.0606
   87MOL   C13317505   3.062   5.068   6.957 -0.3773 -0.0235 -0.0288
   87MOL   C13417506   2.964   4.969   6.908 -0.0732 -0.8227  1.2263
   87MOL   C13517507   3.008   4.908   6.776 -0.0675 -0.4606 -0.0058
   87MOL   H13617508   3.158   5.015   6.961 -0.7053 -0.6280 -0.0581
   87MOL   H13717509   3.073   5.154   6.891 -0.5568  0.0655  0.0594
   87MOL   H13817510   2.947   4.900   6.990  0.8231  0.1706  2.2720
   87MOL   H13917511   2.877   5.032   6.890  1.3087  1.4148  2.1533
   87MOL   H14017512   2.940   4.831   6.741 -1.5892  0.3836  1.0596
   87MOL   H14117513   3.110   4.868   6.783  0.3634  0.9661  2.9906
   87MOL   O14217514   3.002   5.006   6.671 -0.3555  0.2929  0.1054
   87MOL   C14317515   3.064   4.959   6.551 -0.0336 -0.2440 -0.0460
   87MOL   C14417516   3.017   5.044   6.437  0.9925  0.0709  0.5916
   87MOL   C14517517   3.053   5.192   6.447  0.3911 -0.1132  0.0757
   87MOL   H14617518   3.032   4.856   6.536 -2.0393  0.4421 -0.6563
   87MOL   H14717519   3.172   4.953   6.564 -0.2876 -1.6741  1.5061
   87MOL   H14817520   3.061   4.996   6.349  0.8176 -0.1269  0.6100
   87MOL   H14917521   2.910   5.026   6.430  1.0362  0.3715 -0.9105
   87MOL   H15017522   3.162   5.200   6.438  0.0852  0.9696 -3.0478
   87MOL   H15117523   3.031   5.238   6.544 -0.9686  0.2349 -0.3998
   87MOL   O15217524   2.979   5.264   6.354 -0.0706  0.3822  0.5230
   87MOL   C15317525   3.031   5.396   6.331 -0.9254 -0.2931 -0.4657
   87MOL   C15417526   2.974   5.448   6.204  0.1080 -0.5407 -0.3624
   87MOL   C15517527   3.021   5.585   6.156 -0.8145  0.0622 -0.0945
   87MOL   H15617528   3.139   5.381   6.323 -0.9313  0.5495 -2.4557
   87MOL   H15717529   3.009   5.459   6.417  0.2130 -0.9508  0.3188
   87MOL   H15817530   2.984   5.382   6.117  0.1024 -1.1886  0.1320
   87MOL   H15917531   2.869   5.466   6.229  0.1963 -0.1131 -0.2934
   87MOL   H16017532   3.042   5.658   6.234  0.3690  1.4899 -1.7218
   87MOL   H16117533   2.950   5.624   6.082 -0.3353  2.5903  0.7164
   87MOL   O16217534   3.147   5.563   6.091 -0.1100  0.0876  0.2004
   87MOL   C16317535   3.211   5.674   6.033 -0.3429  1.0329  0.3263
   87MOL   C16417536   3.313   5.633   5.919 -0.4245 -0.2114 -0.5072
   87MOL   C16517537   3.451   5.605   5.983  0.9672 -0.1485  0.4371
   87MOL   H16617538   3.255   5.738   6.110 -0.1252 -0.9934  1.9479
   87MOL   H16717539   3.136   5.732   5.979 -1.5246  1.1502  2.0384
   87MOL   H16817540   3.277   5.549   5.860 -0.7011 -0.6932  0.3391
   87MOL   H16917541   3.321   5.719   5.853  1.1526 -0.2725 -0.4201
   87MOL   H17017542   3.434   5.506   6.026  0.6865 -0.7011 -0.9425
   87MOL   H17117543   3.481   5.667   6.068  0.6185  2.8902 -1.5732
   87MOL   O17217544   3.549   5.597   5.875 -0.2481 -0.0220  0.0038
   87MOL   C17317545   3.657   5.513   5.910  0.1930  0.4675  0.6978
   87MOL   C17417546   3.735   5.494   5.779 -0.0599  0.1432 -0.4776
   87MOL   C17517547   3.840   5.379   5.799  0.3711 -0.0366  0.2921
   87MOL   H17617548   3.608   5.422   5.945 -1.1021  1.1673  0.7321
   87MOL   H17717549   3.721   5.546   5.992 -0.6867 -0.9287  1.9868
   87MOL   H17817550   3.656   5.468   5.709  0.8864 -1.5974 -0.9310
   87MOL   H17917551   3.785   5.588   5.755 -0.6514  0.9854  1.4436
   87MOL   H18017552   3.898   5.380   5.891 -1.9172 -0.6596  1.7619
   87MOL   H18117553   3.926   5.390   5.732  0.0581  0.3412 -0.0469
   87MOL   O18217554   3.773   5.250   5.790 -0.3957  0.7101  0.4886
   87MOL   C18317555   3.859   5.151   5.736 -0.4059 -0.3320 -0.7570
   87MOL   C18417556   3.793   5.019   5.736  0.3738  0.4060  0.0439
   87MOL   C18517557   3.786   4.923   5.851  0.2603  0.1368  0.3441
   87MOL   H18617558   3.951   5.152   5.794 -1.3109 -0.0713  0.6836
   87MOL   H18717559   3.885   5.184   5.636  1.5500 -1.0568 -0.5015
   87MOL   H18817560   3.690   5.042   5.706  0.0172  1.2393  1.8048
   87MOL   H18917561   3.837   4.973   5.648 -0.1794 -1.0741  0.5123
   87MOL   H19017562   3.730   4.974   5.929  2.7631  1.3385  1.4179
   87MOL   H19117563   3.882   4.913   5.901 -0.5501 -1.2508  1.6413
   87MOL   O19217564   3.750   4.796   5.806 -0.0626 -0.6905  0.8111
   87MOL   C19317565   3.740   4.694   5.903  0.3259  0.0340  0.6506
   87MOL   C19417566   3.740   4.555   5.830  0.4784  0.3574  0.0558
   87MOL   C19517567   3.606   4.536   5.760  0.8873 -0.2704 -0.4324
   87MOL   H19617568   3.657   4.695   5.974 -0.9726  0.3312 -0.8523
   87MOL   H19717569   3.828   4.695   5.967 -0.7638 -0.1696  2.1945
   87MOL   H19817570   3.825   4.534   5.764  0.3922  0.7462 -0.1839
   87MOL   H19917571   3.735   4.477   5.906 -0.2718 -1.0237 -1.3860
   87MOL   H20017572   3.521   4.550   5.827 -0.4650 -2.8680 -1.5472
   87MOL   H20117573   3.599   4.433   5.727 -1.4013 -0.0986 -0.5878
   87MOL   H20217574   3.581   4.603   5.678 -1.2496  0.6997  0.9557
   88MOL     O117575   4.606   4.135   2.406 -0.1539  0.7528  0.5060
   88MOL     C217576   4.673   4.152   2.290  0.2152 -0.0674  0.2409
   88MOL     C317577   4.723   4.297   2.281  0.0785 -0.1353  0.1588
   88MOL     C417578   4.769   4.332   2.140  0.2180  0.2062 -0.2758
   88MOL     H517579   4.607   4.142   2.204  1.5241  1.2262 -0.9487
   88MOL     H617580   4.753   4.079   2.276  1.0135  0.5676  1.4273
   88MOL     H717581   4.633   4.358   2.289 -0.0236 -0.1664 -0.7674
   88MOL     H817582   4.794   4.311   2.362  0.5188  0.1287 -0.2754
   88MOL     H917583   4.771   4.441   2.145 -1.6329  0.1885  1.9662
   88MOL    H1017584   4.704   4.296   2.061 -1.2439  1.2972  0.4017
   88MOL    H1117585   4.538   4.199   2.419 -0.0330  1.5130 -2.4068
   88MOL    O1217586   4.904   4.289   2.120 -0.2082 -0.5631  0.0318
   88MOL    C1317587   4.950   4.311   1.991 -0.0643 -0.4567 -0.3919
   88MOL    C1417588   5.100   4.264   1.982  0.3657 -0.3455 -0.9442
   88MOL    C1517589   5.208   4.338   2.062 -0.0599  0.0166  0.3218
   88MOL    H1617590   4.945   4.419   1.980  0.1050  0.1163  4.2585
   88MOL    H1717591   4.881   4.261   1.923 -1.1581  0.1683  0.2471
   88MOL    H1817592   5.104   4.162   2.021  0.7207 -0.4362 -1.2072
   88MOL    H1917593   5.127   4.241   1.878  0.6910 -2.5395 -0.3966
   88MOL    H2017594   5.193   4.324   2.169  0.1205 -0.0863  0.3342
   88MOL    H2117595   5.201   4.445   2.043 -1.0570 -0.2357 -0.8218
   88MOL    O2217596   5.333   4.291   2.024  0.3094  0.0454 -0.3294
   88MOL    C2317597   5.436   4.379   2.062  0.2707  0.1565  0.1494
   88MOL    C2417598   5.574   4.328   2.010 -0.1263 -0.4494 -0.4492
   88MOL    C2517599   5.679   4.439   2.039  0.3307  0.4220  0.4952
   88MOL    H2617600   5.433   4.374   2.171 -2.3166  0.5069  0.1275
   88MOL    H2717601   5.417   4.477   2.019 -1.6958  1.1294  3.0538
   88MOL    H2817602   5.613   4.234   2.049 -2.0554 -0.7528  0.8470
   88MOL    H2917603   5.563   4.309   1.904  0.4015  0.2060 -0.6226
   88MOL    H3017604   5.702   4.473   2.141 -0.5481 -3.2648  1.9856
   88MOL    H3117605   5.651   4.519   1.970  1.8290  1.4354  1.0295
   88MOL    O3217606   5.803   4.385   1.993  0.1232  0.1950  0.0418
   88MOL    C3317607   5.915   4.479   1.983 -0.0342 -0.4862  0.0361
   88MOL    C3417608   6.035   4.383   1.975  0.8074 -0.2464 -1.0351
   88MOL    C3517609   6.167   4.463   1.977  0.5965  0.1027 -0.3093
   88MOL    H3617610   5.928   4.542   2.071 -1.9555 -0.3074  0.2142
   88MOL    H3717611   5.924   4.541   1.894  1.2607 -0.4562  0.1765
   88MOL    H3817612   6.024   4.321   2.065  0.3836  1.5519  0.1789
   88MOL    H3917613   6.025   4.314   1.892 -0.9807  1.5676 -2.3392
   88MOL    H4017614   6.253   4.395   1.973  1.7140  1.5601 -1.1609
   88MOL    H4117615   6.169   4.509   2.076 -1.5161  0.0565 -0.2149
   88MOL    O4217616   6.184   4.558   1.873 -0.1576 -0.7242 -0.1619
   88MOL    C4317617   6.307   4.617   1.895  0.5518 -0.1617  0.0565
   88MOL    C4417618   6.334   4.720   1.784 -0.1214 -0.1027 -0.1316
   88MOL    C4517619   6.472   4.789   1.812 -0.7832  0.0365 -0.6202
   88MOL    H4617620   6.385   4.541   1.890  1.3730  0.5722  1.4485
   88MOL    H4717621   6.304   4.666   1.992  0.7050 -3.2003  1.6344
   88MOL    H4817622   6.333   4.676   1.684 -1.0025  0.1261 -0.2283
   88MOL    H4917623   6.257   4.798   1.783 -1.0819 -1.0381 -0.7517
   88MOL    H5017624   6.500   4.847   1.724  0.7221 -1.0667 -0.8755
   88MOL    H5117625   6.554   4.729   1.851  0.3523  1.1371 -1.2834
   88MOL    O5217626   6.445   4.872   1.930 -0.1462  0.1660 -0.0525
   88MOL    C5317627   6.535   4.980   1.935 -0.1160 -0.4416  0.3044
   88MOL    C5417628   6.493   5.074   2.047  0.3700  0.5759 -0.0116
   88MOL    C5517629   6.543   5.214   2.034  0.1678 -0.1649  0.4386
   88MOL    H5617630   6.552   5.037   1.843  0.3893  1.0196  1.2803
   88MOL    H5717631   6.636   4.952   1.965  0.1306  0.3914  0.2905
   88MOL    H5817632   6.386   5.080   2.066  0.4399  2.8117 -0.2869
   88MOL    H5917633   6.533   5.030   2.139 -0.3911  0.8034  0.4347
   88MOL    H6017634   6.488   5.251   1.947  0.0330  0.7090  0.8955
   88MOL    H6117635   6.650   5.215   2.012  0.0904 -1.7331 -0.1429
   88MOL    O6217636   6.529   5.297   2.145 -0.0652  0.5551 -0.0500
   88MOL    C6317637   6.589   5.432   2.129 -0.7624  0.0565  0.0403
   88MOL    C6417638   6.513   5.510   2.026  0.4166  0.2099  0.5396
   88MOL    C6517639   6.543   5.657   2.028 -0.0469  0.0573  0.6528
   88MOL    H6617640   6.697   5.431   2.113 -0.8797 -1.8776 -0.7226
   88MOL    H6717641   6.574   5.479   2.226 -1.5312  0.5314 -0.3065
   88MOL    H6817642   6.540   5.471   1.928  0.4471 -1.1270  1.0650
   88MOL    H6917643   6.405   5.502   2.037  0.3918  0.4941  0.5100
   88MOL    H7017644   6.650   5.675   2.025 -0.4619  2.5891 -0.2207
   88MOL    H7117645   6.502   5.710   2.115 -0.8380  0.8436 -0.1844
   88MOL    O7217646   6.467   5.699   1.915  0.6786  0.3859 -0.5820
   88MOL    C7317647   6.480   5.842   1.902 -0.0418  0.1672  0.3579
   88MOL    C7417648   6.418   5.883   1.764 -0.4393 -0.4647 -0.4167
   88MOL    C7517649   6.431   6.030   1.726 -0.6969 -0.0253  0.0683
   88MOL    H7617650   6.584   5.875   1.892  0.5836 -1.4370  1.5488
   88MOL    H7717651   6.438   5.900   1.984 -1.3183  0.8285 -0.7465
   88MOL    H7817652   6.465   5.815   1.693 -0.9663  0.2219 -1.4194
   88MOL    H7917653   6.312   5.857   1.769  0.0294 -2.3737  0.2967
   88MOL    H8017654   6.386   6.088   1.807 -2.1844 -0.5964 -0.3288
   88MOL    H8117655   6.383   6.043   1.629 -2.3069 -2.2806  0.5248
   88MOL    O8217656   6.571   6.057   1.713 -0.6909 -0.3381 -0.3970
   88MOL    C8317657   6.613   6.191   1.682  0.5129 -0.8559  0.1452
   88MOL    C8417658   6.766   6.199   1.681  0.4412  0.2325 -0.3670
   88MOL    C8517659   6.838   6.182   1.818 -0.0031  0.6390  0.6522
   88MOL    H8617660   6.577   6.266   1.752 -0.0481 -0.8056 -0.2007
   88MOL    H8717661   6.572   6.226   1.588 -0.2659  1.0934  1.1814
   88MOL    H8817662   6.811   6.128   1.612 -0.1443 -0.6206  0.1074
   88MOL    H8917663   6.790   6.300   1.650  1.3980 -0.0100 -0.4394
   88MOL    H9017664   6.795   6.092   1.861  2.3062 -0.8194 -0.0116
   88MOL    H9117665   6.797   6.257   1.886  2.5027  1.6717  1.0971
   88MOL    O9217666   6.979   6.194   1.807 -0.1312 -0.0774 -0.1160
   88MOL    C9317667   7.042   6.248   1.926  0.3973 -0.5083  0.9917
   88MOL    C9417668   7.050   6.147   2.036 -0.5802 -0.4408 -1.1098
   88MOL    C9517669   7.116   6.208   2.159  0.1410  0.1991  0.1845
   88MOL    H9617670   6.991   6.338   1.961  0.5624 -0.2806  0.6439
   88MOL    H9717671   7.141   6.291   1.913 -0.4339  1.5326  1.0892
   88MOL    H9817672   6.949   6.108   2.050 -0.9097  0.7751  0.0356
   88MOL    H9917673   7.112   6.063   2.007 -0.1848  0.0058 -1.5637
   88MOL   H10017674   7.038   6.282   2.178  0.6021  0.9839 -0.9634
   88MOL   H10117675   7.208   6.257   2.128 -0.0728  0.4716 -0.0224
   88MOL   O10217676   7.135   6.137   2.282 -0.2418 -0.1433 -0.1511
   88MOL   C10317677   7.189   6.231   2.382 -0.0153 -0.0414 -0.2406
   88MOL   C10417678   7.264   6.153   2.496  0.5345  0.0882 -0.0023
   88MOL   C10517679   7.348   6.246   2.582  0.0089  0.2782  0.3320
   88MOL   H10617680   7.105   6.295   2.409 -0.2371  0.1643 -1.4234
   88MOL   H10717681   7.268   6.282   2.327 -0.7687  0.7867 -0.5674
   88MOL   H10817682   7.195   6.105   2.566 -1.4801  2.1094 -0.5515
   88MOL   H10917683   7.323   6.071   2.455 -0.4448 -0.8375  0.4156
   88MOL   H11017684   7.280   6.313   2.636 -2.1784 -1.0568 -0.6887
   88MOL   H11117685   7.415   6.304   2.518 -1.0643  0.0162 -1.0526
   88MOL   O11217686   7.416   6.166   2.675  0.4574 -0.3776  0.2374
   88MOL   C11317687   7.490   6.247   2.769 -0.1522  0.0059 -0.1803
   88MOL   C11417688   7.413   6.276   2.895  0.2604 -0.0473 -0.5300
   88MOL   C11517689   7.482   6.387   2.987  0.0096 -0.0940 -0.5629
   88MOL   H11617690   7.521   6.343   2.729  0.5940 -0.3219 -0.4112
   88MOL   H11717691   7.587   6.209   2.802  0.8289  2.8718  0.3059
   88MOL   H11817692   7.327   6.334   2.864  0.3873  0.0098 -0.7828
   88MOL   H11917693   7.382   6.186   2.949 -1.0714  0.9712  0.4116
   88MOL   H12017694   7.585   6.353   3.000 -0.0366  0.6713  1.8943
   88MOL   H12117695   7.427   6.395   3.080  2.1538 -0.5014  0.7812
   88MOL   O12217696   7.482   6.509   2.913 -0.1770 -0.0297  0.1913
   88MOL   C12317697   7.538   6.612   2.999  0.1398 -0.0562  0.9974
   88MOL   C12417698   7.548   6.750   2.929  0.4852 -0.0721 -0.1106
   88MOL   C12517699   7.600   6.858   3.024  0.0766  1.0414 -0.0940
   88MOL   H12617700   7.643   6.591   3.019  0.6299  2.7269  1.4824
   88MOL   H12717701   7.472   6.616   3.086 -1.3922 -1.6759 -0.0618
   88MOL   H12817702   7.604   6.748   2.836  1.8959  1.3016  0.6897
   88MOL   H12917703   7.446   6.771   2.897  0.0775  0.3824  1.4454
   88MOL   H13017704   7.701   6.837   3.058 -0.5915  0.8494  1.8052
   88MOL   H13117705   7.537   6.857   3.113 -1.7681  1.3603 -1.3625
   88MOL   O13217706   7.576   6.983   2.966 -0.6348 -0.1896  0.4641
   88MOL   C13317707   7.662   7.011   2.854 -0.5911  0.5990 -0.4875
   88MOL   C13417708   7.568   7.037   2.733  0.2472 -0.7948  0.0683
   88MOL   C13517709   7.498   7.170   2.748  0.0017  0.7729 -0.2795
   88MOL   H13617710   7.731   6.934   2.818  0.3867  2.2911 -2.3291
   88MOL   H13717711   7.719   7.103   2.861  0.3733 -0.1886  2.6410
   88MOL   H13817712   7.636   7.052   2.649  0.1691  2.0632  0.4607
   88MOL   H13917713   7.504   6.950   2.717 -1.2630 -0.0468  1.8114
   88MOL   H14017714   7.581   7.240   2.747 -0.1798  1.0925  2.6078
   88MOL   H14117715   7.433   7.187   2.834 -0.2972 -0.8413 -0.1534
   88MOL   O14217716   7.415   7.192   2.634  0.2332  0.0869  0.6549
   88MOL   C14317717   7.465   7.269   2.527 -0.2699  0.5527 -0.0146
   88MOL   C14417718   7.338   7.284   2.428 -0.0369  0.1253  0.1495
   88MOL   C14517719   7.355   7.404   2.346 -0.2592 -0.4185 -0.5262
   88MOL   H14617720   7.549   7.215   2.483 -0.4788 -0.1543  0.4527
   88MOL   H14717721   7.499   7.367   2.561  0.4268  0.8106 -1.3883
   88MOL   H14817722   7.305   7.197   2.370  0.4899 -0.5382  0.8276
   88MOL   H14917723   7.245   7.303   2.481 -0.2880  1.3435 -0.7154
   88MOL   H15017724   7.388   7.486   2.410 -0.5093 -1.2612  0.6943
   88MOL   H15117725   7.257   7.435   2.310 -1.0361  1.2834  2.8759
   88MOL   O15217726   7.448   7.396   2.241  0.0917  0.3771  0.5742
   88MOL   C15317727   7.478   7.526   2.185  0.4977 -0.2216  0.0539
   88MOL   C15417728   7.597   7.529   2.090  0.5274  0.6778  0.8075
   88MOL   C15517729   7.731   7.518   2.168 -0.1763 -0.4361  0.2432
   88MOL   H15617730   7.476   7.603   2.262  1.5254 -1.2198  1.1042
   88MOL   H15717731   7.390   7.556   2.129  1.4520  1.1740 -0.7287
   88MOL   H15817732   7.592   7.447   2.019  0.8964 -1.3400  3.0363
   88MOL   H15917733   7.601   7.621   2.032  0.7955  0.0338 -0.2014
   88MOL   H16017734   7.710   7.463   2.260 -0.2698 -0.5422  0.1574
   88MOL   H16117735   7.749   7.620   2.202 -0.5520 -0.1483 -0.4080
   88MOL   O16217736   0.050   7.467   2.090  0.1518 -0.8122  0.1335
   88MOL   C16317737   0.158   7.448   2.179 -0.9501  0.6740  0.2051
   88MOL   C16417738   0.285   7.393   2.101  0.1247  0.3590 -0.2313
   88MOL   C16517739   0.417   7.402   2.185  0.3324  0.2601  0.8902
   88MOL   H16617740   0.125   7.370   2.248 -2.0965  1.2163  0.2883
   88MOL   H16717741   0.182   7.540   2.232  1.5237  1.2947 -1.9159
   88MOL   H16817742   0.281   7.289   2.068  0.9762 -0.3377  1.7603
   88MOL   H16917743   0.291   7.448   2.007  0.7738 -3.1760 -2.3249
   88MOL   H17017744   0.418   7.499   2.234 -3.3174  0.2487  1.1911
   88MOL   H17117745   0.498   7.392   2.113 -2.1635  1.2618 -2.1709
   88MOL   O17217746   0.431   7.294   2.278  0.6627 -0.2705 -0.2833
   88MOL   C17317747   0.567   7.288   2.329 -0.0887 -0.2871  0.1907
   88MOL   C17417748   0.549   7.172   2.424  0.2877 -0.4953 -0.4190
   88MOL   C17517749   0.671   7.140   2.511  0.3174  0.5693 -0.0661
   88MOL   H17617750   0.611   7.379   2.368 -1.9453  1.0117 -0.6771
   88MOL   H17717751   0.627   7.258   2.243  0.3226 -1.1899  0.7864
   88MOL   H17817752   0.461   7.180   2.487 -1.0381  1.0857 -2.3747
   88MOL   H17917753   0.518   7.079   2.375  0.0664 -1.1898  1.0243
   88MOL   H18017754   0.756   7.102   2.453  0.8029  0.7856  0.4991
   88MOL   H18117755   0.656   7.052   2.572 -0.7710  0.1103 -0.9960
   88MOL   O18217756   0.705   7.251   2.596 -0.5520 -0.3324  0.4167
   88MOL   C18317757   0.612   7.262   2.712  0.8462  0.1847  0.2867
   88MOL   C18417758   0.647   7.376   2.798  0.0688 -0.9034 -0.0592
   88MOL   C18517759   0.625   7.510   2.725 -0.0753  0.0038 -0.2437
   88MOL   H18617760   0.610   7.169   2.770 -2.5100  0.2258  0.3416
   88MOL   H18717761   0.510   7.276   2.677  2.4084  2.8055 -3.5836
   88MOL   H18817762   0.588   7.373   2.890  1.5046 -0.7541  0.8832
   88MOL   H18917763   0.754   7.377   2.820  0.1278 -0.8564 -0.3479
   88MOL   H19017764   0.679   7.515   2.630  1.5850  0.7888  0.7107
   88MOL   H19117765   0.676   7.592   2.775 -0.5511  1.5198 -2.2010
   88MOL   O19217766   0.489   7.535   2.719  0.1997 -0.0223  0.1297
   88MOL   C19317767   0.447   7.624   2.617  0.4720 -0.6264  0.8233
   88MOL   C19417768   0.328   7.692   2.670 -0.2675 -0.3827  0.1609
   88MOL   C19517769   0.380   0.022   2.759  0.1915  1.1787  0.1974
   88MOL   H19617770   0.427   7.566   2.527  0.8696 -0.3914  0.5834
   88MOL   H19717771   0.520   7.701   2.593 -1.1559  0.2855 -1.3544
   88MOL   H19817772   0.255   7.714   2.592  1.4414  1.0980 -1.0561
   88MOL   H19917773   0.268   7.625   2.732 -0.3983  0.7922  1.3190
   88MOL   H20017774   0.453   7.775   2.831  0.3879 -0.6714 -0.8953
   88MOL   H20117775   0.296   0.073   2.808 -1.0399 -0.0603 -0.5812
   88MOL   H20217776   0.417   0.094   2.686  1.8724  0.7835  0.6562
   89MOL     O117777   2.983   1.674   5.349  0.0669  0.5103 -0.8009
   89MOL     C217778   3.048   1.741   5.245 -0.1413 -0.1730 -0.0208
   89MOL     C317779   3.016   1.888   5.245  0.9241 -1.0964 -0.4145
   89MOL     C417780   3.107   1.968   5.145  0.4145  0.3556 -0.3873
   89MOL     H517781   3.006   1.694   5.156 -0.0134  0.5643 -0.4744
   89MOL     H617782   3.156   1.732   5.258 -0.2699  0.6188  1.6684
   89MOL     H717783   2.911   1.896   5.217  0.5746  0.0002  1.2028
   89MOL     H817784   3.032   1.933   5.343 -0.6143  0.9049 -1.0495
   89MOL     H917785   3.212   1.964   5.173 -0.1423  1.6053  1.9747
   89MOL    H1017786   3.090   2.076   5.145  1.6177  0.5522  0.0388
   89MOL    H1117787   3.025   1.590   5.356  1.8877  1.3040 -1.7647
   89MOL    O1217788   3.074   1.911   5.020  0.1775  0.3777  0.1259
   89MOL    C1317789   3.140   1.971   4.914  0.5743  0.4643 -0.3067
   89MOL    C1417790   3.084   1.909   4.783  0.6587  1.0802  0.3342
   89MOL    C1517791   2.944   1.955   4.736  0.3398 -0.2665 -0.3021
   89MOL    H1617792   3.247   1.951   4.913  0.2322 -1.6273  1.4008
   89MOL    H1717793   3.125   2.079   4.918  0.8553  0.4434  2.3845
   89MOL    H1817794   3.157   1.922   4.703  0.5643 -0.5892 -0.0297
   89MOL    H1917795   3.084   1.802   4.802 -0.6806  0.8420 -0.9677
   89MOL    H2017796   2.946   2.063   4.723  1.7724 -0.3296 -0.6466
   89MOL    H2117797   2.872   1.932   4.815  0.7657  1.9959  0.8062
   89MOL    O2217798   2.905   1.874   4.632  0.0952 -0.1009  0.2567
   89MOL    C2317799   2.911   1.943   4.504 -0.2600 -0.5450  0.4362
   89MOL    C2417800   2.881   1.842   4.395 -0.1143 -0.0524  0.3154
   89MOL    C2517801   2.859   1.906   4.255 -0.0990  0.3438  0.1780
   89MOL    H2617802   3.012   1.978   4.481  0.6543 -1.6449  2.6477
   89MOL    H2717803   2.841   2.026   4.497 -0.2218 -0.4236  1.4474
   89MOL    H2817804   2.957   1.764   4.388 -0.9456 -1.1719  3.1428
   89MOL    H2917805   2.805   1.778   4.440  0.4136  0.0777  1.4115
   89MOL    H3017806   2.952   1.953   4.224  0.9253 -1.4917  0.3570
   89MOL    H3117807   2.781   1.981   4.268 -0.8661  0.2226 -3.2318
   89MOL    O3217808   2.820   1.797   4.166  0.1974  0.2432  0.1609
   89MOL    C3317809   2.827   1.836   4.026  0.1289 -0.1756 -0.6179
   89MOL    C3417810   2.828   1.709   3.932 -0.7301 -0.1155  0.5744
   89MOL    C3517811   2.924   1.601   3.962 -0.6978  0.1393  0.2431
   89MOL    H3617812   2.915   1.895   3.999  2.0729 -1.3228  2.8833
   89MOL    H3717813   2.740   1.899   4.006  1.2456  0.9607 -2.0148
   89MOL    H3817814   2.726   1.670   3.933 -0.6867 -0.2491  0.1595
   89MOL    H3917815   2.845   1.749   3.831  1.2141 -1.1853  0.4523
   89MOL    H4017816   2.930   1.572   4.067 -2.9128 -3.3023 -0.5043
   89MOL    H4117817   3.022   1.636   3.930  0.0565 -1.7207  0.4672
   89MOL    O4217818   2.886   1.491   3.874 -0.9149 -0.4474  0.6832
   89MOL    C4317819   3.000   1.416   3.857  0.7360  0.2042 -0.1259
   89MOL    C4417820   2.974   1.296   3.760 -0.8292 -0.1265 -0.2587
   89MOL    C4517821   3.086   1.192   3.748  0.2439 -0.6805  0.0390
   89MOL    H4617822   3.048   1.385   3.950  0.1156  2.1588  0.8738
   89MOL    H4717823   3.076   1.475   3.804  1.7107  0.6408  1.6876
   89MOL    H4817824   2.886   1.244   3.799 -0.7890 -0.2813 -0.3763
   89MOL    H4917825   2.927   1.333   3.669 -0.6792  2.2026  0.5732
   89MOL    H5017826   3.104   1.156   3.849  2.4012 -0.4084 -0.2290
   89MOL    H5117827   3.184   1.228   3.716 -0.3728  1.4026  0.4089
   89MOL    O5217828   3.036   1.078   3.671 -0.3789  0.4082 -0.5172
   89MOL    C5317829   3.135   0.993   3.610  0.1025  0.0413  0.2130
   89MOL    C5417830   3.063   0.889   3.523 -0.4748  0.0102  0.3449
   89MOL    C5517831   3.162   0.796   3.452 -0.1546 -0.0720  1.0870
   89MOL    H5617832   3.185   0.950   3.697  1.7747  2.0119  0.2464
   89MOL    H5717833   3.205   1.055   3.553 -0.2411  0.0419 -0.2092
   89MOL    H5817834   2.999   0.820   3.577  1.3799  1.6120  4.7835
   89MOL    H5917835   3.010   0.942   3.444  2.4127  1.9466 -0.3949
   89MOL    H6017836   3.228   0.750   3.525  1.6006  1.4209  0.4766
   89MOL    H6117837   3.229   0.855   3.390  1.7483 -0.9130  2.3011
   89MOL    O6217838   3.091   0.699   3.373  0.0816 -0.2652  0.3613
   89MOL    C6317839   3.148   0.682   3.245 -0.9435  0.4056 -0.4470
   89MOL    C6417840   3.058   0.591   3.159 -0.7185 -0.3957 -0.2780
   89MOL    C6517841   3.122   0.549   3.029 -0.7666  0.3262 -0.1246
   89MOL    H6617842   3.251   0.648   3.234 -1.6440 -1.5487 -1.2468
   89MOL    H6717843   3.149   0.781   3.199  0.1399  0.8011  0.4172
   89MOL    H6817844   3.041   0.510   3.229 -1.9890  1.3932  1.5400
   89MOL    H6917845   2.960   0.638   3.154 -0.3447  0.5285  0.7605
   89MOL    H7017846   3.227   0.520   3.038 -0.3350  2.1200  0.8959
   89MOL    H7117847   3.122   0.636   2.963  1.9874  0.6021  0.1488
   89MOL    O7217848   3.039   0.448   2.977 -0.0084 -0.8975  0.4437
   89MOL    C7317849   3.092   0.384   2.864 -0.6885  0.6487  1.0102
   89MOL    C7417850   2.968   0.316   2.802  0.1423 -0.2125 -0.4081
   89MOL    C7517851   2.882   0.422   2.729 -0.2101 -0.0189  0.1962
   89MOL    H7617852   3.161   0.307   2.897 -0.4645  0.4829  0.1562
   89MOL    H7717853   3.139   0.461   2.803  0.9082  0.3439  1.8446
   89MOL    H7817854   3.000   0.232   2.740 -2.1213  0.7174 -2.8776
   89MOL    H7917855   2.904   0.269   2.877  2.0531 -1.5057  0.4812
   89MOL    H8017856   2.859   0.511   2.787 -3.1555 -0.4982 -0.1355
   89MOL    H8117857   2.783   0.376   2.724  1.8391 -4.5687 -0.8654
   89MOL    O8217858   2.916   0.452   2.595 -0.2447  0.3019  0.1538
   89MOL    C8317859   2.851   0.564   2.532  0.2201 -1.2350 -0.1583
   89MOL    C8417860   2.909   0.555   2.387  0.0941 -0.0408  0.2769
   89MOL    C8517861   2.836   0.656   2.292 -0.7547  0.3948 -0.2149
   89MOL    H8617862   2.885   0.655   2.581  0.1553 -2.5645  2.4482
   89MOL    H8717863   2.742   0.561   2.532  0.1377 -1.0736  3.4261
   89MOL    H8817864   3.016   0.571   2.379  0.0696  0.5542  1.0282
   89MOL    H8917865   2.876   0.458   2.352  0.9760 -0.9994  2.0302
   89MOL    H9017866   2.855   0.754   2.337  0.0736  1.5042 -2.8831
   89MOL    H9117867   2.728   0.644   2.287 -0.7775  0.9608 -1.2541
   89MOL    O9217868   2.897   0.657   2.171  0.0566  0.4181  0.9442
   89MOL    C9317869   2.831   0.753   2.093 -0.2043  0.2605  0.5423
   89MOL    C9417870   2.916   0.765   1.963 -0.3356  0.3018  0.1159
   89MOL    C9517871   2.892   0.894   1.883 -0.0522  0.4600  0.5253
   89MOL    H9617872   2.843   0.848   2.145 -0.4317  0.8760 -0.5186
   89MOL    H9717873   2.726   0.739   2.069  0.2179  0.0536 -1.2376
   89MOL    H9817874   3.022   0.744   1.981 -0.3656  0.6529  0.7244
   89MOL    H9917875   2.880   0.682   1.902 -0.6315  0.5263 -0.0132
   89MOL   H10017876   2.797   0.880   1.832 -0.8616  1.6096  1.6844
   89MOL   H10117877   2.970   0.900   1.807  0.3614 -0.0006  0.9064
   89MOL   O10217878   2.889   1.010   1.957 -0.4828 -0.2700 -0.2219
   89MOL   C10317879   2.980   1.111   1.920  0.0469 -0.1702 -0.3865
   89MOL   C10417880   2.937   1.247   1.972 -0.5105  0.2071 -0.4064
   89MOL   C10517881   2.946   1.259   2.122 -0.6605 -0.7571  0.0989
   89MOL   H10617882   2.994   1.121   1.812 -3.6803  0.2176 -0.8998
   89MOL   H10717883   3.079   1.091   1.961 -0.2645 -2.8141 -0.8318
   89MOL   H10817884   2.994   1.326   1.923 -1.7487  1.5350  0.2733
   89MOL   H10917885   2.834   1.256   1.938 -0.9930  0.8247  1.1896
   89MOL   H11017886   3.050   1.271   2.153 -0.9962 -2.6961  2.0328
   89MOL   H11117887   2.902   1.178   2.180 -0.9719 -0.7910 -0.1776
   89MOL   O11217888   2.885   1.380   2.154 -0.5693 -0.0392 -0.2991
   89MOL   C11317889   2.902   1.415   2.289  0.7631  0.0068  0.0793
   89MOL   C11417890   2.827   1.544   2.323 -0.4522 -0.9510  0.6048
   89MOL   C11517891   2.845   1.587   2.468  0.1548  0.4149 -0.2060
   89MOL   H11617892   3.004   1.404   2.323  0.4191 -1.8998  0.5343
   89MOL   H11717893   2.854   1.345   2.357  0.6515  0.9701  1.0095
   89MOL   H11817894   2.846   1.622   2.249 -0.9160 -1.5387 -0.1453
   89MOL   H11917895   2.720   1.529   2.306 -1.0672  2.3184  1.3378
   89MOL   H12017896   2.942   1.635   2.483 -0.0456  0.7461  0.0520
   89MOL   H12117897   2.835   1.502   2.535  0.7342  0.1219 -0.4906
   89MOL   O12217898   2.743   1.683   2.502  0.2372  0.0324 -0.2568
   89MOL   C12317899   2.739   1.708   2.643  0.5634  0.1700  0.9455
   89MOL   C12417900   2.630   1.817   2.661  0.1926  0.3414  0.1518
   89MOL   C12517901   2.631   1.872   2.806  0.3540  0.8168  0.2065
   89MOL   H12617902   2.838   1.750   2.666  0.4635  0.2905  1.1600
   89MOL   H12717903   2.727   1.625   2.712 -1.9272  0.2802  0.6647
   89MOL   H12817904   2.642   1.899   2.590  1.3052  0.6438  0.6777
   89MOL   H12917905   2.533   1.774   2.633  0.7278 -0.4568 -0.5104
   89MOL   H13017906   2.554   1.948   2.813  0.4368  0.8159  1.2751
   89MOL   H13117907   2.724   1.919   2.840  0.9880 -1.1618  1.3367
   89MOL   O13217908   2.567   1.768   2.881 -0.3334 -0.9164 -0.1392
   89MOL   C13317909   2.550   1.802   3.022 -0.7689 -0.7308 -0.5790
   89MOL   C13417910   2.529   1.670   3.100 -0.7809 -0.1467 -0.1117
   89MOL   C13517911   2.393   1.611   3.077 -0.5205  0.8254 -0.3650
   89MOL   H13617912   2.470   1.872   3.049 -0.3977 -0.4614 -0.1617
   89MOL   H13717913   2.632   1.860   3.065 -0.2575 -1.2811 -0.8092
   89MOL   H13817914   2.606   1.597   3.075 -1.7721 -1.3669  0.2740
   89MOL   H13917915   2.543   1.690   3.206  1.4188  0.3283 -0.4748
   89MOL   H14017916   2.378   1.569   2.977 -1.5836 -0.7757  0.4546
   89MOL   H14117917   2.308   1.677   3.093 -0.2472  1.0132  0.3066
   89MOL   O14217918   2.387   1.508   3.177  0.2111  0.2128  0.3283
   89MOL   C14317919   2.264   1.432   3.170  0.0201  0.1306  0.3834
   89MOL   C14417920   2.261   1.341   3.291 -0.5418  0.7069 -0.0654
   89MOL   C14517921   2.127   1.259   3.300  1.1958 -0.0726  0.3232
   89MOL   H14617922   2.274   1.369   3.081  0.6478 -0.8374  1.1207
   89MOL   H14717923   2.171   1.488   3.175 -0.4960 -0.2555 -3.2607
   89MOL   H14817924   2.347   1.274   3.299 -1.4016 -0.3601  0.3045
   89MOL   H14917925   2.279   1.398   3.382 -1.3498 -1.5544  1.5532
   89MOL   H15017926   2.111   1.208   3.205 -0.1111 -0.8424  0.9560
   89MOL   H15117927   2.036   1.318   3.309  0.6836 -0.8498  0.1846
   89MOL   O15217928   2.127   1.166   3.406 -0.2730  0.2665  0.0688
   89MOL   C15317929   2.121   1.211   3.538 -0.2280 -0.2806 -0.9297
   89MOL   C15417930   2.257   1.203   3.610 -0.0351 -0.4657 -0.5273
   89MOL   C15517931   2.235   1.246   3.759 -0.4066  0.0251  0.7433
   89MOL   H15617932   2.056   1.150   3.602  1.7775  0.1795  1.6109
   89MOL   H15717933   2.082   1.313   3.541 -0.4041 -0.3611 -0.2751
   89MOL   H15817934   2.284   1.097   3.614  1.0755 -0.3693 -3.8743
   89MOL   H15917935   2.345   1.258   3.574  1.0717 -1.2445  0.9616
   89MOL   H16017936   2.174   1.180   3.821  0.3987  0.9623  2.5538
   89MOL   H16117937   2.184   1.342   3.750  0.6145  0.3678 -2.0397
   89MOL   O16217938   2.366   1.283   3.802  0.4635  0.1910  0.3757
   89MOL   C16317939   2.351   1.357   3.926 -0.2304 -0.1841  0.3859
   89MOL   C16417940   2.482   1.412   3.979  0.0795 -0.1243 -0.1191
   89MOL   C16517941   2.455   1.493   4.109  0.2755  0.0474 -0.6680
   89MOL   H16617942   2.307   1.297   4.005  0.0629  0.4561  1.0476
   89MOL   H16717943   2.282   1.438   3.904 -0.0137 -0.4027 -1.1760
   89MOL   H16817944   2.548   1.327   3.997 -1.2710 -1.4761 -1.3614
   89MOL   H16917945   2.544   1.466   3.908  1.2872 -1.2983  0.0094
   89MOL   H17017946   2.544   1.526   4.164 -0.6550  0.2283  0.7716
   89MOL   H17117947   2.389   1.455   4.187 -0.3972  1.9837 -0.2727
   89MOL   O17217948   2.379   1.608   4.077 -0.6961  0.5570  0.0181
   89MOL   C17317949   2.446   1.727   4.051  0.1458 -0.4044  0.2055
   89MOL   C17417950   2.333   1.836   4.021  0.3592 -0.6918 -0.1998
   89MOL   C17517951   2.256   1.831   3.887 -0.1529 -0.4665  0.0382
   89MOL   H17617952   2.509   1.713   3.963 -1.3614  0.0777 -0.9800
   89MOL   H17717953   2.513   1.753   4.134  3.1385 -1.7467 -1.6887
   89MOL   H17817954   2.259   1.834   4.100  0.6992  0.3930  0.1602
   89MOL   H17917955   2.380   1.935   4.026 -0.5616 -0.2597  0.0713
   89MOL   H18017956   2.230   1.727   3.872  0.1466 -0.5301 -0.0378
   89MOL   H18117957   2.326   1.861   3.808 -1.2783  3.6905  0.4936
   89MOL   O18217958   2.148   1.916   3.894  0.4291 -0.1934 -0.3825
   89MOL   C18317959   2.056   1.895   3.787 -0.5810 -0.2557 -0.0445
   89MOL   C18417960   1.942   1.984   3.798 -0.6950  0.1907 -0.8003
   89MOL   C18517961   1.855   1.976   3.669  0.1472 -0.1186 -0.4768
   89MOL   H18617962   2.021   1.792   3.787 -3.3221  0.6105  1.4758
   89MOL   H18717963   2.107   1.927   3.697 -1.3793 -0.0406 -0.4224
   89MOL   H18817964   1.883   1.966   3.889 -2.7914 -0.8421 -2.3222
   89MOL   H18917965   1.984   2.083   3.813 -1.9098  0.6414 -0.2967
   89MOL   H19017966   1.825   1.875   3.640 -1.3793  0.4231 -0.8840
   89MOL   H19117967   1.921   2.005   3.587  0.7766 -2.7730 -0.9733
   89MOL   O19217968   1.737   2.056   3.685 -0.1147  0.3098 -0.2958
   89MOL   C19317969   1.649   2.068   3.571  0.0161 -0.2699  0.0763
   89MOL   C19417970   1.527   2.145   3.618 -0.5061 -0.2842  0.0226
   89MOL   C19517971   1.451   2.076   3.718 -0.3400 -0.2220 -0.3048
   89MOL   H19617972   1.622   1.980   3.512  1.2765 -0.6552  0.0389
   89MOL   H19717973   1.707   2.128   3.500 -0.1369 -1.1053 -0.7604
   89MOL   H19817974   1.557   2.246   3.645 -0.4610 -0.8644  2.2907
   89MOL   H19917975   1.464   2.162   3.531  0.4404  2.1722 -0.2095
   89MOL   H20017976   1.431   1.979   3.672 -1.4804  0.8527 -2.1608
   89MOL   H20117977   1.355   2.115   3.752  0.2348  0.9891 -0.0348
   89MOL   H20217978   1.511   2.060   3.807  1.0797  1.3352 -0.9635
   90MOL     O117979   6.919   5.934   7.454  0.1232  0.7241  0.2233
   90MOL     C217980   6.795   5.979   7.439 -0.1943 -0.0530  0.4519
   90MOL     C317981   6.768   6.015   7.290 -0.4213 -0.2217  0.1081
   90MOL     C417982   6.635   6.078   7.261  0.4702 -0.4472  0.8160
   90MOL     H517983   6.784   6.074   7.493 -3.3768 -0.5671  0.7508
   90MOL     H617984   6.721   5.907   7.472  0.1326 -1.7469 -2.4050
   90MOL     H717985   6.846   6.084   7.257 -0.1885 -0.1734  0.7573
   90MOL     H817986   6.781   5.930   7.223 -0.9758  1.1607 -1.7789
   90MOL     H917987   6.589   6.140   7.338 -0.0480 -0.2675  0.3701
   90MOL    H1017988   6.559   5.999   7.253  0.5140 -0.2962 -1.5956
   90MOL    H1117989   6.944   5.926   7.545 -0.0623 -0.6921  0.1676
   90MOL    O1217990   6.636   6.145   7.136 -0.3892  0.0156 -0.2408
   90MOL    C1317991   6.512   6.200   7.090  0.2908 -0.3659 -0.2181
   90MOL    C1417992   6.529   6.253   6.947 -0.3900 -0.0517  0.6460
   90MOL    C1517993   6.403   6.328   6.898  0.0090  0.0924  0.3681
   90MOL    H1617994   6.471   6.272   7.161  1.8499  0.5574 -0.2367
   90MOL    H1717995   6.439   6.118   7.092 -0.9708  0.7461 -0.3543
   90MOL    H1817996   6.617   6.318   6.947  0.0890 -0.7002  0.9992
   90MOL    H1917997   6.558   6.167   6.887  0.0546 -0.0514  0.8582
   90MOL    H2017998   6.382   6.412   6.963  0.3859 -0.0184  0.6368
   90MOL    H2117999   6.308   6.277   6.885  0.1996 -0.3877  0.8429
   90MOL    O2218000   6.450   6.379   6.773  0.3237  0.4029 -0.0638
   90MOL    C2318001   6.370   6.482   6.707 -0.5565 -0.6573 -0.3305
   90MOL    C2418002   6.443   6.513   6.577 -0.8384 -0.0489 -0.4018
   90MOL    C2518003   6.365   6.575   6.464  0.2432 -0.7127 -0.2572
   90MOL    H2618004   6.375   6.578   6.759  1.7246 -0.9117 -0.0583
   90MOL    H2718005   6.270   6.440   6.694 -0.9425  0.4863 -1.2514
   90MOL    H2818006   6.525   6.580   6.602 -0.8022 -0.1024 -0.3779
   90MOL    H2918007   6.492   6.423   6.538 -1.5416 -0.2968 -0.7205
   90MOL    H3018008   6.262   6.541   6.479  0.5883 -1.5529  0.2457
   90MOL    H3118009   6.402   6.555   6.363  0.2182 -1.0882 -0.1942
   90MOL    O3218010   6.351   6.721   6.481 -0.2067 -0.5704 -0.4784
   90MOL    C3318011   6.257   6.797   6.406  0.0916  0.5529 -0.2383
   90MOL    C3418012   6.257   6.938   6.466  0.0674  0.2746  0.2594
   90MOL    C3518013   6.187   7.048   6.385 -0.3196 -0.0610  0.0249
   90MOL    H3618014   6.167   6.737   6.416 -0.1895  0.6347 -2.1252
   90MOL    H3718015   6.280   6.796   6.300 -0.9573 -3.7764 -0.5445
   90MOL    H3818016   6.228   6.940   6.572  2.3398  1.6465  0.8932
   90MOL    H3918017   6.361   6.970   6.475 -0.0664  0.3039  1.8978
   90MOL    H4018018   6.224   7.053   6.283 -1.7045 -0.7065 -0.5262
   90MOL    H4118019   6.200   7.149   6.423  0.4159 -0.3435  0.5357
   90MOL    O4218020   6.047   7.018   6.377 -0.6873  0.1055 -0.1804
   90MOL    C4318021   5.965   7.128   6.339 -0.9791 -0.4780  0.2253
   90MOL    C4418022   5.816   7.103   6.366 -0.1829  0.7677 -0.2875
   90MOL    C4518023   5.776   7.150   6.509  0.5457 -0.2008  0.2300
   90MOL    H4618024   5.980   7.162   6.236 -2.2171 -0.8918 -0.0989
   90MOL    H4718025   5.980   7.216   6.401  0.3721 -1.9585  2.0300
   90MOL    H4818026   5.767   7.161   6.288 -0.5295  1.2483  0.2928
   90MOL    H4918027   5.798   6.997   6.345 -0.6915  0.9025 -0.5269
   90MOL    H5018028   5.793   7.255   6.532  2.1862 -0.5224  0.5759
   90MOL    H5118029   5.847   7.096   6.571  1.5207  2.9431  1.9062
   90MOL    O5218030   5.639   7.102   6.526 -0.3622  0.5790 -1.0273
   90MOL    C5318031   5.593   7.090   6.652 -1.1771  0.1886  0.4172
   90MOL    C5418032   5.445   7.068   6.649  0.1530  0.3800 -0.1203
   90MOL    C5518033   5.402   7.025   6.787  0.4835  0.8033  0.2785
   90MOL    H5618034   5.612   7.183   6.707 -1.3785 -0.1917  1.1359
   90MOL    H5718035   5.646   7.006   6.697 -0.3568  0.0211 -0.8603
   90MOL    H5818036   5.380   7.144   6.607 -1.9232 -0.2361  1.8946
   90MOL    H5918037   5.434   6.981   6.584  2.2708 -0.1969  0.2543
   90MOL    H6018038   5.435   7.094   6.864 -0.5205  1.9452 -0.3099
   90MOL    H6118039   5.448   6.928   6.806 -1.2305 -0.1277 -0.2265
   90MOL    O6218040   5.251   7.021   6.790 -0.1471 -0.1405 -0.0464
   90MOL    C6318041   5.201   6.959   6.901  0.2814 -0.0461 -0.2115
   90MOL    C6418042   5.048   6.952   6.889  0.6480 -0.4652 -0.5806
   90MOL    C6518043   4.991   6.858   7.002 -0.0852 -0.4735  0.0485
   90MOL    H6618044   5.236   7.014   6.989  0.9266 -1.3330  0.3526
   90MOL    H6718045   5.255   6.865   6.905 -0.3929 -0.4224  0.1813
   90MOL    H6818046   5.000   7.048   6.906  0.5896 -0.9085  2.0079
   90MOL    H6918047   5.007   6.911   6.797 -2.0315 -2.7207  1.5396
   90MOL    H7018048   4.882   6.863   7.005 -0.0255  0.6282  0.4162
   90MOL    H7118049   5.033   6.906   7.091 -0.1162  0.1783 -0.2862
   90MOL    O7218050   5.032   6.724   6.978 -0.1481 -0.7351  0.1438
   90MOL    C7318051   4.971   6.622   7.056  0.1548 -1.3861 -0.1095
   90MOL    C7418052   5.014   6.479   7.010 -0.2580 -0.1513  0.2493
   90MOL    C7518053   4.933   6.350   7.057 -0.0841  0.2573  0.2327
   90MOL    H7618054   4.863   6.631   7.045  0.2191  1.2774  0.8437
   90MOL    H7718055   4.981   6.634   7.164 -1.1507 -0.0451 -0.1151
   90MOL    H7818056   4.996   6.467   6.903 -0.8633 -0.2959  0.3642
   90MOL    H7918057   5.120   6.462   7.025 -0.0811  0.0458 -0.7560
   90MOL    H8018058   4.944   6.322   7.162  1.2053 -1.0464 -0.2360
   90MOL    H8118059   4.974   6.257   7.018  1.0546  2.6863 -4.7346
   90MOL    O8218060   4.796   6.360   7.019 -0.2950  0.3835  0.0697
   90MOL    C8318061   4.719   6.248   7.057 -0.2475 -0.6931 -0.0269
   90MOL    C8418062   4.745   6.123   6.974  0.3076 -0.4289  0.2407
   90MOL    C8518063   4.726   6.132   6.822  0.3699  0.4150 -0.0811
   90MOL    H8618064   4.622   6.291   7.035 -0.5432 -1.0894  0.5048
   90MOL    H8718065   4.727   6.238   7.165  0.9901  0.1126 -0.0309
   90MOL    H8818066   4.844   6.084   6.997 -0.0838 -1.1464  0.7013
   90MOL    H8918067   4.683   6.043   7.013  1.1519 -1.3804 -0.3495
   90MOL    H9018068   4.797   6.204   6.781  2.3311 -1.3508  0.1138
   90MOL    H9118069   4.627   6.172   6.798 -1.1136 -4.1459 -2.1573
   90MOL    O9218070   4.755   6.012   6.764 -0.1600  0.0978 -0.0814
   90MOL    C9318071   4.746   6.015   6.622  0.2538 -0.0402  0.1871
   90MOL    C9418072   4.809   5.887   6.572 -0.5187  0.4687  0.2275
   90MOL    C9518073   4.815   5.858   6.420  0.2947 -0.9501 -0.0178
   90MOL    H9618074   4.796   6.104   6.583 -1.1594  0.4474 -0.5431
   90MOL    H9718075   4.644   6.012   6.585  0.6588 -0.3391 -0.9292
   90MOL    H9818076   4.911   5.872   6.604  0.7591  2.4762 -2.6578
   90MOL    H9918077   4.744   5.811   6.615 -1.4540  1.9396  1.4909
   90MOL   H10018078   4.888   5.929   6.381  0.4530 -0.8507  0.4556
   90MOL   H10118079   4.716   5.859   6.374  0.0593  0.9807  0.5161
   90MOL   O10218080   4.856   5.724   6.396 -0.4950  0.0715 -0.1034
   90MOL   C10318081   4.887   5.684   6.260 -0.0952 -0.0643 -0.6247
   90MOL   C10418082   4.807   5.561   6.232  0.7378  0.4078 -0.0233
   90MOL   C10518083   4.841   5.488   6.104 -0.4632  0.1202  0.0034
   90MOL   H10618084   4.995   5.674   6.255  0.0744  0.5665  1.3416
   90MOL   H10718085   4.844   5.757   6.191 -0.7436  0.7335  0.5895
   90MOL   H10818086   4.831   5.494   6.315 -0.1941  1.0384  0.7642
   90MOL   H10918087   4.703   5.588   6.251  0.9536  0.4670  1.1441
   90MOL   H11018088   4.822   5.381   6.118  0.8312  0.0717  1.4702
   90MOL   H11118089   4.948   5.503   6.089 -0.6338  1.8341  0.4530
   90MOL   O11218090   4.765   5.544   5.997  0.1216 -0.1632 -0.1079
   90MOL   C11318091   4.828   5.515   5.876 -0.4668 -0.2902  0.5462
   90MOL   C11418092   4.720   5.532   5.772 -0.7779 -0.0055 -0.1508
   90MOL   C11518093   4.605   5.431   5.790 -0.8492  0.6119 -0.7281
   90MOL   H11618094   4.867   5.414   5.862  1.6579  0.6102 -0.4050
   90MOL   H11718095   4.909   5.586   5.855  0.4796 -1.8218 -1.2279
   90MOL   H11818096   4.671   5.629   5.775  1.0826  0.9065  1.2391
   90MOL   H11918097   4.768   5.527   5.674  1.3681  3.0132  0.6779
   90MOL   H12018098   4.563   5.472   5.882 -1.3306  1.2157 -1.2150
   90MOL   H12118099   4.633   5.328   5.814  0.5042  1.0823 -0.2442
   90MOL   O12218100   4.517   5.441   5.677  0.3445 -0.0446  0.3680
   90MOL   C12318101   4.434   5.550   5.678  0.2843  0.2604 -0.0692
   90MOL   C12418102   4.302   5.523   5.602  0.9324  0.1068 -0.3715
   90MOL   C12518103   4.209   5.643   5.594  0.5306  0.4547  0.0490
   90MOL   H12618104   4.481   5.632   5.625  1.1393 -0.1093  0.1050
   90MOL   H12718105   4.399   5.587   5.774 -0.0023 -2.8811  1.1019
   90MOL   H12818106   4.305   5.480   5.502  1.7068 -1.0820  0.1538
   90MOL   H12918107   4.252   5.444   5.657  0.2637  2.6402  2.8427
   90MOL   H13018108   4.129   5.616   5.524  0.8689 -2.6846  0.8012
   90MOL   H13118109   4.263   5.733   5.565 -0.6548  1.3304  0.5098
   90MOL   O13218110   4.140   5.679   5.717  0.3187 -0.3899 -0.6826
   90MOL   C13318111   4.038   5.780   5.700 -1.0759  0.2073 -0.0472
   90MOL   C13418112   3.991   5.826   5.841  0.6752  0.7648  0.2044
   90MOL   C13518113   3.900   5.947   5.825  0.4464  0.4846 -0.5496
   90MOL   H13618114   3.961   5.744   5.632 -2.2595  0.4411  1.1594
   90MOL   H13718115   4.087   5.869   5.661  0.2899  0.0011  1.1530
   90MOL   H13818116   3.941   5.738   5.882 -0.6826  0.7761 -1.3824
   90MOL   H13918117   4.080   5.846   5.900  0.9940 -0.8211  0.2848
   90MOL   H14018118   3.933   6.007   5.741  1.0327 -0.2791 -0.8691
   90MOL   H14118119   3.894   6.010   5.914 -1.2902 -0.4467  0.0196
   90MOL   O14218120   3.767   5.902   5.800  0.5558  0.1566  0.1470
   90MOL   C14318121   3.669   6.007   5.800 -0.2744  0.4151  0.0859
   90MOL   C14418122   3.530   5.943   5.777 -0.7680 -0.2770  0.3855
   90MOL   C14518123   3.518   5.848   5.653  0.2335 -0.0251  0.5146
   90MOL   H14618124   3.706   6.067   5.717  0.7406  0.8336  0.8266
   90MOL   H14718125   3.663   6.066   5.892  0.4330  0.7896 -0.1018
   90MOL   H14818126   3.499   5.889   5.866 -0.6430  0.2583  0.7544
   90MOL   H14918127   3.460   6.026   5.766  0.3118  0.3850 -2.0556
   90MOL   H15018128   3.563   5.751   5.674 -0.3500 -0.4020  0.0414
   90MOL   H15118129   3.578   5.880   5.568  0.2168  1.6098  1.0990
   90MOL   O15218130   3.381   5.829   5.619  0.4498 -0.8770 -0.5778
   90MOL   C15318131   3.363   5.742   5.509  0.4673 -0.0367 -0.1097
   90MOL   C15418132   3.213   5.712   5.498  0.7992  0.0934  0.2808
   90MOL   C15518133   3.182   5.595   5.403 -1.1092 -0.7150 -0.1036
   90MOL   H15618134   3.420   5.650   5.528  1.9451  0.6528 -1.1413
   90MOL   H15718135   3.411   5.795   5.427  0.5589  2.0662  1.2761
   90MOL   H15818136   3.171   5.695   5.597 -1.1512 -0.6852 -0.6631
   90MOL   H15918137   3.164   5.799   5.453  0.9027 -0.3492 -0.7000
   90MOL   H16018138   3.076   5.572   5.399 -1.5836  1.6307 -1.2541
   90MOL   H16118139   3.232   5.504   5.437 -0.6307 -0.4645 -0.1241
   90MOL   O16218140   3.226   5.623   5.270 -0.2097 -0.6217 -0.6011
   90MOL   C16318141   3.194   5.519   5.182  0.0317 -0.0370 -0.9580
   90MOL   C16418142   3.246   5.564   5.038  0.6720  0.4361  0.2936
   90MOL   C16518143   3.188   5.474   4.928  0.1336 -0.5467  0.2754
   90MOL   H16618144   3.085   5.517   5.176 -0.1213 -1.0600  1.4862
   90MOL   H16718145   3.247   5.426   5.202  1.2619  0.7399 -0.5544
   90MOL   H16818146   3.193   5.658   5.028  0.2739  0.2405  0.5649
   90MOL   H16918147   3.352   5.580   5.017  0.5296 -0.0941 -0.8734
   90MOL   H17018148   3.091   5.440   4.966  2.1268 -4.0565  2.5064
   90MOL   H17118149   3.230   5.376   4.904 -0.2420 -0.6658  0.0898
   90MOL   O17218150   3.181   5.558   4.820 -0.3710 -0.1333 -0.1346
   90MOL   C17318151   3.082   5.513   4.725 -0.1988  0.6302  0.4690
   90MOL   C17418152   2.944   5.546   4.776 -0.5352  0.7019  0.1236
   90MOL   C17518153   2.832   5.566   4.680  0.3904  0.3136 -0.0251
   90MOL   H17618154   3.080   5.407   4.703 -0.6800  0.6824  0.2560
   90MOL   H17718155   3.106   5.559   4.629 -1.7979  0.9656  0.2186
   90MOL   H17818156   2.915   5.505   4.873 -0.3311 -0.5634 -0.3461
   90MOL   H17918157   2.949   5.652   4.803 -0.6797  0.2499  2.0317
   90MOL   H18018158   2.816   5.468   4.633 -0.4394 -1.0842  3.0148
   90MOL   H18118159   2.858   5.645   4.609 -0.5676  2.0195  1.4990
   90MOL   O18218160   2.713   5.604   4.753  0.2327  0.1767 -0.0711
   90MOL   C18318161   2.599   5.550   4.684 -0.0243  0.1986  0.1211
   90MOL   C18418162   2.475   5.526   4.781 -0.9871 -0.7229  0.1366
   90MOL   C18518163   2.394   5.646   4.817 -0.0356 -0.1145  0.2771
   90MOL   H18618164   2.620   5.445   4.666  0.2792  0.1432  0.7769
   90MOL   H18718165   2.573   5.601   4.591 -2.5430 -1.2732 -0.0153
   90MOL   H18818166   2.409   5.460   4.725 -1.0867  0.2279 -0.8801
   90MOL   H18918167   2.505   5.473   4.872 -0.8256  0.2362  0.6519
   90MOL   H19018168   2.361   5.708   4.733  1.1397 -3.2469 -2.6138
   90MOL   H19118169   2.448   5.716   4.881 -1.7278  1.9641 -0.4861
   90MOL   O19218170   2.275   5.597   4.886  0.4608 -0.1412 -0.5144
   90MOL   C19318171   2.216   5.677   4.995  0.6491  0.3068  0.2210
   90MOL   C19418172   2.125   5.591   5.083  0.1621 -0.1362  0.0786
   90MOL   C19518173   2.079   5.667   5.204  0.2744  0.4718  0.3446
   90MOL   H19618174   2.165   5.766   4.958  0.1102 -0.4866 -0.9986
   90MOL   H19718175   2.292   5.705   5.068  0.3758  3.4148 -0.6210
   90MOL   H19818176   2.036   5.560   5.029 -0.5208 -0.5723  1.4442
   90MOL   H19918177   2.182   5.502   5.107 -0.1672 -0.6347 -0.9575
   90MOL   H20018178   2.158   5.710   5.266  0.8554  0.3629 -0.3116
   90MOL   H20118179   2.040   5.601   5.281  0.5381 -0.3338 -0.2109
   90MOL   H20218180   2.007   5.742   5.172 -1.1285 -0.3204  1.5595
   91MOL     O118181   3.253   2.987   6.995 -0.4199 -0.1495 -0.0638
   91MOL     C218182   3.248   3.127   6.984  0.8102  0.4540 -0.4348
   91MOL     C318183   3.140   3.170   7.087  0.5302  0.5386  1.0011
   91MOL     C418184   3.160   3.316   7.115 -0.1475  0.0810  0.3371
   91MOL     H518185   3.230   3.163   6.883 -1.5752 -0.9288 -0.5357
   91MOL     H618186   3.346   3.157   7.021  1.1027 -0.1546 -0.7131
   91MOL     H718187   3.041   3.138   7.056  1.4943  0.0408 -1.6941
   91MOL     H818188   3.164   3.126   7.184 -0.2339 -0.4701  0.7323
   91MOL     H918189   3.172   3.375   7.024 -2.9643  0.3558  0.0879
   91MOL    H1018190   3.250   3.329   7.175 -1.7255 -1.3761  3.1459
   91MOL    H1118191   3.231   2.954   6.909 -3.7537 -0.5395  0.8274
   91MOL    O1218192   3.046   3.351   7.200 -0.3477  0.2149  0.4131
   91MOL    C1318193   3.029   3.486   7.228 -0.5905 -0.4154 -0.1419
   91MOL    C1418194   2.906   3.507   7.319  0.7984 -0.1317 -0.4141
   91MOL    C1518195   2.857   3.653   7.334 -0.2316  0.0808 -0.6542
   91MOL    H1618196   3.028   3.548   7.138 -0.0735  2.9531  2.0624
   91MOL    H1718197   3.113   3.509   7.293 -1.4662  0.0959  0.8299
   91MOL    H1818198   2.826   3.455   7.267  1.0743 -0.6987 -0.2699
   91MOL    H1918199   2.918   3.455   7.414 -1.5633 -1.2349 -0.6822
   91MOL    H2018200   2.785   3.670   7.254 -0.9722 -1.3492 -0.3002
   91MOL    H2118201   2.942   3.720   7.321  0.7609 -0.9193  0.6264
   91MOL    O2218202   2.801   3.667   7.464 -0.2572 -0.0841  0.2365
   91MOL    C2318203   2.758   3.796   7.500 -0.2087 -0.2083  0.5767
   91MOL    C2418204   2.706   3.776   7.646 -0.7555  0.8649  0.0477
   91MOL    C2518205   2.668   3.910   7.708  0.3569 -0.5129 -0.2771
   91MOL    H2618206   2.674   3.833   7.442 -0.0030  1.8883  1.5912
   91MOL    H2718207   2.834   3.874   7.505 -1.2426  0.7813  1.0276
   91MOL    H2818208   2.628   3.700   7.652 -0.1496  0.4281  3.0344
   91MOL    H2918209   2.787   3.735   7.706 -0.8886 -0.9504 -0.9899
   91MOL    H3018210   2.760   3.969   7.710  1.3228 -2.0055  0.8404
   91MOL    H3118211   2.621   3.885   0.015 -0.4641  1.1045 -0.2465
   91MOL    O3218212   2.575   3.977   7.625  0.5043 -0.1847 -0.0532
   91MOL    C3318213   2.523   4.096   7.678 -0.0831  0.7069  0.3164
   91MOL    C3418214   2.392   4.081   7.762 -0.4968  0.5023  0.5655
   91MOL    C3518215   2.274   4.003   7.692 -0.8533 -0.4723  0.7019
   91MOL    H3618216   2.500   4.158   7.591 -1.7246  0.1209  0.3099
   91MOL    H3718217   2.603   4.154   7.724  1.7508 -2.0996  0.7227
   91MOL    H3818218   2.425   4.038   0.069 -0.2680 -1.0268 -0.1827
   91MOL    H3918219   2.358   4.179   0.007 -1.4911 -0.3289  2.0730
   91MOL    H4018220   2.302   3.908   7.646  1.8983  0.3768  0.5379
   91MOL    H4118221   2.240   4.046   7.597  1.6245 -1.3887 -0.6473
   91MOL    O4218222   2.152   3.997   7.761 -0.3758  0.1148  0.7287
   91MOL    C4318223   2.134   3.874   0.037 -0.6139 -0.1552  0.1161
   91MOL    C4418224   1.989   3.870   0.079  0.8156 -0.0668  0.1861
   91MOL    C4518225   1.972   3.916   0.225  0.5774 -0.8047 -0.0056
   91MOL    H4618226   2.200   3.858   0.122 -0.3263  1.5033  0.2105
   91MOL    H4718227   2.165   3.796   7.756  0.4174  1.1376 -0.8974
   91MOL    H4818228   1.932   3.933   0.011 -0.3641 -0.1152  1.1045
   91MOL    H4918229   1.956   3.767   0.069 -0.0703  0.2243  0.0598
   91MOL    H5018230   2.013   4.013   0.252  0.8269 -1.1698  0.9430
   91MOL    H5118231   2.018   3.838   0.286 -0.6365 -0.7860  0.9392
   91MOL    O5218232   1.837   3.923   0.258  0.0251 -0.1165  0.1890
   91MOL    C5318233   1.815   3.929   0.402 -0.2293 -0.5505  0.4736
   91MOL    C5418234   1.671   3.972   0.422 -0.1071  0.1138 -0.1909
   91MOL    C5518235   1.567   3.863   0.380  0.4370  0.7545 -0.3501
   91MOL    H5618236   1.889   3.994   0.448  0.1091 -1.7086  1.6061
   91MOL    H5718237   1.841   3.832   0.445  2.0195  0.2797  1.0206
   91MOL    H5818238   1.663   3.999   0.527  1.0973  1.3497 -0.4098
   91MOL    H5918239   1.658   4.061   0.360 -0.8399 -0.8007 -1.3694
   91MOL    H6018240   1.592   3.772   0.434  3.6656  2.4301  1.1871
   91MOL    H6118241   1.582   3.837   0.276 -0.4863 -2.0904  0.1821
   91MOL    O6218242   1.438   3.903   0.418 -0.2086  0.0870 -0.3489
   91MOL    C6318243   1.334   3.848   0.341  0.0717  0.3300  0.6558
   91MOL    C6418244   1.204   3.919   0.360 -0.2368 -0.0353  0.0804
   91MOL    C6518245   1.085   3.839   0.292 -0.1246 -0.0674 -0.1844
   91MOL    H6618246   1.317   3.747   0.379  0.1233 -0.7883 -2.1649
   91MOL    H6718247   1.356   3.843   0.234  1.4122  2.9744  0.7869
   91MOL    H6818248   1.179   3.949   0.462  0.5623 -0.8278  0.5226
   91MOL    H6918249   1.216   4.012   0.304  1.2066  0.1202  0.6123
   91MOL    H7018250   1.086   3.734   0.319 -0.8404 -0.7998 -2.8173
   91MOL    H7118251   1.098   3.841   0.184  0.3119  5.3700 -0.1515
   91MOL    O7218252   0.960   3.898   0.327 -0.2880  0.0162 -0.4053
   91MOL    C7318253   0.878   3.940   0.226 -0.7238  0.6633 -0.2984
   91MOL    C7418254   0.900   4.089   0.165 -0.0129  0.4548 -0.8145
   91MOL    C7518255   0.798   4.125   0.051  0.2078  1.1804 -0.4322
   91MOL    H7618256   0.773   3.951   0.254 -1.0023  2.5651 -1.9748
   91MOL    H7718257   0.885   3.878   0.137 -1.2022  2.2817 -1.5001
   91MOL    H7818258   0.898   4.165   0.243  0.5913 -0.9486  0.5945
   91MOL    H7918259   0.997   4.095   0.116  0.1884  2.2041 -0.2344
   91MOL    H8018260   0.700   4.134   0.097  0.2003 -1.2168  0.0906
   91MOL    H8118261   0.789   4.046   7.765 -0.5212  1.4924 -0.6820
   91MOL    O8218262   0.835   4.248   7.781  0.2325  0.0406 -0.1163
   91MOL    C8318263   0.739   4.307   7.695  0.5654 -0.2088  0.0451
   91MOL    C8418264   0.808   4.419   7.624  0.4931  0.3574 -0.4566
   91MOL    C8518265   0.712   4.495   7.535  0.3979 -0.1226 -0.2105
   91MOL    H8618266   0.667   4.354   7.762  0.1985  1.4367 -1.4923
   91MOL    H8718267   0.682   4.239   7.632  1.2725  0.5296 -1.3957
   91MOL    H8818268   0.847   4.483   7.703  0.8008 -0.2575 -0.1063
   91MOL    H8918269   0.903   4.392   7.578  0.3362 -1.2555  0.1203
   91MOL    H9018270   0.638   4.544   7.598  0.5523  0.2733 -0.3330
   91MOL    H9118271   0.656   4.429   7.469  0.9504 -0.6969 -0.1122
   91MOL    O9218272   0.780   4.596   7.459 -0.5216 -0.3914  0.6100
   91MOL    C9318273   0.698   4.648   7.354  0.0726  0.1854 -0.0078
   91MOL    C9418274   0.766   4.761   7.272  1.1140 -0.2807  0.2970
   91MOL    C9518275   0.683   4.787   7.156 -1.0244 -0.0634  0.3473
   91MOL    H9618276   0.599   4.685   7.383  0.5670  1.5288 -0.0214
   91MOL    H9718277   0.678   4.560   7.293  0.3491  0.8646 -1.0887
   91MOL    H9818278   0.782   4.849   7.334 -2.0481  1.0395 -0.6872
   91MOL    H9918279   0.864   4.730   7.236  1.6792  1.2929  0.4787
   91MOL   H10018280   0.646   4.697   7.107 -1.0801  0.7823 -1.2020
   91MOL   H10118281   0.743   4.839   7.082 -3.8141  1.0870 -1.2012
   91MOL   O10218282   0.568   4.861   7.189 -0.2016 -0.5590  0.6516
   91MOL   C10318283   0.496   4.913   7.080 -0.2571  0.5022  0.1654
   91MOL   C10418284   0.412   5.031   7.116 -0.7493  0.1431  0.2830
   91MOL   C10518285   0.310   5.064   7.006 -0.0206  0.6118  0.1688
   91MOL   H10618286   0.437   4.832   7.037  0.7809  0.9111 -2.1448
   91MOL   H10718287   0.564   4.943   7.000 -0.9108  0.4989 -0.4034
   91MOL   H10818288   0.346   5.020   7.202 -2.2511 -0.0809 -0.8736
   91MOL   H10918289   0.468   5.123   7.135  2.1754 -1.1083 -1.8403
   91MOL   H11018290   0.270   5.163   7.028 -0.8588  0.2208  0.4279
   91MOL   H11118291   0.229   4.992   6.996  0.5629 -0.1905  1.1937
   91MOL   O11218292   0.369   5.093   6.876 -0.8895 -0.5422  0.5328
   91MOL   C11318293   0.276   5.125   6.776  0.6166  0.1286  0.1910
   91MOL   C11418294   0.333   5.185   6.646 -0.6781  0.6321  0.3305
   91MOL   C11518295   0.434   5.303   6.678 -0.0491  0.1411 -0.2565
   91MOL   H11618296   0.203   5.190   6.825 -0.5328  0.0145 -1.3504
   91MOL   H11718297   0.225   5.031   6.755 -0.8020  0.1260  3.2988
   91MOL   H11818298   0.378   5.103   6.591  1.3115  1.2600  1.0017
   91MOL   H11918299   0.260   5.227   6.576 -0.0639  1.1807  0.0141
   91MOL   H12018300   0.515   5.268   6.742 -0.0275  0.8895  0.1369
   91MOL   H12118301   0.385   5.372   6.747  3.5452  0.9929  1.5855
   91MOL   O12218302   0.486   5.368   6.559  0.2583 -0.1522 -0.0743
   91MOL   C12318303   0.616   5.411   6.579 -0.6913 -0.2035  0.6845
   91MOL   C12418304   0.646   5.498   6.456  0.1052 -0.2576 -0.4265
   91MOL   C12518305   0.792   5.547   6.449  0.4345 -0.0289 -0.0637
   91MOL   H12618306   0.679   5.322   6.589 -0.5460 -0.0897  0.7834
   91MOL   H12718307   0.625   5.471   6.669  0.3961  1.4316 -0.4908
   91MOL   H12818308   0.628   5.441   6.364 -1.3337 -0.1900 -0.1917
   91MOL   H12918309   0.584   5.587   6.453  1.7558  0.9311  0.1480
   91MOL   H13018310   0.824   5.588   6.545 -0.0497  1.9459 -0.7322
   91MOL   H13118311   0.801   5.615   6.364 -2.4237  0.1551 -0.2607
   91MOL   O13218312   0.869   5.433   6.424 -0.0688 -0.0970 -0.3292
   91MOL   C13318313   1.007   5.458   6.437  0.6805 -0.0232  0.3526
   91MOL   C13418314   1.075   5.322   6.412 -0.0859  0.2287 -0.7252
   91MOL   C13518315   1.226   5.338   6.436  0.4191 -0.1612 -0.0560
   91MOL   H13618316   1.046   5.496   6.531  2.1295  0.9827 -0.6330
   91MOL   H13718317   1.034   5.528   6.357  0.6621  1.0814  1.2968
   91MOL   H13818318   1.033   5.239   6.470  1.3298 -2.0501 -2.8695
   91MOL   H13918319   1.049   5.296   6.310 -2.0474 -1.2556  0.1059
   91MOL   H14018320   1.248   5.342   6.543 -2.2924 -0.7835  0.5604
   91MOL   H14118321   1.252   5.434   6.392 -1.2165  0.2728 -0.0984
   91MOL   O14218322   1.301   5.231   6.367  0.1612  0.0979 -0.1027
   91MOL   C14318323   1.314   5.120   6.458 -0.5708 -0.6895 -0.3015
   91MOL   C14418324   1.390   5.018   6.381  0.4661  0.1223 -0.4908
   91MOL   C14518325   1.309   4.962   6.264  0.3913 -0.2824 -0.5149
   91MOL   H14618326   1.216   5.087   6.493 -0.3361  0.7151  1.7951
   91MOL   H14718327   1.368   5.160   6.544  0.4542 -0.8384 -0.8680
   91MOL   H14818328   1.477   5.069   6.338  0.5575  1.4875  1.2478
   91MOL   H14918329   1.414   4.937   6.449  0.6939 -0.0323 -0.7531
   91MOL   H15018330   1.282   5.037   6.190  0.3339 -0.0781 -0.2836
   91MOL   H15118331   1.213   4.927   6.302  0.5546 -1.7199 -1.3712
   91MOL   O15218332   1.376   4.850   6.200 -0.2655  0.5984 -0.4024
   91MOL   C15318333   1.286   4.757   6.142  0.0692  0.1386  1.1249
   91MOL   C15418334   1.263   4.630   6.230  0.0627  0.1755 -0.0884
   91MOL   C15518335   1.142   4.546   6.191  0.6606  0.0519  0.3218
   91MOL   H15618336   1.327   4.734   6.044 -0.8495  2.3943  0.1886
   91MOL   H15718337   1.191   4.799   6.107 -0.1127 -1.8089 -0.8144
   91MOL   H15818338   1.355   4.571   6.228 -0.7129 -1.3794  3.8621
   91MOL   H15918339   1.264   4.657   6.336  1.6830 -0.9299  0.2034
   91MOL   H16018340   1.133   4.518   6.086  1.1503  0.3824  0.1898
   91MOL   H16118341   1.044   4.585   6.218 -0.0072 -0.8346 -0.7967
   91MOL   O16218342   1.170   4.426   6.254  0.2769  0.1853  0.7179
   91MOL   C16318343   1.060   4.350   6.290 -0.7070 -0.0771 -0.4907
   91MOL   C16418344   1.097   4.212   6.352 -0.0185 -0.6992  0.4504
   91MOL   C16518345   0.989   4.114   6.371 -0.2491  0.2227 -0.2851
   91MOL   H16618346   0.993   4.326   6.208 -0.7571 -0.1884 -0.4186
   91MOL   H16718347   1.005   4.407   6.365  0.4178  0.5310 -0.1036
   91MOL   H16818348   1.161   4.166   6.277 -0.0169 -0.0129  0.0248
   91MOL   H16918349   1.157   4.222   6.443 -3.7134 -0.5212  2.9342
   91MOL   H17018350   0.914   4.144   6.444 -1.1709 -1.5345 -0.4728
   91MOL   H17118351   1.039   4.026   6.411  0.1166  0.3420 -0.4750
   91MOL   O17218352   0.918   4.094   6.251  0.6331 -0.5956  0.0708
   91MOL   C17318353   0.809   4.009   6.258  0.7771 -0.4645  0.4690
   91MOL   C17418354   0.739   4.013   6.128  1.4050  0.5588  0.4188
   91MOL   C17518355   0.621   3.920   6.113  0.1827 -0.1704 -0.3626
   91MOL   H17618356   0.747   4.048   6.338 -0.3229  0.5114 -0.8448
   91MOL   H17718357   0.836   3.905   6.280 -2.8685 -1.6328 -0.2302
   91MOL   H17818358   0.715   4.116   6.103 -0.7957  0.1962  0.9210
   91MOL   H17918359   0.810   3.981   6.052  1.0286 -0.3916  0.4578
   91MOL   H18018360   0.577   3.938   6.015 -1.4359 -3.0945 -0.2380
   91MOL   H18118361   0.541   3.948   6.182  1.6138  0.1223  1.2190
   91MOL   O18218362   0.661   3.785   6.125  0.1485  0.1902 -0.2328
   91MOL   C18318363   0.558   3.696   6.072 -0.1114 -0.4008 -0.0277
   91MOL   C18418364   0.621   3.554   6.062 -0.2073  0.3757  0.1678
   91MOL   C18518365   0.526   3.452   6.003 -0.3856 -0.4489 -0.5749
   91MOL   H18618366   0.514   3.722   5.976 -0.7683 -1.0507  0.0908
   91MOL   H18718367   0.487   3.689   6.154 -1.6044  2.4664 -1.0344
   91MOL   H18818368   0.707   3.558   5.995 -0.7103  0.2798 -0.4866
   91MOL   H18918369   0.666   3.511   6.152 -1.2614  0.2040  0.6165
   91MOL   H19018370   0.577   3.371   5.951 -1.5797 -1.6668  0.1228
   91MOL   H19118371   0.477   3.516   5.929 -0.3816 -1.8179 -1.7844
   91MOL   O19218372   0.445   3.416   6.108  0.9369 -0.0179  0.4741
   91MOL   C19318373   0.320   3.349   6.056  0.3749 -0.2733 -0.2307
   91MOL   C19418374   0.237   3.319   6.179 -0.5812 -0.2816  0.1259
   91MOL   C19518375   0.156   3.438   6.221  0.2526 -0.0515 -0.8173
   91MOL   H19618376   0.367   3.263   6.007  1.1030 -0.4441  0.7559
   91MOL   H19718377   0.262   3.411   5.988 -0.0482 -0.5070 -0.0874
   91MOL   H19818378   0.177   3.230   6.163 -1.5619  0.4500 -0.3143
   91MOL   H19918379   0.295   3.283   6.264 -0.2042 -0.4292 -0.1974
   91MOL   H20018380   0.087   3.419   6.304 -0.3926 -2.2090 -1.8082
   91MOL   H20118381   0.089   3.474   6.143  0.3534 -0.0131 -0.8868
   91MOL   H20218382   0.231   3.511   6.251  0.7986  0.1677 -2.6963
   92MOL     O118383   1.017   1.049   0.972 -0.0704 -0.4366 -0.0218
   92MOL     C218384   0.992   0.948   1.068 -0.5318 -0.2463 -0.1837
   92MOL     C318385   0.981   0.799   1.020 -0.4139  0.4804 -0.1092
   92MOL     C418386   0.933   0.706   1.125  0.3544 -0.3170 -0.3323
   92MOL     H518387   0.891   0.976   1.099 -0.5581  1.6787 -1.8824
   92MOL     H618388   1.057   0.951   1.155 -2.2355  0.2302  1.1017
   92MOL     H718389   0.921   0.806   0.930  0.4309  0.0074 -0.7153
   92MOL     H818390   1.082   0.773   0.989  0.1809  1.1878  1.1486
   92MOL     H918391   1.001   0.716   1.209  1.0860  2.0515 -1.1783
   92MOL    H1018392   0.931   0.603   1.089  0.1242 -0.2102 -0.6280
   92MOL    H1118393   0.959   1.031   0.900 -2.0807  2.4605  0.7681
   92MOL    O1218394   0.797   0.745   1.160  0.1839 -0.4039 -0.3967
   92MOL    C1318395   0.730   0.657   1.253  0.1114  0.4932  0.0367
   92MOL    C1418396   0.651   0.564   1.164  0.1302 -0.2774 -0.2137
   92MOL    C1518397   0.581   0.450   1.244 -0.4070 -0.1720 -0.5442
   92MOL    H1618398   0.670   0.713   1.325 -0.6786  0.8731 -0.9116
   92MOL    H1718399   0.797   0.596   1.315 -0.6201  0.9154  1.2635
   92MOL    H1818400   0.573   0.626   1.120  0.9079  0.4800 -0.5359
   92MOL    H1918401   0.720   0.527   1.089  0.3214 -1.3419  0.4701
   92MOL    H2018402   0.531   0.476   1.338 -1.3036  0.1812 -1.1114
   92MOL    H2118403   0.653   0.370   1.261 -0.2295  0.4443  1.8552
   92MOL    O2218404   0.493   0.382   1.162 -0.0966 -1.0141  0.6364
   92MOL    C2318405   0.421   0.273   1.212 -0.5439  0.1447  0.1497
   92MOL    C2418406   0.278   0.266   1.148 -0.3002  0.4093  0.0260
   92MOL    C2518407   0.276   0.249   0.995  0.4376 -0.1038 -1.4576
   92MOL    H2618408   0.403   0.289   1.318 -0.4399  0.4203  0.1249
   92MOL    H2718409   0.487   0.186   1.206  1.2681  1.5174 -0.3822
   92MOL    H2818410   0.233   0.185   1.205 -0.0642 -1.1290 -1.9555
   92MOL    H2918411   0.220   0.354   1.178 -1.4233 -0.1265 -0.5452
   92MOL    H3018412   0.321   0.157   0.957  1.5840 -0.0872 -0.1683
   92MOL    H3118413   0.329   0.333   0.950 -1.7853  2.6338  0.8356
   92MOL    O3218414   0.140   0.269   0.954  0.2699  0.7541 -0.1361
   92MOL    C3318415   0.104   0.245   0.816 -0.3486  0.2015  0.1633
   92MOL    C3418416   0.057   0.093   0.802 -0.0835 -0.2257 -0.7376
   92MOL    C3518417   7.737   0.067   0.695  0.0629  0.0749 -0.0952
   92MOL    H3618418   0.186   0.270   0.749  0.9600 -1.9077  0.9209
   92MOL    H3718419   0.035   0.326   0.795  0.2035  1.4158  2.8909
   92MOL    H3818420   0.153   0.048   0.773  1.5496  0.7460  2.9219
   92MOL    H3918421   0.033   0.055   0.901  0.7526  1.6957  0.2413
   92MOL    H4018422   7.748   0.133   0.609 -0.8778  0.5282  0.1276
   92MOL    H4118423   7.640   0.067   0.744  0.3193 -1.0068  0.4206
   92MOL    O4218424   7.761   7.717   0.662 -0.5942 -0.0841 -0.1562
   92MOL    C4318425   7.661   7.651   0.581 -0.0637 -0.9190  0.7599
   92MOL    C4418426   7.712   7.525   0.515  0.0147  0.6659  0.6599
   92MOL    C4518427   7.602   7.445   0.448  0.5140 -0.4170 -1.1821
   92MOL    H4618428   7.648   7.725   0.502  1.6423 -2.0206 -0.5804
   92MOL    H4718429   7.573   7.639   0.645 -0.7269  0.7551  0.1756
   92MOL    H4818430   0.011   7.537   0.451 -0.7214 -0.8903 -0.6590
   92MOL    H4918431   7.740   7.462   0.599 -1.4731 -1.6241 -0.5170
   92MOL    H5018432   7.642   7.360   0.393 -0.4118 -0.9700 -1.0188
   92MOL    H5118433   7.538   7.510   0.388 -0.8987  0.2742  1.0113
   92MOL    O5218434   7.508   7.387   0.552  0.9912  0.1670  0.2520
   92MOL    C5318435   7.419   7.296   0.487  0.3631  0.0195 -0.8900
   92MOL    C5418436   7.324   7.271   0.610  0.0398  0.1011  0.1880
   92MOL    C5518437   7.186   7.212   0.579  0.2513 -0.2356 -0.3162
   92MOL    H5618438   7.478   7.209   0.457 -1.2978 -2.0432  1.5937
   92MOL    H5718439   7.367   7.334   0.399  0.9066  0.1702 -1.1455
   92MOL    H5818440   7.382   7.217   0.685 -1.0197  1.5599  2.1174
   92MOL    H5918441   7.306   7.369   0.653  1.2404 -0.5881  2.3664
   92MOL    H6018442   7.195   7.112   0.536 -3.5570 -0.5011 -0.7069
   92MOL    H6118443   7.142   7.270   0.498 -2.2472 -0.2337  0.9934
   92MOL    O6218444   7.094   7.194   0.688 -0.2647  0.0465  0.2711
   92MOL    C6318445   6.971   7.133   0.652 -0.1303 -0.4160 -0.2766
   92MOL    C6418446   6.894   7.108   0.774 -0.8525  0.3403 -0.2130
   92MOL    C6518447   6.754   7.052   0.744  0.2156  0.1209  0.0063
   92MOL    H6618448   6.988   7.039   0.601  1.2165  0.0893 -0.7864
   92MOL    H6718449   6.917   7.202   0.587 -2.2182 -0.9501  0.8544
   92MOL    H6818450   6.939   7.026   0.830 -0.5860 -0.0976 -1.0482
   92MOL    H6918451   6.894   7.194   0.841  2.5241  0.6775 -0.5748
   92MOL    H7018452   6.756   6.945   0.723  0.5518 -0.3089  2.1127
   92MOL    H7118453   6.682   7.108   0.684 -0.1465 -0.5147 -0.1603
   92MOL    O7218454   6.695   7.058   0.879  0.0494 -0.0515  0.0939
   92MOL    C7318455   6.553   7.018   0.886  0.6458 -0.7207  0.6315
   92MOL    C7418456   6.501   7.082   1.018  0.5006  0.0199 -0.1605
   92MOL    C7518457   6.361   7.044   1.038 -0.3455 -0.1675  0.1732
   92MOL    H7618458   6.552   6.911   0.908 -0.6656 -0.8898 -0.1876
   92MOL    H7718459   6.494   7.051   0.800 -0.7282 -0.5654  1.6205
   92MOL    H7818460   6.563   7.047   1.102  0.3076 -0.8515 -0.3795
   92MOL    H7918461   6.497   7.191   1.023  1.3365  0.1822 -2.5261
   92MOL    H8018462   6.341   7.047   1.145 -1.2813  1.0647 -0.0312
   92MOL    H8118463   6.341   6.945   0.998  0.4410  0.8833 -2.9639
   92MOL    O8218464   6.282   7.133   0.967 -0.6190  0.2951  0.3871
   92MOL    C8318465   6.148   7.113   0.980  0.0951 -0.3716 -0.2379
   92MOL    C8418466   6.058   7.196   0.889 -0.3499  0.4667  0.1287
   92MOL    C8518467   6.075   7.349   0.912 -0.0719  0.6048 -0.5870
   92MOL    H8618468   6.112   7.120   1.082 -1.8021  2.1230 -1.0529
   92MOL    H8718469   6.127   7.009   0.953 -1.7742  0.5312 -2.4397
   92MOL    H8818470   6.051   7.176   0.782 -2.0421  2.5446 -0.1871
   92MOL    H8918471   5.956   7.163   0.910 -0.3827  0.8561  0.5888
   92MOL    H9018472   6.157   7.390   0.853  0.7276 -0.2335 -0.0803
   92MOL    H9118473   6.092   7.370   1.018  2.0669  1.8620 -1.1580
   92MOL    O9218474   5.953   7.411   0.873  0.6858  0.0860 -1.0414
   92MOL    C9318475   5.952   7.546   0.900 -0.0505  0.0534 -0.5159
   92MOL    C9418476   5.806   7.600   0.909 -0.0362  0.1056 -0.8163
   92MOL    C9518477   5.803   7.752   0.935 -0.4527 -0.2126 -1.0251
   92MOL    H9618478   6.011   7.593   0.821 -0.5485  0.3008 -0.7462
   92MOL    H9718479   6.011   7.577   0.986 -3.8539  1.2583  1.7603
   92MOL    H9818480   5.739   7.566   0.830  0.2327 -0.1362 -0.9398
   92MOL    H9918481   5.763   7.552   0.997 -1.6419 -0.0235 -1.6555
   92MOL   H10018482   5.879   0.003   1.003  0.1774 -2.3939 -0.4195
   92MOL   H10118483   5.706   7.771   0.980 -0.2081 -0.1753 -0.5060
   92MOL   O10218484   5.811   0.039   0.817 -0.4020 -0.1818  0.2577
   92MOL   C10318485   5.828   0.174   0.843 -0.0659  0.4647 -0.2875
   92MOL   C10418486   5.812   0.262   0.722 -1.4731 -0.5916  0.0533
   92MOL   C10518487   5.920   0.242   0.618 -0.0058  0.4736  0.3199
   92MOL   H10618488   5.923   0.185   0.895 -0.3352  1.6220 -0.0352
   92MOL   H10718489   5.744   0.196   0.910  0.6545 -0.8036  1.0798
   92MOL   H10818490   5.715   0.244   0.676 -1.0157 -0.9040 -0.7950
   92MOL   H10918491   5.815   0.364   0.761 -0.4558 -0.6941  0.2641
   92MOL   H11018492   5.933   0.139   0.585 -0.0865 -0.0026  1.7332
   92MOL   H11118493   6.007   0.269   0.678  0.5752 -2.5529  0.9278
   92MOL   O11218494   5.901   0.333   0.509 -0.6221  0.1998 -0.0869
   92MOL   C11318495   6.014   0.356   0.425  0.4340  0.3992 -0.5335
   92MOL   C11418496   5.957   0.375   0.283  0.2707 -0.7891 -0.3553
   92MOL   C11518497   6.057   0.448   0.195 -0.1162  0.2151 -0.7771
   92MOL   H11618498   6.083   0.272   0.413 -1.5369 -1.2760 -0.4861
   92MOL   H11718499   6.076   0.432   0.471  1.3551 -0.4337 -0.3953
   92MOL   H11818500   5.944   0.270   0.254  2.6777 -0.9819 -0.8194
   92MOL   H11918501   5.863   0.428   0.269  0.7117 -0.0739 -0.6134
   92MOL   H12018502   6.059   0.552   0.226  2.1316  0.1738 -0.7263
   92MOL   H12118503   6.023   0.458   0.092 -0.9747  2.4423 -0.2967
   92MOL   O12218504   6.187   0.396   0.214 -0.0267  0.9129 -0.3394
   92MOL   C12318505   6.222   0.295   0.120  1.3362 -0.3774 -0.6145
   92MOL   C12418506   6.352   0.230   0.168  1.1600  0.0395  0.6508
   92MOL   C12518507   6.376   0.090   0.116 -0.5197  0.4321  0.2705
   92MOL   H12618508   6.243   0.329   0.019 -0.4130 -0.2126 -0.9435
   92MOL   H12718509   6.140   0.224   0.113  0.5118  0.3021  1.5565
   92MOL   H12818510   6.436   0.291   0.134  1.8733 -0.7337  0.9960
   92MOL   H12918511   6.359   0.223   0.277 -2.6821  0.1836  0.9892
   92MOL   H13018512   6.394   0.110   0.010  3.7452  0.2612  0.8894
   92MOL   H13118513   6.285   0.031   0.129 -1.4109  1.5034 -0.9581
   92MOL   O13218514   6.493   0.030   0.180  0.0762 -0.1229  0.1434
   92MOL   C13318515   6.545   7.707   0.110  0.0596 -0.8310 -0.1997
   92MOL   C13418516   6.660   7.638   0.181 -0.0954 -0.5023  0.2811
   92MOL   C13518517   6.755   7.553   0.094  0.4653 -0.3857 -0.4139
   92MOL   H13618518   6.595   7.744   0.021  0.4975 -0.1947  0.3088
   92MOL   H13718519   6.472   7.626   0.108  1.3496 -2.0062 -1.8539
   92MOL   H13818520   6.722   7.721   0.214  0.2518 -0.5588 -0.2278
   92MOL   H13918521   6.630   7.584   0.271 -0.9677 -2.7608 -1.3079
   92MOL   H14018522   6.847   7.535   0.149  1.0152  0.6539 -0.9726
   92MOL   H14118523   6.792   7.594   7.787 -0.6011  1.0899 -0.2127
   92MOL   O14218524   6.687   7.428   0.076 -0.5593 -0.1893 -0.1765
   92MOL   C14318525   6.744   7.349   7.760 -0.6313  0.0495 -0.6991
   92MOL   C14418526   6.659   7.234   7.743  0.3708  0.2192 -0.0280
   92MOL   C14518527   6.682   7.129   7.637  0.6841 -0.4452 -0.5514
   92MOL   H14618528   6.839   7.317   0.012  0.7013  3.3366 -1.0612
   92MOL   H14718529   6.764   7.398   7.664  1.6539  0.0289 -0.2582
   92MOL   H14818530   6.653   7.178   0.048  0.8608 -0.4051 -0.3733
   92MOL   H14918531   6.555   7.265   7.727  0.6762  0.8888 -0.7377
   92MOL   H15018532   6.626   7.039   7.663  2.2187 -1.1827  0.2516
   92MOL   H15118533   6.788   7.103   7.637  1.8281  3.8250  1.4562
   92MOL   O15218534   6.642   7.187   7.518 -0.3364  0.4838  0.1886
   92MOL   C15318535   6.689   7.114   7.400  0.1328 -0.1757 -0.4048
   92MOL   C15418536   6.630   7.175   7.266 -0.2275  0.1263  0.8685
   92MOL   C15518537   6.683   7.102   7.145 -0.1122  0.0180  0.2037
   92MOL   H15618538   6.667   7.008   7.408  0.1694 -0.1985 -0.6074
   92MOL   H15718539   6.797   7.103   7.390  0.1060 -0.6694 -0.1777
   92MOL   H15818540   6.523   7.163   7.277 -0.4878  0.6611 -1.0310
   92MOL   H15918541   6.653   7.280   7.244 -1.4713  0.1355 -0.4646
   92MOL   H16018542   6.628   7.135   7.057 -1.1334 -3.4350 -0.5085
   92MOL   H16118543   6.665   6.997   7.167 -3.4532  1.0402  2.9643
   92MOL   O16218544   6.820   7.115   7.119  0.5146  0.0048  0.0860
   92MOL   C16318545   6.853   7.015   7.025 -0.7397 -0.0857  0.4516
   92MOL   C16418546   6.978   7.069   6.948 -0.2757 -0.1491  0.0289
   92MOL   C16518547   6.955   7.208   6.892 -0.1657  0.6691  0.4229
   92MOL   H16618548   6.784   6.991   6.944  2.2269 -0.2287 -2.1690
   92MOL   H16718549   6.870   6.919   7.074 -2.0524 -0.1058  0.8922
   92MOL   H16818550   7.061   7.082   7.018  1.4251 -0.0043 -1.9478
   92MOL   H16918551   7.000   7.005   6.862 -3.1699 -2.2938  0.8078
   92MOL   H17018552   6.939   7.285   6.967  1.0131  0.2276  1.1512
   92MOL   H17118553   6.867   7.211   6.827 -0.3528  0.1540  0.6502
   92MOL   O17218554   7.059   7.235   6.794  0.2964 -0.4126  0.1795
   92MOL   C17318555   7.184   7.281   6.855  0.1894  0.5684 -0.0574
   92MOL   C17418556   7.251   7.355   6.741  0.6391 -0.0925 -0.4326
   92MOL   C17518557   7.406   7.332   6.745 -0.6708 -0.1582 -0.0893
   92MOL   H17618558   7.244   7.201   6.899 -1.1104  1.0380  2.6928
   92MOL   H17718559   7.169   7.350   6.939  1.0566  0.8439 -0.1226
   92MOL   H17818560   7.210   7.323   6.645 -0.0141 -0.9243  0.1221
   92MOL   H17918561   7.228   7.462   6.734  0.3946 -0.2653 -2.6296
   92MOL   H18018562   7.441   7.231   6.765 -1.5190 -0.8552 -1.9737
   92MOL   H18118563   7.436   7.382   6.836 -3.4766 -0.8023  1.2412
   92MOL   O18218564   7.471   7.391   6.642  0.3644 -0.3736  0.4697
   92MOL   C18318565   7.601   7.344   6.628 -1.0437 -0.0498 -0.3208
   92MOL   C18418566   7.657   7.406   6.496  0.0447  0.4948 -0.1947
   92MOL   C18518567   7.577   7.380   6.371  0.6687 -0.2855  0.2879
   92MOL   H18618568   7.586   7.237   6.620 -0.6480 -0.3293  2.4326
   92MOL   H18718569   7.667   7.360   6.713 -1.3088  0.1216 -0.1458
   92MOL   H18818570   7.642   7.514   6.506 -0.8156  0.1099  3.5048
   92MOL   H18918571   7.760   7.372   6.497  0.3996  1.5250 -0.6657
   92MOL   H19018572   7.480   7.423   6.396  0.1916 -0.6897 -0.8437
   92MOL   H19118573   7.570   7.271   6.373 -0.5057 -0.2065  0.6174
   92MOL   O19218574   7.631   7.436   6.249 -0.0772 -0.2049 -0.2842
   92MOL   C19318575   7.595   7.571   6.230  0.4264 -0.1907 -0.1394
   92MOL   C19418576   7.646   7.622   6.098 -0.0780 -0.7033  0.0275
   92MOL   C19518577   7.609   7.762   6.064  0.2251  0.3831  1.1151
   92MOL   H19618578   7.662   7.628   6.294  2.0719  1.8722 -3.5527
   92MOL   H19718579   7.488   7.589   6.233  0.4210 -0.0219 -1.1784
   92MOL   H19818580   7.755   7.615   6.101 -0.0059 -0.7991 -1.7867
   92MOL   H19918581   7.609   7.565   6.013  1.6426 -0.4487 -0.9224
   92MOL   H20018582   7.504   7.783   6.049  0.1219  0.9643  2.5243
   92MOL   H20118583   7.652   7.784   5.967  0.8169 -3.1352  0.5212
   92MOL   H20218584   7.633   0.052   6.136  0.1496 -0.5086  2.1233
   93MOL     O118585   0.237   5.563   2.858 -0.1411  0.9889  0.6270
   93MOL     C218586   0.350   5.560   2.763 -0.1450 -0.1388 -0.2555
   93MOL     C318587   0.456   5.673   2.787 -0.0676 -0.5602 -0.8107
   93MOL     C418588   0.577   5.647   2.710  0.3687  0.1686  0.5985
   93MOL     H518589   0.320   5.569   2.659  2.4253  3.4157 -0.8007
   93MOL     H618590   0.380   5.456   2.774  1.0872  0.5671  3.9679
   93MOL     H718591   0.415   5.770   2.761  0.3523 -0.1793 -0.0362
   93MOL     H818592   0.481   5.679   2.893  0.3365  2.1222 -1.0257
   93MOL     H918593   0.572   5.689   2.609  1.3375 -1.1579 -0.0094
   93MOL    H1018594   0.593   5.540   2.702 -1.0350 -0.0373  0.3639
   93MOL    H1118595   0.260   5.532   2.944 -1.7939 -0.1069  0.6984
   93MOL    O1218596   0.685   5.714   2.775  0.3149  0.1308  0.0602
   93MOL    C1318597   0.800   5.738   2.697  0.0250  0.8864  0.1610
   93MOL    C1418598   0.903   5.811   2.781  0.3625  0.1586  0.3525
   93MOL    C1518599   0.963   5.715   2.891  0.0141  0.1041  0.4993
   93MOL    H1618600   0.780   5.786   2.602  0.3353 -1.6236 -1.2126
   93MOL    H1718601   0.834   5.636   2.681 -1.1280  1.0106 -3.6638
   93MOL    H1818602   0.992   5.852   2.734 -0.4453  0.4551 -0.9497
   93MOL    H1918603   0.843   5.888   2.831 -1.5709 -0.2697 -1.2233
   93MOL    H2018604   1.001   5.627   2.839 -0.8658 -0.1853  0.3406
   93MOL    H2118605   0.888   5.696   2.967  0.1254 -1.0307  0.3371
   93MOL    O2218606   1.070   5.788   2.958 -0.0245  0.7689 -0.1898
   93MOL    C2318607   1.154   5.702   3.020 -0.4093 -0.2020 -0.6993
   93MOL    C2418608   1.283   5.764   3.085 -0.5805 -0.2986  1.1790
   93MOL    C2518609   1.364   5.663   3.167 -0.7301  0.0659  0.7299
   93MOL    H2618610   1.198   5.625   2.958  1.5848  1.3506 -1.2381
   93MOL    H2718611   1.088   5.654   3.093 -1.0386 -0.8546 -1.6883
   93MOL    H2818612   1.351   5.808   3.013 -0.7792 -0.9960  0.5617
   93MOL    H2918613   1.258   5.842   3.157 -1.5729  1.6772 -1.2509
   93MOL    H3018614   1.387   5.581   3.099  2.3376  2.2440 -0.9511
   93MOL    H3118615   1.313   5.643   3.261 -1.3505 -1.2957  0.1304
   93MOL    O3218616   1.486   5.724   3.199  0.1758 -0.6577  0.1332
   93MOL    C3318617   1.574   5.643   3.268  0.3047  0.0243  0.3376
   93MOL    C3418618   1.712   5.706   3.254 -0.0748 -0.0730  0.2202
   93MOL    C3518619   1.754   5.689   3.112  0.4208  0.6135  0.0747
   93MOL    H3618620   1.585   5.540   3.233  1.6660  0.4336 -0.4874
   93MOL    H3718621   1.557   5.638   3.376  1.9411 -0.5352  0.5862
   93MOL    H3818622   1.702   5.810   3.284 -1.4694  0.2927 -1.4891
   93MOL    H3918623   1.781   5.651   3.319 -1.7164 -1.8271  0.5388
   93MOL    H4018624   1.690   5.752   3.051  0.6925 -0.0911 -0.9426
   93MOL    H4118625   1.751   5.586   3.075 -0.4994 -0.0708  1.9775
   93MOL    O4218626   1.888   5.731   3.114  0.1825 -0.3877 -0.1359
   93MOL    C4318627   1.945   5.750   2.982 -0.5752  0.2414  0.2803
   93MOL    C4418628   2.100   5.736   2.981 -0.1995 -0.4461  0.6492
   93MOL    C4518629   2.156   5.771   2.845  0.0733  0.0245  0.2272
   93MOL    H4618630   1.919   5.848   2.942 -1.1926 -0.8562 -2.0818
   93MOL    H4718631   1.910   5.674   2.912  0.2881 -0.2304  0.3496
   93MOL    H4818632   2.136   5.813   3.049  1.8124 -1.1148  0.3666
   93MOL    H4918633   2.125   5.634   3.008 -0.9384 -0.4239  1.4412
   93MOL    H5018634   2.264   5.769   2.859 -0.0741 -0.5499  1.4008
   93MOL    H5118635   2.134   5.872   2.809  1.8487 -0.0957 -1.2679
   93MOL    O5218636   2.108   5.681   2.749 -0.1446  0.2934  0.1039
   93MOL    C5318637   2.212   5.642   2.651  0.6394  0.2566  0.0675
   93MOL    C5418638   2.248   5.496   2.649 -0.9870  0.3266 -0.2826
   93MOL    C5518639   2.351   5.463   2.757 -0.3226  0.0634 -0.2825
   93MOL    H5618640   2.306   5.695   2.668  0.1752  0.8157  0.9202
   93MOL    H5718641   2.182   5.661   2.549  0.4511 -1.2267 -0.1675
   93MOL    H5818642   2.158   5.439   2.670 -2.6947  2.9511 -0.2072
   93MOL    H5918643   2.286   5.468   2.551  0.4583  0.5930  0.1851
   93MOL    H6018644   2.372   5.357   2.745  0.4196  0.5116 -3.4307
   93MOL    H6118645   2.312   5.483   2.857  2.6425  0.7538  0.8185
   93MOL    O6218646   2.469   5.537   2.745  0.5374 -0.2428  0.2103
   93MOL    C6318647   2.577   5.472   2.811 -0.3219 -0.2322  0.5152
   93MOL    C6418648   2.716   5.539   2.777  0.3026  0.2427 -0.3080
   93MOL    C6518649   2.840   5.457   2.828  0.0572 -0.5005 -0.6210
   93MOL    H6618650   2.585   5.369   2.774 -0.1995  0.3170 -1.0091
   93MOL    H6718651   2.558   5.470   2.918 -1.9021 -3.3019  0.2306
   93MOL    H6818652   2.726   5.543   2.668  0.8476  2.2006 -0.2105
   93MOL    H6918653   2.725   5.643   2.809 -0.7132 -0.1431  1.2821
   93MOL    H7018654   2.852   5.364   2.773  0.7629  0.8330 -2.7637
   93MOL    H7118655   2.812   5.440   2.932  0.4761  1.5396 -0.1592
   93MOL    O7218656   2.956   5.536   2.818 -0.9706 -0.9453  0.4305
   93MOL    C7318657   3.056   5.490   2.918  0.5733  0.0107 -0.0673
   93MOL    C7418658   3.174   5.585   2.903  0.2575  0.0664  0.4641
   93MOL    C7518659   3.299   5.554   2.990  0.6960 -0.0994 -0.2662
   93MOL    H7618660   3.086   5.386   2.910  0.1020 -0.0468 -1.1498
   93MOL    H7718661   3.011   5.512   3.015  3.0380  0.4792  1.0117
   93MOL    H7818662   3.212   5.566   2.802  2.2291 -2.1809  1.5984
   93MOL    H7918663   3.130   5.683   2.919  0.6895  0.2154  0.7141
   93MOL    H8018664   3.374   5.623   2.951  0.7737 -0.1774 -0.2537
   93MOL    H8118665   3.333   5.452   2.971  1.6670  0.1821 -0.0311
   93MOL    O8218666   3.261   5.573   3.130 -0.6458 -0.9200 -0.3136
   93MOL    C8318667   3.372   5.564   3.227  0.1456  0.2172 -0.0154
   93MOL    C8418668   3.323   5.636   3.361  0.6826  0.3120 -0.0810
   93MOL    C8518669   3.430   5.656   3.465 -0.7095 -0.2727 -0.1827
   93MOL    H8618670   3.461   5.611   3.185  2.0092 -0.2203  3.2888
   93MOL    H8718671   3.394   5.458   3.240  0.1301  0.3989  1.5480
   93MOL    H8818672   3.303   5.738   3.328  0.8326  0.3855  0.0513
   93MOL    H8918673   3.232   5.587   3.396  2.6404 -2.1637  1.8077
   93MOL    H9018674   3.517   5.695   3.413  0.6840 -0.0479  2.2805
   93MOL    H9118675   3.455   5.559   3.507  1.4872 -0.1057 -1.0560
   93MOL    O9218676   3.367   5.738   3.561 -0.1492  0.1146 -0.8985
   93MOL    C9318677   3.471   5.782   3.643  0.4519  0.0655 -0.3407
   93MOL    C9418678   3.397   5.894   3.726 -0.5479  0.2621  0.1278
   93MOL    C9518679   3.499   5.966   3.816  0.5879 -0.5109  0.6905
   93MOL    H9618680   3.548   5.825   3.580  1.1077  1.7052  1.5367
   93MOL    H9718681   3.503   5.699   3.707  0.5371 -0.0370 -0.5154
   93MOL    H9818682   3.353   5.974   3.666 -2.2654 -0.2207  0.7258
   93MOL    H9918683   3.321   5.847   3.788 -0.4526 -0.3035 -0.1851
   93MOL   H10018684   3.438   6.022   3.887 -1.9458 -1.5786 -0.6004
   93MOL   H10118685   3.559   6.029   3.750  1.1408  1.3163  2.8531
   93MOL   O10218686   3.555   5.866   3.898 -0.4109 -0.2308  0.5147
   93MOL   C10318687   3.663   5.902   3.968  0.6474 -0.2206 -0.0677
   93MOL   C10418688   3.725   5.785   4.052 -0.6001  0.4307  0.7213
   93MOL   C10518689   3.823   5.839   4.158 -0.1576 -0.9805 -0.1168
   93MOL   H10618690   3.636   5.992   4.024 -2.8606 -0.9603 -0.4654
   93MOL   H10718691   3.742   5.931   3.899  2.7633 -1.6268  1.7067
   93MOL   H10818692   3.658   5.720   4.108  0.6489  0.1776  1.9561
   93MOL   H10918693   3.784   5.720   3.988 -0.5547  0.2701  0.9268
   93MOL   H11018694   3.781   5.934   4.192  2.2542 -0.2219  0.8031
   93MOL   H11118695   3.917   5.875   4.116 -0.3520  2.1229  1.9104
   93MOL   O11218696   3.840   5.733   4.249  0.7424  0.3819  0.5374
   93MOL   C11318697   3.895   5.775   4.373 -0.5203 -0.5105 -0.1554
   93MOL   C11418698   3.888   5.661   4.477  0.4055 -0.4855  0.2878
   93MOL   C11518699   3.968   5.539   4.433 -0.2401 -0.2397  0.4879
   93MOL   H11618700   3.832   5.858   4.403  1.0961  0.8135 -0.3686
   93MOL   H11718701   3.995   5.814   4.352  0.1891 -2.4746 -0.5693
   93MOL   H11818702   3.921   5.689   4.577  2.1642 -1.8904  0.1046
   93MOL   H11918703   3.782   5.640   4.494  1.0797 -2.3392  2.3859
   93MOL   H12018704   4.072   5.566   4.416 -0.2060 -0.5684  0.1579
   93MOL   H12118705   3.951   5.501   4.332 -0.0121 -1.8539  1.0456
   93MOL   O12218706   3.955   5.433   4.541 -0.5594 -0.1573 -0.1970
   93MOL   C12318707   4.026   5.321   4.509 -0.1454  0.7565  0.2000
   93MOL   C12418708   3.978   5.201   4.598 -0.6505 -0.6897 -0.1657
   93MOL   C12518709   4.048   5.075   4.571 -0.5212  0.6330  0.3384
   93MOL   H12618710   4.129   5.353   4.528  0.0251  0.3284  0.0148
   93MOL   H12718711   4.017   5.289   4.405 -1.1183  2.2476 -0.1946
   93MOL   H12818712   3.981   5.231   4.703  2.6501  1.0714 -0.6984
   93MOL   H12918713   3.872   5.176   4.592 -0.5886 -2.0283  3.0413
   93MOL   H13018714   4.044   5.039   4.468 -0.6471  0.5008  0.3889
   93MOL   H13118715   4.019   4.988   4.631 -2.0338  2.3178  2.1234
   93MOL   O13218716   4.179   5.087   4.622  0.0724 -0.4194 -0.2864
   93MOL   C13318717   4.275   5.088   4.518 -0.1434 -0.0393 -0.5094
   93MOL   C13418718   4.417   5.087   4.590 -0.2487  0.3278 -0.3679
   93MOL   C13518719   4.438   5.219   4.649 -0.4347 -0.1536 -0.5481
   93MOL   H13618720   4.265   5.182   4.465 -0.1785 -0.2556 -0.8882
   93MOL   H13718721   4.280   5.006   4.447  0.3186 -1.8451  1.5378
   93MOL   H13818722   4.420   5.009   4.666 -0.4904  1.8208  1.2154
   93MOL   H13918723   4.505   5.075   4.526 -0.3814 -1.7582 -0.2022
   93MOL   H14018724   4.350   5.256   4.702  0.3279  1.2413 -0.2272
   93MOL   H14118725   4.456   5.296   4.574  0.5395 -1.4528 -1.6713
   93MOL   O14218726   4.552   5.216   4.744 -0.7382  0.0136  0.3925
   93MOL   C14318727   4.586   5.346   4.787  0.4113 -0.3198 -0.0862
   93MOL   C14418728   4.686   5.351   4.904  0.1331  0.4843 -0.1782
   93MOL   C14518729   4.740   5.487   4.952  0.4331  0.5331  0.6873
   93MOL   H14618730   4.505   5.414   4.812  0.8054  0.1839 -0.1747
   93MOL   H14718731   4.644   5.389   4.706  1.2566  0.7425  1.0650
   93MOL   H14818732   4.638   5.296   4.984  0.0859 -1.2685 -1.3917
   93MOL   H14918733   4.774   5.292   4.877  1.7518  1.6208  2.4031
   93MOL   H15018734   4.794   5.483   5.046 -0.4625  0.6638  1.2109
   93MOL   H15118735   4.646   5.539   4.969 -0.8510 -1.8517  1.0126
   93MOL   O15218736   4.827   5.545   4.860 -0.1100  0.6549 -0.0727
   93MOL   C15318737   4.862   5.679   4.876  0.1024 -0.2576  0.2584
   93MOL   C15418738   4.941   5.725   4.752 -0.0044  0.3417 -0.5014
   93MOL   C15518739   4.853   5.807   4.660  0.0518  0.0106  0.1659
   93MOL   H15618740   4.940   5.677   4.952  0.1297  0.7472  0.2610
   93MOL   H15718741   4.778   5.744   4.900  1.2309  1.7802 -1.2000
   93MOL   H15818742   5.018   5.794   4.786  0.7343 -0.5172 -0.3928
   93MOL   H15918743   4.990   5.642   4.702 -0.1461  0.3810 -0.7048
   93MOL   H16018744   4.804   5.891   4.708 -3.2727 -1.5275 -0.4180
   93MOL   H16118745   4.776   5.737   4.627 -0.3234  0.8154 -0.6744
   93MOL   O16218746   4.927   5.849   4.543 -0.1800  0.3489 -0.2970
   93MOL   C16318747   4.851   5.936   4.464 -0.3574 -0.4759  0.3124
   93MOL   C16418748   4.914   5.942   4.323  0.0536 -0.1327  0.5406
   93MOL   C16518749   5.043   6.021   4.322  0.4265 -0.4668 -0.4038
   93MOL   H16618750   4.841   6.033   4.512 -0.4673 -0.3139 -0.0421
   93MOL   H16718751   4.756   5.886   4.450 -0.1590  0.0941 -3.3022
   93MOL   H16818752   4.920   5.835   4.302 -0.3039  0.2452 -1.6022
   93MOL   H16918753   4.844   5.975   4.247  1.3513 -0.0553 -0.6224
   93MOL   H17018754   5.098   6.004   4.414 -0.0674 -0.3596 -0.0881
   93MOL   H17118755   5.016   6.125   4.337 -1.5679 -0.4493 -3.5456
   93MOL   O17218756   5.113   6.010   4.201  0.3540 -0.3361  0.1744
   93MOL   C17318757   5.247   6.069   4.214 -0.1317  0.2531 -0.5722
   93MOL   C17418758   5.326   6.041   4.090  0.3901 -0.0868 -0.1673
   93MOL   C17518759   5.359   5.898   4.054  0.0642  0.1880  0.6000
   93MOL   H17618760   5.303   6.019   4.294 -0.3688  1.1641  0.1658
   93MOL   H17718761   5.248   6.175   4.236 -0.9446  0.6305 -2.2850
   93MOL   H17818762   5.286   6.094   4.004  0.4745  4.1530  2.3029
   93MOL   H17918763   5.425   6.084   4.105  0.5262 -0.3886 -0.1910
   93MOL   H18018764   5.267   5.841   4.057  0.6694 -0.7988  0.9429
   93MOL   H18118765   5.426   5.851   4.127 -1.5507 -2.3373  0.5335
   93MOL   O18218766   5.411   5.899   3.923  0.0474  0.2459  0.5099
   93MOL   C18318767   5.456   5.770   3.874 -0.0683 -0.2330 -0.2189
   93MOL   C18418768   5.542   5.768   3.745  0.1938 -0.0249 -0.4607
   93MOL   C18518769   5.586   5.623   3.715 -0.6114 -0.1536  0.5220
   93MOL   H18618770   5.373   5.700   3.873  1.2271 -1.7914 -1.7956
   93MOL   H18718771   5.523   5.727   3.948  0.3589 -1.0832 -1.0911
   93MOL   H18818772   5.480   5.813   3.667  0.1235 -1.0949 -1.0246
   93MOL   H18918773   5.629   5.830   3.765 -0.1597  1.0031 -2.0654
   93MOL   H19018774   5.503   5.578   3.661 -1.2822  1.6735 -0.0085
   93MOL   H19118775   5.609   5.572   3.809 -1.6003  0.9194  1.3733
   93MOL   O19218776   5.699   5.627   3.629  0.0444  0.2964 -0.1920
   93MOL   C19318777   5.762   5.504   3.611  0.7989  0.2540  0.1319
   93MOL   C19418778   5.862   5.516   3.495  0.5924  0.3199  0.2728
   93MOL   C19518779   5.907   5.389   3.432 -0.1231 -0.0411 -0.2358
   93MOL   H19618780   5.686   5.437   3.569  0.6359  0.4322  0.1449
   93MOL   H19718781   5.804   5.470   3.706  2.1602 -2.4472 -1.3703
   93MOL   H19818782   5.798   5.554   3.415 -0.2358 -0.0773  0.7419
   93MOL   H19918783   5.938   5.591   3.517 -0.8343  1.8324  0.1907
   93MOL   H20018784   5.940   5.397   3.328  3.8137  1.1583  1.0167
   93MOL   H20118785   5.831   5.314   3.456 -0.3721 -0.1567 -1.3635
   93MOL   H20218786   5.996   5.365   3.490 -0.9556  0.5494  1.3209
   94MOL     O118787   7.436   1.494   1.440  0.3164  0.0160 -0.6599
   94MOL     C218788   7.540   1.506   1.538 -0.7102 -0.0227 -0.1806
   94MOL     C318789   7.533   1.628   1.625 -0.1453 -0.1970  0.8736
   94MOL     C418790   7.575   1.762   1.547 -0.5855  0.2017 -0.1616
   94MOL     H518791   7.635   1.498   1.485  0.2790 -1.0131  1.7236
   94MOL     H618792   7.541   1.417   1.599  1.1295 -0.6904 -1.1533
   94MOL     H718793   7.428   1.632   1.654 -0.6419 -0.8672 -0.7170
   94MOL     H818794   7.595   1.616   1.713  3.6305  1.1633 -1.4997
   94MOL     H918795   7.518   1.774   1.455 -3.4168  1.4099  1.6924
   94MOL    H1018796   7.682   1.756   1.528 -0.4187  0.0317  0.7767
   94MOL    H1118797   7.471   1.439   1.371 -1.2784 -0.4701 -1.0951
   94MOL    O1218798   7.548   1.884   1.617  0.6799  0.4777 -0.1835
   94MOL    C1318799   7.408   1.902   1.640  0.0063 -0.6956  0.0607
   94MOL    C1418800   7.392   2.051   1.671  0.0545  0.6684  0.3587
   94MOL    C1518801   7.253   2.108   1.711 -0.1936  0.6640  0.3968
   94MOL    H1618802   7.369   1.832   1.714  2.7956 -0.8391  1.4695
   94MOL    H1718803   7.357   1.888   1.544 -1.9328  1.5580  0.6961
   94MOL    H1818804   7.457   2.066   1.757  1.1569  0.6574 -0.4660
   94MOL    H1918805   7.436   2.105   1.587 -0.3781 -1.2400 -1.1284
   94MOL    H2018806   7.232   2.072   1.811  0.1379  1.1840  0.6575
   94MOL    H2118807   7.181   2.062   1.643  1.8798  2.0668 -2.9096
   94MOL    O2218808   7.237   2.248   1.688 -0.3836  0.2648  0.3378
   94MOL    C2318809   7.133   2.312   1.768  0.6979  0.1379  0.2306
   94MOL    C2418810   6.993   2.297   1.694  0.2811 -0.0541  0.4126
   94MOL    C2518811   6.892   2.360   1.784  0.1443  0.5027  0.0120
   94MOL    H2618812   7.145   2.420   1.782  0.1799  0.0475  1.4359
   94MOL    H2718813   7.125   2.272   1.869 -2.3033 -1.5954 -0.6652
   94MOL    H2818814   6.998   2.354   1.602  3.1067  0.6628  0.9662
   94MOL    H2918815   6.966   2.195   1.669 -1.4830  0.9578 -2.0181
   94MOL    H3018816   6.924   2.460   1.813  0.6762  0.2693  0.2265
   94MOL    H3118817   6.897   2.310   1.881 -2.1140  0.6224  0.2208
   94MOL    O3218818   6.768   2.349   1.722  0.0134 -0.3194 -0.1739
   94MOL    C3318819   6.654   2.384   1.799 -0.1338 -0.3699 -0.5929
   94MOL    C3418820   6.545   2.365   1.704 -0.1806 -0.0701 -0.0249
   94MOL    C3518821   6.413   2.414   1.753 -0.4207 -0.2518 -0.0948
   94MOL    H3618822   6.648   2.487   1.834 -1.3028 -0.6573  0.0880
   94MOL    H3718823   6.655   2.326   1.891 -0.5274  0.2675 -0.1823
   94MOL    H3818824   6.569   2.399   1.603  2.5656 -2.1531 -0.1382
   94MOL    H3918825   6.539   2.257   1.687 -1.3455  0.3560 -2.6377
   94MOL    H4018826   6.424   2.522   1.766 -1.7889 -0.3397  1.9561
   94MOL    H4118827   6.384   2.368   1.847  0.5170 -2.0131 -0.6511
   94MOL    O4218828   6.323   2.381   1.652 -0.5269  1.1292  0.3495
   94MOL    C4318829   6.208   2.465   1.633 -0.1656  0.1868  0.5048
   94MOL    C4418830   6.162   2.437   1.487 -0.5016 -0.2078  0.3860
   94MOL    C4518831   6.077   2.308   1.491  0.3041  0.1135  0.2478
   94MOL    H4618832   6.239   2.569   1.642  0.4984  0.0219  0.1428
   94MOL    H4718833   6.128   2.442   1.704 -0.8221 -0.0782 -0.3101
   94MOL    H4818834   6.109   2.527   1.457  1.7976  1.0851  0.1705
   94MOL    H4918835   6.250   2.417   1.426 -0.2220 -0.7548  0.9619
   94MOL    H5018836   5.997   2.316   1.565 -0.7373  0.6095 -0.9272
   94MOL    H5118837   6.150   2.231   1.518 -1.7024 -1.1811  2.1872
   94MOL    O5218838   6.023   2.301   1.358 -0.0055  0.2471  0.1933
   94MOL    C5318839   5.936   2.201   1.324  0.4929  0.1859 -0.5716
   94MOL    C5418840   5.907   2.210   1.172  0.0769 -0.0094 -0.2102
   94MOL    C5518841   5.854   2.081   1.117  0.1523  0.4326 -0.5313
   94MOL    H5618842   5.846   2.196   1.384  1.6221 -1.5560  1.0412
   94MOL    H5718843   5.981   2.101   1.331  1.4293  0.7136  1.0777
   94MOL    H5818844   5.831   2.287   1.159  1.1410  0.6852 -2.4296
   94MOL    H5918845   5.992   2.233   1.109 -0.2919  0.3095 -0.5939
   94MOL    H6018846   5.779   2.043   1.187 -0.4858  2.9757  0.2261
   94MOL    H6118847   5.937   2.010   1.112  0.3225  0.5812  0.1363
   94MOL    O6218848   5.809   2.097   0.983  0.2434 -1.1075  0.0046
   94MOL    C6318849   5.759   1.982   0.921  0.0420  0.2748 -1.0315
   94MOL    C6418850   5.697   2.017   0.787 -0.4352 -0.2338 -0.5364
   94MOL    C6518851   5.601   2.136   0.790 -0.4963  0.1574 -0.3666
   94MOL    H6618852   5.682   1.949   0.991 -0.5997  0.4432 -1.6518
   94MOL    H6718853   5.838   1.908   0.907 -1.9393 -2.3519  1.0891
   94MOL    H6818854   5.776   2.038   0.715 -0.7665  1.3206 -0.4751
   94MOL    H6918855   5.646   1.929   0.749 -0.7777 -0.1223 -0.3352
   94MOL    H7018856   5.664   2.221   0.818  2.7107 -1.6769 -1.7002
   94MOL    H7118857   5.510   2.123   0.848 -0.3700  1.2349  0.0943
   94MOL    O7218858   5.559   2.149   0.654  0.1973  0.0885  0.0100
   94MOL    C7318859   5.513   2.278   0.624 -0.4783 -0.4830 -0.7538
   94MOL    C7418860   5.415   2.263   0.498  0.6052 -0.4325  0.0177
   94MOL    C7518861   5.353   2.391   0.447 -0.5517 -0.5692 -0.6568
   94MOL    H7618862   5.596   2.341   0.593 -0.4890 -0.2259 -0.2541
   94MOL    H7718863   5.464   2.328   0.707  2.7014 -0.8997  1.4502
   94MOL    H7818864   5.478   2.218   0.421  0.2335 -1.2958  0.2122
   94MOL    H7918865   5.339   2.190   0.526 -0.0677  0.8971  1.7516
   94MOL    H8018866   5.422   2.474   0.465  0.2248 -1.3699  0.1059
   94MOL    H8118867   5.265   2.415   0.507 -0.6503 -0.9612 -0.6451
   94MOL    O8218868   5.315   2.396   0.312 -0.5303  0.5315 -0.2616
   94MOL    C8318869   5.266   2.523   0.281  0.2557 -0.0091  0.6986
   94MOL    C8418870   5.201   2.519   0.139  0.0543  0.5564 -0.6792
   94MOL    C8518871   5.057   2.457   0.155  0.1994 -0.2753 -0.6088
   94MOL    H8618872   5.351   2.592   0.282  0.6011 -0.3053 -2.8249
   94MOL    H8718873   5.190   2.553   0.354  0.4088  0.7558  0.5518
   94MOL    H8818874   5.196   2.624   0.110  1.5026  0.4584 -1.2982
   94MOL    H8918875   5.266   2.468   0.068  0.4289 -1.1597  0.8695
   94MOL    H9018876   5.004   2.509   0.234 -0.0578 -1.3152 -0.0937
   94MOL    H9118877   5.074   2.354   0.184 -1.1433 -0.6148 -0.9994
   94MOL    O9218878   4.975   2.466   0.048  0.6153 -0.4219  0.2559
   94MOL    C9318879   5.014   2.395   7.719 -0.2813 -0.0778  0.0244
   94MOL    C9418880   4.896   2.391   7.614 -0.5904  0.5314  0.3458
   94MOL    C9518881   4.921   2.353   7.466  0.2058 -0.0421 -0.1285
   94MOL    H9618882   5.071   2.303   7.735  1.3744  1.4172  3.4104
   94MOL    H9718883   5.097   2.451   7.677 -0.4445 -0.1008 -0.3302
   94MOL    H9818884   4.823   2.317   7.643 -0.5473  0.4830  0.3326
   94MOL    H9918885   4.845   2.487   7.617  0.5527  1.3202 -2.7168
   94MOL   H10018886   5.007   2.410   7.431 -0.7412  1.5941  0.1879
   94MOL   H10118887   4.830   2.363   7.408  0.2361 -2.0386 -0.5613
   94MOL   O10218888   4.968   2.215   7.467 -0.2866 -0.5982 -0.0908
   94MOL   C10318889   4.991   2.171   7.338 -0.0061  0.1261  0.0046
   94MOL   C10418890   5.076   2.042   7.342  0.3384 -0.2731 -0.0686
   94MOL   C10518891   5.101   1.992   7.202  0.2764  0.0545  0.5305
   94MOL   H10618892   5.048   2.243   7.279  3.3753 -0.0061  2.9209
   94MOL   H10718893   4.894   2.148   7.295  0.8700  0.3833 -2.1911
   94MOL   H10818894   5.172   2.055   7.391  0.0798 -0.3812  0.4753
   94MOL   H10918895   5.013   1.965   7.385 -1.2345  1.0196  0.0024
   94MOL   H11018896   5.172   2.052   7.145  0.4824  0.5269  1.2832
   94MOL   H11118897   5.010   1.994   7.142  0.1404  1.8512  0.7619
   94MOL   O11218898   5.158   1.863   7.214 -0.4604 -0.0900 -0.0262
   94MOL   C11318899   5.200   1.807   7.093  0.6967 -0.3651  0.6727
   94MOL   C11418900   5.273   1.671   7.124 -0.5378  0.1521  0.7287
   94MOL   C11518901   5.342   1.610   6.997  0.6556  0.1677 -0.6650
   94MOL   H11618902   5.268   1.862   7.027 -0.2224  0.4774  0.4119
   94MOL   H11718903   5.104   1.782   7.048  0.0532  2.4464  0.3516
   94MOL   H11818904   5.333   1.686   7.214 -1.2428 -0.7872  1.3575
   94MOL   H11918905   5.190   1.611   7.162  0.8523 -1.1341  1.7758
   94MOL   H12018906   5.416   1.680   6.957  1.1642 -1.7132 -3.1252
   94MOL   H12118907   5.276   1.591   6.912  0.2775 -1.8312  0.0562
   94MOL   O12218908   5.395   1.484   7.028  0.0022  0.4674  0.8226
   94MOL   C12318909   5.425   1.395   6.920 -0.4093  0.6126  0.1850
   94MOL   C12418910   5.479   1.264   6.980  0.1759 -0.0153 -0.1729
   94MOL   C12518911   5.478   1.153   6.881 -0.2698 -0.0506  0.7367
   94MOL   H12618912   5.497   1.450   6.859  1.1711 -0.4639  1.0767
   94MOL   H12718913   5.336   1.379   6.859  0.3547 -1.8069 -0.3418
   94MOL   H12818914   5.579   1.284   7.018 -0.8473  1.6290  1.6957
   94MOL   H12918915   5.423   1.237   7.069  0.7780  1.3065  0.6301
   94MOL   H13018916   5.523   1.194   6.790 -1.8766 -1.0156 -0.5134
   94MOL   H13118917   5.376   1.134   6.848  0.2799 -2.1354  0.2063
   94MOL   O13218918   5.525   1.036   6.951  0.4687  0.9364  0.4609
   94MOL   C13318919   5.549   0.925   6.860 -0.4621  0.4319  0.7748
   94MOL   C13418920   5.650   0.847   6.947 -0.7427  0.4258  0.6390
   94MOL   C13518921   5.603   0.818   7.085  0.3708  0.3492 -0.2898
   94MOL   H13618922   5.585   0.953   6.761  1.6889  0.0377  1.4245
   94MOL   H13718923   5.451   0.880   6.842 -0.9459  1.2008  1.4493
   94MOL   H13818924   5.683   0.758   6.893 -2.3305  0.3330 -0.1802
   94MOL   H13918925   5.742   0.906   6.951  0.2281 -1.0174 -0.0858
   94MOL   H14018926   5.498   0.793   7.072  1.0283 -2.6084 -0.2849
   94MOL   H14118927   5.609   0.904   7.152  1.9368 -0.7779  1.0570
   94MOL   O14218928   5.669   0.704   7.156 -0.8904  0.4719  0.0206
   94MOL   C14318929   5.595   0.649   7.267 -0.5076 -0.4019  0.2519
   94MOL   C14418930   5.671   0.557   7.359 -0.7936  0.2338  0.0353
   94MOL   C14518931   5.587   0.512   7.476 -0.7670  0.3470  0.0804
   94MOL   H14618932   5.500   0.614   7.226  0.1549 -0.6251 -1.1123
   94MOL   H14718933   5.565   0.736   7.326  0.5406 -0.3290  0.6863
   94MOL   H14818934   5.720   0.472   7.312  1.1268  1.4213 -0.1252
   94MOL   H14918935   5.754   0.619   7.392 -0.8660  1.5554 -2.1563
   94MOL   H15018936   5.505   0.452   7.436 -0.9662  0.8223 -0.2206
   94MOL   H15118937   5.539   0.599   7.521  0.6872  1.2313 -0.0789
   94MOL   O15218938   5.668   0.449   7.577 -0.2465 -0.0783  0.2326
   94MOL   C15318939   5.590   0.406   7.686 -0.2878 -0.0187 -0.1459
   94MOL   C15418940   5.671   0.317   7.786  0.4251  0.4900  0.3025
   94MOL   C15518941   5.666   0.166   7.744 -0.0462  0.4641  0.4007
   94MOL   H15618942   5.502   0.360   7.641 -1.2230  1.0840  0.5290
   94MOL   H15718943   5.557   0.487   7.751  3.7224  0.1930  1.7762
   94MOL   H15818944   5.770   0.352   0.026  0.2533 -0.1209  1.7241
   94MOL   H15918945   5.624   0.329   0.095 -2.0240  2.2372 -1.0400
   94MOL   H16018946   5.692   0.157   7.638  1.0486  3.3143  0.3904
   94MOL   H16118947   5.567   0.122   7.760  1.4877 -2.7614  1.3181
   94MOL   O16218948   5.774   0.095   0.016 -0.5757  0.1435  0.2343
   94MOL   C16318949   5.740   7.748   0.028  0.4605  0.0646 -0.0715
   94MOL   C16418950   5.856   7.657   0.073 -0.5824 -0.3236 -0.0065
   94MOL   C16518951   5.970   7.670   7.757  0.0588 -0.2533  0.3864
   94MOL   H16618952   5.715   7.722   7.713  0.2894 -1.5880  0.3718
   94MOL   H16718953   5.657   7.739   0.098  1.3193  2.8479  1.3480
   94MOL   H16818954   5.890   7.698   0.169  1.5320 -0.0225 -0.8600
   94MOL   H16918955   5.816   7.558   0.094 -1.9355  0.1783 -0.1378
   94MOL   H17018956   6.013   7.769   7.771  3.8923 -1.8393  0.4692
   94MOL   H17118957   5.945   7.653   7.653  1.6069  1.3741 -0.2800
   94MOL   O17218958   6.077   7.577   7.788  0.0166  0.2014  0.1232
   94MOL   C17318959   6.177   7.594   7.696  0.0135 -0.4653  0.1615
   94MOL   C17418960   6.263   7.468   7.697  0.0278  0.4458 -0.5705
   94MOL   C17518961   6.353   7.480   7.570  0.0240  0.2255 -0.0277
   94MOL   H17618962   6.246   7.678   7.707  0.2653 -0.5753 -0.4927
   94MOL   H17718963   6.132   7.592   7.596 -1.7727 -0.5627  0.9527
   94MOL   H17818964   6.319   7.466   0.003  1.6256 -0.5244 -1.5111
   94MOL   H17918965   6.205   7.375   7.695  0.3074  0.2240  0.7972
   94MOL   H18018966   6.296   7.505   7.480  0.5388 -3.2418 -1.4235
   94MOL   H18118967   6.410   7.387   7.561  1.0204  0.6226  2.0121
   94MOL   O18218968   6.451   7.582   7.592 -0.0519 -0.4190 -0.5072
   94MOL   C18318969   6.518   7.620   7.468  0.0544  1.1482 -0.4508
   94MOL   C18418970   6.634   7.716   7.491  1.0244 -0.1997  0.0578
   94MOL   C18518971   6.720   7.740   7.365  0.2358 -0.3741 -0.1088
   94MOL   H18618972   6.446   7.667   7.402 -1.4828 -0.0804  0.3204
   94MOL   H18718973   6.548   7.525   7.425  0.2534  0.7781  0.4853
   94MOL   H18818974   6.586   0.024   7.513  1.9426  1.2469 -3.8526
   94MOL   H18918975   6.704   7.674   7.563 -0.1000 -2.2044  0.0263
   94MOL   H19018976   6.655   7.773   7.284  1.1231  0.8793 -0.3209
   94MOL   H19118977   6.768   7.659   7.311  2.0090  1.3950 -1.2438
   94MOL   O19218978   6.825   0.043   7.390  0.3777  0.0581 -0.0615
   94MOL   C19318979   6.880   0.105   7.274 -0.2345  0.4162 -0.8868
   94MOL   C19418980   7.003   0.198   7.311 -0.2745  0.1628  0.4405
   94MOL   C19518981   7.090   0.236   7.188 -0.3554  0.6635  0.8630
   94MOL   H19618982   6.806   0.160   7.216  1.0880 -0.5329 -3.5632
   94MOL   H19718983   6.911   0.025   7.206  0.2318  0.3076 -0.5520
   94MOL   H19818984   6.982   0.293   7.359  1.6790  0.8005  0.0772
   94MOL   H19918985   7.065   0.136   7.377 -0.1887  0.2561  0.4471
   94MOL   H20018986   7.051   0.328   7.145 -0.5142  0.1210 -0.1566
   94MOL   H20118987   7.092   0.148   7.125  3.0416  0.6833  0.8662
   94MOL   H20218988   7.191   0.261   7.220 -0.7886  1.2596  1.8318
   95MOL     O118989   6.491   4.003   1.473  0.0496 -0.2698 -0.6752
   95MOL     C218990   6.424   3.906   1.552  0.0987  0.0247  0.9585
   95MOL     C318991   6.434   3.767   1.475  0.4511 -0.2483 -0.2313
   95MOL     C418992   6.410   3.650   1.566  0.2575  0.4004  0.2550
   95MOL     H518993   6.325   3.950   1.562  0.6666  1.5475  0.0784
   95MOL     H618994   6.477   3.897   1.647  1.1031  0.1951  0.4293
   95MOL     H718995   6.373   3.763   1.385 -1.8896  1.2569  1.2099
   95MOL     H818996   6.536   3.767   1.438  0.0212 -1.2920 -1.4362
   95MOL     H918997   6.316   3.664   1.620 -0.1720 -0.9799 -0.1176
   95MOL    H1018998   6.491   3.637   1.637  0.7332  2.5275  0.1301
   95MOL    H1118999   6.585   3.994   1.466 -0.0126 -1.0696 -0.5976
   95MOL    O1219000   6.409   3.530   1.494  0.0940  0.2594  0.5571
   95MOL    C1319001   6.397   3.422   1.591 -0.7006 -0.2841  0.2918
   95MOL    C1419002   6.396   3.291   1.513 -0.7986 -0.2486 -0.5362
   95MOL    C1519003   6.465   3.174   1.596 -0.4035 -0.1413  0.4406
   95MOL    H1619004   6.309   3.443   1.652 -0.7787  1.9036 -0.5460
   95MOL    H1719005   6.488   3.435   1.651 -0.3453  0.3188 -0.3713
   95MOL    H1819006   6.291   3.281   1.485 -1.0946  1.2119  0.0076
   95MOL    H1919007   6.446   3.305   1.417 -1.0446 -3.3960 -1.1809
   95MOL    H2019008   6.404   3.149   1.682  1.3345 -1.9896  1.1616
   95MOL    H2119009   6.559   3.207   1.640 -0.2151 -0.8669  0.5741
   95MOL    O2219010   6.479   3.065   1.505  0.2068 -0.5050 -0.1302
   95MOL    C2319011   6.534   2.953   1.566  0.4115  0.0197  0.1636
   95MOL    C2419012   6.522   2.838   1.463 -0.1810  0.0484 -0.6793
   95MOL    C2519013   6.616   2.718   1.502  0.0139  0.1919 -0.2423
   95MOL    H2619014   6.474   2.923   1.651  0.7964 -1.9451 -0.2477
   95MOL    H2719015   6.630   2.973   1.612  0.0125  1.8623  0.2403
   95MOL    H2819016   6.419   2.803   1.462 -1.7769  4.3924 -0.2969
   95MOL    H2919017   6.547   2.883   1.367  0.4242  1.3312  0.0703
   95MOL    H3019018   6.605   2.641   1.426 -2.0635  0.9037 -0.6838
   95MOL    H3119019   6.592   2.687   1.604 -2.4225  0.5672 -0.6765
   95MOL    O3219020   6.750   2.764   1.490 -0.6045 -0.2370  0.6632
   95MOL    C3319021   6.841   2.657   1.517  0.5211 -0.0185 -0.4395
   95MOL    C3419022   6.981   2.697   1.471  0.2041 -1.2530  0.1767
   95MOL    C3519023   7.088   2.589   1.494 -0.5174 -0.4212  0.0616
   95MOL    H3619024   6.804   2.566   1.469  1.1426  0.0608 -1.0722
   95MOL    H3719025   6.832   2.635   1.623 -2.1597 -1.0268 -0.8341
   95MOL    H3819026   6.974   2.724   1.366  0.1745 -0.4580  0.3847
   95MOL    H3919027   7.005   2.780   1.537 -0.6098 -0.2591 -0.7712
   95MOL    H4019028   7.059   2.499   1.439 -2.1225 -0.1724  0.4658
   95MOL    H4119029   7.098   2.572   1.601  0.9301  0.7160  0.1097
   95MOL    O4219030   7.209   2.648   1.443 -0.1813  0.2629 -0.1841
   95MOL    C4319031   7.310   2.557   1.445 -0.5322 -0.4348 -0.4146
   95MOL    C4419032   7.377   2.567   1.588  0.6954 -0.7463  0.6566
   95MOL    C4519033   7.495   2.469   1.603 -0.1100  0.5319 -0.4162
   95MOL    H4619034   7.375   2.584   1.362  2.6425  0.9362  2.3750
   95MOL    H4719035   7.279   2.457   1.417 -1.1487 -0.0031 -1.2720
   95MOL    H4819036   7.423   2.666   1.586 -0.1045 -0.4001 -1.8437
   95MOL    H4919037   7.309   2.560   1.672 -0.0196 -1.1768  0.0412
   95MOL    H5019038   7.552   2.475   1.510  1.5686 -2.0931  0.3761
   95MOL    H5119039   7.467   2.364   1.616  1.5786  0.2795  1.4954
   95MOL    O5219040   7.572   2.522   1.707  0.2182  0.1946  0.1350
   95MOL    C5319041   7.680   2.438   1.743  0.4374  0.0586 -0.1446
   95MOL    C5419042   0.000   2.526   1.819  0.2828  1.0714  0.7033
   95MOL    C5519043   0.123   2.441   1.864  0.3984 -0.1359  0.8067
   95MOL    H5619044   7.734   2.398   1.657  1.4015  3.3982 -1.1594
   95MOL    H5719045   7.633   2.366   1.810 -0.4533 -0.2493 -1.0914
   95MOL    H5819046   0.022   2.619   1.766 -1.2732  0.6781 -0.6614
   95MOL    H5919047   7.736   2.555   1.910 -0.4216  1.1160  0.2879
   95MOL    H6019048   0.179   2.422   1.773 -0.1504  1.4540  0.1076
   95MOL    H6119049   0.092   2.349   1.913  0.1101  0.6773  2.1951
   95MOL    O6219050   0.198   2.508   1.968  0.0406 -0.5347 -0.5903
   95MOL    C6319051   0.316   2.437   1.998 -0.1082  1.0835 -0.1443
   95MOL    C6419052   0.382   2.498   2.119 -0.3249  0.3100 -0.4816
   95MOL    C6519053   0.516   2.443   2.159  0.0476  0.3335  0.0443
   95MOL    H6619054   0.383   2.424   1.913  2.4147 -1.6860  2.1463
   95MOL    H6719055   0.303   2.333   2.027  3.3665  0.3760 -0.9220
   95MOL    H6819056   0.404   2.603   2.099  2.3130  0.2270  1.7026
   95MOL    H6919057   0.315   2.476   2.202  1.3908  1.4917  1.2378
   95MOL    H7019058   0.511   2.335   2.167 -0.0223  0.2358 -1.1964
   95MOL    H7119059   0.532   2.488   2.257  1.5299 -1.4543  0.6396
   95MOL    O7219060   0.607   2.491   2.069 -0.2475  0.1400 -0.0001
   95MOL    C7319061   0.742   2.442   2.097  0.1331  0.7904 -0.1672
   95MOL    C7419062   0.832   2.457   1.975  0.3769  0.6864  0.2560
   95MOL    C7519063   0.782   2.351   1.866 -0.8290  0.2791 -0.1571
   95MOL    H7619064   0.738   2.340   2.135 -3.0280  1.2418  0.8427
   95MOL    H7719065   0.779   2.504   2.179  1.3108  3.0284 -2.3135
   95MOL    H7819066   0.805   2.558   1.947 -0.7102  1.0825  2.6426
   95MOL    H7919067   0.939   2.438   1.991 -0.2257 -2.0294  1.3972
   95MOL    H8019068   0.686   2.384   1.826 -0.6768 -0.0028 -0.7629
   95MOL    H8119069   0.754   2.254   1.906 -1.0654 -0.0860 -1.1936
   95MOL    O8219070   0.862   2.336   1.751 -0.3471 -0.1145  0.2247
   95MOL    C8319071   0.809   2.246   1.656  0.1929 -0.5379  0.3144
   95MOL    C8419072   0.914   2.242   1.547  0.0760 -0.4500  0.2722
   95MOL    C8519073   0.878   2.138   1.438  0.4062  0.4289 -0.6312
   95MOL    H8619074   0.720   2.291   1.612  0.8175 -0.8120 -1.2719
   95MOL    H8719075   0.795   2.144   1.691  2.8292 -0.3729  1.9349
   95MOL    H8819076   0.941   2.338   1.502 -0.9393 -0.3499 -0.1227
   95MOL    H8919077   1.014   2.208   1.576  1.6646  1.8117 -2.2186
   95MOL    H9019078   0.787   2.171   1.387 -0.0344  1.7450  0.9776
   95MOL    H9119079   0.842   2.046   1.483 -1.3656  1.5812  0.3550
   95MOL    O9219080   0.985   2.136   1.348  0.0851 -0.2069  0.2010
   95MOL    C9319081   0.954   2.059   1.233 -0.1265 -0.3167 -0.2210
   95MOL    C9419082   1.087   2.075   1.147 -0.5797  0.7069  0.1724
   95MOL    C9519083   1.077   2.021   1.005  0.7544  0.3199 -0.0987
   95MOL    H9619084   0.869   2.093   1.174  0.2864  0.7370 -0.2279
   95MOL    H9719085   0.941   1.953   1.253 -0.9399  0.0181  1.0826
   95MOL    H9819086   1.119   2.179   1.137  3.3923 -0.6646 -3.0440
   95MOL    H9919087   1.175   2.034   1.196 -0.3864  0.9112  0.0004
   95MOL   H10019088   1.162   2.049   0.944  1.1890 -1.6684 -0.4443
   95MOL   H10119089   0.989   2.066   0.958  1.6727  1.4856 -0.7394
   95MOL   O10219090   1.074   1.882   1.001  0.1144 -0.7403  0.3563
   95MOL   C10319091   1.086   1.834   0.875 -0.0317  1.2452  0.7992
   95MOL   C10419092   1.093   1.680   0.884  1.0577 -0.8502  0.2690
   95MOL   C10519093   1.095   1.608   0.749 -0.1429 -0.8539 -0.1751
   95MOL   H10619094   1.182   1.861   0.832  1.2426 -0.4494  2.4827
   95MOL   H10719095   1.000   1.862   0.815 -2.2557 -0.8707  2.8954
   95MOL   H10819096   1.191   1.668   0.931  0.9869  0.8630  0.8786
   95MOL   H10919097   1.011   1.645   0.947 -1.6179  0.4521 -2.4079
   95MOL   H11019098   1.183   1.642   0.694  0.9501 -0.8936  1.5195
   95MOL   H11119099   1.005   1.622   0.688 -0.9475 -3.4701  0.3609
   95MOL   O11219100   1.105   1.469   0.776 -0.3536 -0.4068 -0.3385
   95MOL   C11319101   1.114   1.397   0.653 -0.1234 -0.2447 -0.3343
   95MOL   C11419102   1.097   1.252   0.695  0.5391  0.3970  0.2378
   95MOL   C11519103   1.112   1.153   0.573  0.0520 -0.0975 -0.0477
   95MOL   H11619104   1.205   1.414   0.594  1.2188 -2.5913  0.9818
   95MOL   H11719105   1.025   1.416   0.593 -2.0063 -0.7876  2.2083
   95MOL   H11819106   1.177   1.232   0.766 -0.8358  0.0016  1.7091
   95MOL   H11919107   1.009   1.232   0.756  0.7686  1.5587  0.9648
   95MOL   H12019108   1.137   1.053   0.607  2.6893  0.2162 -0.9542
   95MOL   H12119109   1.197   1.184   0.511  1.5171 -0.9071  1.5128
   95MOL   O12219110   0.996   1.173   0.494 -0.1648 -0.0521  0.0327
   95MOL   C12319111   0.995   1.100   0.375  0.1509 -0.2411 -0.5676
   95MOL   C12419112   0.887   1.152   0.276 -0.1200  0.0481  0.0274
   95MOL   C12519113   0.911   1.132   0.129  0.0381 -0.4573  0.0684
   95MOL   H12619114   0.983   0.992   0.383  3.4925 -0.5341  1.6502
   95MOL   H12719115   1.091   1.116   0.324 -0.0280 -0.3359 -0.9376
   95MOL   H12819116   0.789   1.112   0.305 -0.2161  0.2405 -0.0326
   95MOL   H12919117   0.885   1.259   0.296  0.0460 -0.1217  1.0102
   95MOL   H13019118   0.836   1.186   0.072  1.7706  1.1749 -0.7462
   95MOL   H13119119   0.909   1.025   0.108  0.3546  0.0210 -2.5414
   95MOL   O13219120   1.026   1.190   0.075 -0.1655 -0.0987  0.5007
   95MOL   C13319121   1.048   1.173   7.723  0.7125  0.3284 -0.1310
   95MOL   C13419122   1.171   1.086   7.690  0.6199 -0.2619 -0.2383
   95MOL   C13519123   1.190   0.951   7.765 -0.2750 -0.1006  0.1880
   95MOL   H13619124   1.049   1.273   7.680 -0.6266 -0.2083 -1.4639
   95MOL   H13719125   0.964   1.127   7.670 -0.5400  1.2435  1.0156
   95MOL   H13819126   1.168   1.070   7.582  0.1057 -1.1768 -0.0949
   95MOL   H13919127   1.254   1.154   7.707 -0.5159  0.8894  0.7948
   95MOL   H14019128   1.190   0.961   0.085 -1.1413 -0.8695  0.2608
   95MOL   H14119129   1.289   0.916   7.735 -0.7450 -0.3552 -1.1285
   95MOL   O14219130   1.085   0.868   7.725  0.4758  0.1707  0.4778
   95MOL   C14319131   1.065   0.748   0.019 -0.2515  0.4563 -0.3806
   95MOL   C14419132   1.177   0.648   7.779  0.1771  0.0968 -0.0828
   95MOL   C14519133   1.154   0.519   0.071  0.1641 -0.3183 -0.3583
   95MOL   H14619134   0.965   0.714   7.779  0.9003 -2.5111 -1.0016
   95MOL   H14719135   1.063   0.772   0.125  3.8352 -0.4328 -0.0283
   95MOL   H14819136   1.167   0.618   7.674 -0.6954  0.0341  0.0131
   95MOL   H14919137   1.279   0.678   0.013  0.5701 -1.1046 -0.2280
   95MOL   H15019138   1.065   0.472   0.030 -0.7183  0.4577  0.6563
   95MOL   H15119139   1.128   0.545   0.174 -0.5102  2.5811 -1.2197
   95MOL   O15219140   1.266   0.430   0.046 -0.5257 -0.2647 -0.0979
   95MOL   C15319141   1.249   0.309   0.122  0.3215  0.1955  0.0654
   95MOL   C15419142   1.364   0.206   0.090 -0.1244  0.3926  0.3205
   95MOL   C15519143   1.341   0.063   0.163 -0.7851  0.0047 -0.2655
   95MOL   H15619144   1.152   0.263   0.106 -0.4916  2.6531 -2.5306
   95MOL   H15719145   1.247   0.334   0.228 -1.7673  0.0014  0.0923
   95MOL   H15819146   1.394   0.190   7.774 -0.5104  1.3384  0.0614
   95MOL   H15919147   1.450   0.255   0.134 -1.3261  1.8508  1.0724
   95MOL   H16019148   1.430   0.005   0.138 -0.3701  0.4868  0.0832
   95MOL   H16119149   1.255   0.002   0.134 -1.0294  1.5443 -2.9724
   95MOL   O16219150   1.340   0.067   0.305  0.1963  0.2576  0.1849
   95MOL   C16319151   1.344   7.727   0.361  0.1064  0.5573 -1.0824
   95MOL   C16419152   1.350   7.759   0.510  0.5012  0.4007  0.2904
   95MOL   C16519153   1.381   7.646   0.610  0.0007  0.2633 -0.5170
   95MOL   H16619154   1.429   7.667   0.327  0.1889  0.4928 -0.7718
   95MOL   H16719155   1.248   7.678   0.346  0.9642 -0.6826 -2.7238
   95MOL   H16819156   1.427   0.048   0.521  0.4590  0.6896 -1.3206
   95MOL   H16919157   1.264   0.034   0.533 -0.1331 -1.0618  1.9836
   95MOL   H17019158   1.369   7.666   0.716  1.4503  1.1304 -0.5052
   95MOL   H17119159   1.483   7.608   0.597 -0.0499 -0.5112  1.2268
   95MOL   O17219160   1.292   7.547   0.569 -0.3709  0.0050  0.1117
   95MOL   C17319161   1.312   7.424   0.623 -0.2702  0.1622 -0.5650
   95MOL   C17419162   1.243   7.311   0.541 -0.2140  0.1803 -0.0261
   95MOL   C17519163   1.298   7.284   0.400 -0.4463 -1.0028  0.5511
   95MOL   H17619164   1.285   7.414   0.728 -0.2959  0.7464 -0.5179
   95MOL   H17719165   1.419   7.400   0.625  0.6559  4.1101  0.6958
   95MOL   H17819166   1.247   7.221   0.603  0.3598  0.4605  0.3462
   95MOL   H17919167   1.136   7.333   0.540  0.0526  1.5293 -0.3321
   95MOL   H18019168   1.312   7.380   0.351 -0.1736 -0.3679  1.8335
   95MOL   H18119169   1.247   7.214   0.333 -0.6477 -0.9090  0.6066
   95MOL   O18219170   1.433   7.239   0.405  0.1094  0.5359 -0.0102
   95MOL   C18319171   1.480   7.222   0.272  0.2185 -0.1250  0.4991
   95MOL   C18419172   1.632   7.201   0.264  0.1079  0.4229  0.1795
   95MOL   C18519173   1.712   7.302   0.344  0.1265 -0.3094 -0.3209
   95MOL   H18619174   1.467   7.308   0.206 -1.1188 -1.0456 -0.4553
   95MOL   H18719175   1.442   7.127   0.234 -0.8341  0.4037  0.1990
   95MOL   H18819176   1.656   7.105   0.309 -0.1175  0.7324  0.9800
   95MOL   H18919177   1.663   7.192   0.160 -0.9213  1.4274 -0.2225
   95MOL   H19019178   1.708   7.302   0.452  0.0614  3.3875 -0.2630
   95MOL   H19119179   1.681   7.403   0.316  0.0805 -0.5266 -1.0725
   95MOL   O19219180   1.848   7.286   0.307  0.0599  0.2686  0.0768
   95MOL   C19319181   1.933   7.386   0.354  0.9312  0.2200 -0.8549
   95MOL   C19419182   2.003   7.342   0.484  0.1782  0.0661 -0.0190
   95MOL   C19519183   2.082   7.216   0.458  0.4764  0.1147 -0.0041
   95MOL   H19619184   1.891   7.485   0.373  1.6185  0.6041 -1.3248
   95MOL   H19719185   2.005   7.405   0.275  0.0216  1.4573 -1.3966
   95MOL   H19819186   2.061   7.428   0.518 -0.7624  1.0511 -0.8950
   95MOL   H19919187   1.924   7.340   0.559 -0.3483  3.5717 -0.4190
   95MOL   H20019188   2.125   7.178   0.550 -1.3397  1.1023  1.2784
   95MOL   H20119189   2.157   7.238   0.382  0.4392 -0.6154 -0.2492
   95MOL   H20219190   2.017   7.134   0.428 -1.6376  1.9867 -0.7729
   96MOL     O119191   1.389   1.191   2.975  0.2201  0.5377 -0.7560
   96MOL     C219192   1.387   1.230   2.842 -0.8001 -0.3326 -0.4950
   96MOL     C319193   1.517   1.316   2.829  0.4591  0.4251 -0.0733
   96MOL     C419194   1.542   1.342   2.681  0.1705 -0.0876  0.0129
   96MOL     H519195   1.299   1.290   2.816  0.4362  0.3315 -3.3233
   96MOL     H619196   1.398   1.138   2.785 -2.8345 -0.2662 -1.0385
   96MOL     H719197   1.492   1.409   2.881  0.1694  0.1379  0.3038
   96MOL     H819198   1.598   1.271   2.886  0.1174  0.0997  0.1572
   96MOL     H919199   1.623   1.415   2.678  0.5321 -0.4673  0.4383
   96MOL    H1019200   1.454   1.387   2.635 -0.0180  0.8177  1.2293
   96MOL    H1119201   1.321   1.127   2.989  0.8949  0.4101  2.2874
   96MOL    O1219202   1.584   1.221   2.626  0.1658 -0.1534  0.2973
   96MOL    C1319203   1.653   1.230   2.508  0.5544 -0.1014  0.1344
   96MOL    C1419204   1.668   1.089   2.458 -0.1707  0.5553 -0.3622
   96MOL    C1519205   1.745   1.089   2.330 -0.0859  0.9051  0.0190
   96MOL    H1619206   1.750   1.268   2.539  0.5711 -1.4316  1.7841
   96MOL    H1719207   1.610   1.309   2.446  0.2980  0.1564  0.6423
   96MOL    H1819208   1.721   1.033   2.536  0.0255  1.4785  0.1799
   96MOL    H1919209   1.571   1.044   2.440  0.3094  0.0873 -1.8843
   96MOL    H2019210   1.850   1.116   2.347 -0.6707  2.0136  2.0696
   96MOL    H2119211   1.700   1.150   2.252  2.0390  0.4300 -1.6460
   96MOL    O2219212   1.742   0.954   2.289 -0.1220  0.3723 -0.1521
   96MOL    C2319213   1.847   0.915   2.194  0.1757  0.1279 -0.1227
   96MOL    C2419214   1.829   0.768   2.163 -0.0605 -0.5626  0.2464
   96MOL    C2519215   1.862   0.681   2.292  0.3833 -0.3432  0.4145
   96MOL    H2619216   1.937   0.930   2.253 -0.6532  1.6949  0.7869
   96MOL    H2719217   1.836   0.985   2.111  0.6314 -1.5003 -1.5970
   96MOL    H2819218   1.731   0.743   2.122  0.0203 -2.1519  0.9819
   96MOL    H2919219   1.893   0.748   2.078 -2.8592 -1.0171 -1.8346
   96MOL    H3019220   1.813   0.718   2.382  1.2113 -2.1602  1.6347
   96MOL    H3119221   1.969   0.695   2.310  0.4692 -1.5549  0.8765
   96MOL    O3219222   1.819   0.552   2.267 -0.6507  0.4126  0.1873
   96MOL    C3319223   1.837   0.470   2.386 -0.3048  0.0916  0.5008
   96MOL    C3419224   1.820   0.323   2.340  0.5874 -0.1301  0.0104
   96MOL    C3519225   1.678   0.282   2.308 -0.5451  0.3654 -0.5524
   96MOL    H3619226   1.759   0.512   2.450 -1.9624 -2.5321  0.2700
   96MOL    H3719227   1.938   0.483   2.424  0.3576 -0.4944 -1.0237
   96MOL    H3819228   1.886   0.313   2.254  0.6440  0.7638 -0.0555
   96MOL    H3919229   1.858   0.253   2.415  0.0430  0.1297  0.5347
   96MOL    H4019230   1.638   0.330   2.218  1.2727  0.8436 -1.1354
   96MOL    H4119231   1.605   0.318   2.380 -0.3694  0.5861 -0.4822
   96MOL    O4219232   1.669   0.140   2.306  0.8795  0.5251 -0.2770
   96MOL    C4319233   1.550   0.085   2.246  0.0988  0.6438  0.1875
   96MOL    C4419234   1.519   7.735   2.307  0.0473  0.6510  0.0757
   96MOL    C4519235   1.386   7.670   2.253 -0.1810 -0.2367 -0.8921
   96MOL    H4619236   1.554   0.091   2.137 -2.0728 -0.8086  0.0011
   96MOL    H4719237   1.470   0.159   2.251  0.6596  1.2442  0.3906
   96MOL    H4819238   1.608   7.673   2.300  0.0234  0.2735  2.5746
   96MOL    H4919239   1.505   7.760   2.413 -0.2977  0.5305  0.0584
   96MOL    H5019240   1.327   7.751   2.210 -0.1235 -1.2475 -2.9473
   96MOL    H5119241   1.333   7.635   2.342  0.7300 -0.6419 -0.5071
   96MOL    O5219242   1.414   7.574   2.163  0.4476  0.1761  0.0998
   96MOL    C5319243   1.305   7.556   2.065 -0.3739 -0.1319  0.6030
   96MOL    C5419244   1.354   7.462   1.960 -0.3076 -0.5179  1.2472
   96MOL    C5519245   1.271   7.446   1.834  0.1365 -0.5964  0.1520
   96MOL    H5619246   1.278   7.653   2.022  1.3086 -0.4017 -1.1492
   96MOL    H5719247   1.217   7.520   2.117 -1.5757  0.6730 -0.8293
   96MOL    H5819248   1.451   7.485   1.915 -1.0442  1.6105  0.6994
   96MOL    H5919249   1.356   7.363   2.005 -0.6979 -0.6483  0.9816
   96MOL    H6019250   1.293   7.540   1.783  0.4259 -1.2298 -0.9055
   96MOL    H6119251   1.165   7.437   1.856 -0.0478  0.0941 -0.4116
   96MOL    O6219252   1.325   7.333   1.769  0.2460 -0.7826 -0.5429
   96MOL    C6319253   1.270   7.332   1.636  0.5722 -0.4172 -0.1293
   96MOL    C6419254   1.320   7.206   1.558  0.6220  0.7378  0.0717
   96MOL    C6519255   1.468   7.204   1.528 -0.0674 -0.0897  0.3300
   96MOL    H6619256   1.296   7.423   1.584  2.0974 -0.5950  0.3156
   96MOL    H6719257   1.161   7.331   1.635  0.5314  1.9475 -0.1430
   96MOL    H6819258   1.301   7.112   1.611  0.6899  1.4389  1.3779
   96MOL    H6919259   1.266   7.199   1.464  1.3532  1.0629 -0.3762
   96MOL    H7019260   1.527   7.196   1.620 -2.9450 -0.3417  2.1885
   96MOL    H7119261   1.490   7.296   1.476 -1.8145  0.3059  0.2770
   96MOL    O7219262   1.505   7.109   1.430 -0.3085  0.3951  0.1254
   96MOL    C7319263   1.645   7.101   1.413  0.2072  0.2076 -0.0209
   96MOL    C7419264   1.660   7.012   1.287  0.3861 -0.3931 -0.3046
   96MOL    C7519265   1.795   6.958   1.262 -0.2375  0.4395  0.3252
   96MOL    H7619266   1.701   7.073   1.503 -1.2266 -0.6832  0.6117
   96MOL    H7719267   1.674   7.203   1.390 -2.1512  0.9260  0.0778
   96MOL    H7819268   1.604   6.920   1.306 -0.0985 -0.4275 -1.8465
   96MOL    H7919269   1.620   7.051   1.194  0.9135 -1.2779 -0.9113
   96MOL    H8019270   1.810   6.902   1.354  0.2653 -1.1533 -0.7164
   96MOL    H8119271   1.871   7.035   1.252  1.0347 -1.0028 -1.3048
   96MOL    O8219272   1.806   6.858   1.164  0.1041 -0.2770 -0.6303
   96MOL    C8319273   1.941   6.824   1.138  0.3275  0.0796 -0.0296
   96MOL    C8419274   1.951   6.700   1.046  0.6483  0.2176 -0.1338
   96MOL    C8519275   2.095   6.656   1.016 -0.6738 -0.1598 -0.0663
   96MOL    H8619276   1.988   6.797   1.233  1.0402  0.4953 -0.2579
   96MOL    H8719277   2.000   6.905   1.096  0.1474  0.0905 -0.2606
   96MOL    H8819278   1.885   6.622   1.084  0.7491  0.5231  0.6831
   96MOL    H8919279   1.904   6.731   0.953  0.5101 -0.8366 -0.4168
   96MOL    H9019280   2.120   6.613   1.113 -0.3264  2.4045  0.9965
   96MOL    H9119281   2.169   6.735   1.008  0.5340 -1.1755  0.7739
   96MOL    O9219282   2.096   6.569   0.904  0.0260 -0.5032  0.4120
   96MOL    C9319283   2.226   6.543   0.853  0.1509 -0.1559 -0.2609
   96MOL    C9419284   2.238   6.623   0.730 -0.1432  0.4076  0.2814
   96MOL    C9519285   2.323   6.564   0.620  0.1979  0.3938 -0.0238
   96MOL    H9619286   2.229   6.436   0.831 -0.8121 -0.3491  0.5335
   96MOL    H9719287   2.311   6.575   0.914 -0.1283 -0.5540  0.3457
   96MOL    H9819288   2.139   6.630   0.684  1.1836 -0.5895 -2.9012
   96MOL    H9919289   2.259   6.729   0.746 -0.0739  0.0177  2.9961
   96MOL   H10019290   2.302   6.609   0.522  1.6376 -3.1063 -1.9987
   96MOL   H10119291   2.287   6.462   0.625  1.8388 -0.0514  3.3481
   96MOL   O10219292   2.468   6.575   0.640  0.9301  0.1738 -0.0950
   96MOL   C10319293   2.534   6.483   0.555  0.0322  0.3304 -0.2708
   96MOL   C10419294   2.686   6.479   0.575  0.3965  0.0349  0.4130
   96MOL   C10519295   2.756   6.372   0.494 -0.0251 -0.1812 -0.5374
   96MOL   H10619296   2.510   6.492   0.449 -3.3307  1.1045  0.5118
   96MOL   H10719297   2.492   6.386   0.579  2.0575 -0.6489 -0.5961
   96MOL   H10819298   2.733   6.574   0.546 -0.4620  0.0616 -0.9588
   96MOL   H10919299   2.721   6.471   0.677 -0.1555 -0.3107  0.5772
   96MOL   H11019300   2.747   6.270   0.532  0.8046  0.4661  1.5088
   96MOL   H11119301   2.864   6.388   0.501 -0.4734  1.9116  2.8250
   96MOL   O11219302   2.721   6.396   0.356 -0.2547  0.7133 -0.2889
   96MOL   C11319303   2.792   6.314   0.266  0.4535 -0.0681 -0.0011
   96MOL   C11419304   2.741   6.354   0.122 -0.1521 -0.4840 -0.0983
   96MOL   C11519305   2.603   6.295   0.087  0.5350  0.0692  0.1738
   96MOL   H11619306   2.779   6.207   0.285 -1.0043  0.1833  0.4397
   96MOL   H11719307   2.899   6.330   0.282  0.1366  2.0009  0.1865
   96MOL   H11819308   2.745   6.462   0.105 -2.5480 -0.5015 -0.9222
   96MOL   H11919309   2.808   6.319   0.044 -0.5347  0.6419 -0.9478
   96MOL   H12019310   2.539   6.325   0.171 -1.9387 -1.2780 -1.1600
   96MOL   H12119311   2.604   6.186   0.085  0.0921  0.0695 -0.1696
   96MOL   O12219312   2.553   6.351   7.753  0.3775 -0.1706  0.0177
   96MOL   C12319313   2.628   6.294   7.649 -0.3592  0.2709 -0.0827
   96MOL   C12419314   2.555   6.302   7.520 -0.2991  0.2460  0.6177
   96MOL   C12519315   2.624   6.227   7.413  0.4482 -0.0195 -0.5998
   96MOL   H12619316   2.640   6.187   7.666 -0.9353  0.1045 -0.6981
   96MOL   H12719317   2.726   6.342   7.645  0.2454 -1.0208 -1.0883
   96MOL   H12819318   2.468   6.239   7.538  0.3276 -0.4234  1.3666
   96MOL   H12919319   2.530   6.405   7.494 -0.2388 -0.1572 -1.1042
   96MOL   H13019320   2.615   6.120   7.433 -0.8539 -0.3055 -2.5647
   96MOL   H13119321   2.731   6.248   7.414  0.1809  1.3424 -0.4947
   96MOL   O13219322   2.559   6.258   7.292  0.1633  0.1553 -0.0757
   96MOL   C13319323   2.646   6.248   7.179 -0.4618 -0.1596 -0.7934
   96MOL   C13419324   2.557   6.235   7.057  0.5682 -0.6038  0.2385
   96MOL   C13519325   2.628   6.241   6.922  0.4301  0.1923  0.0912
   96MOL   H13619326   2.718   6.167   7.184  3.1366  2.9240  0.3874
   96MOL   H13719327   2.703   6.341   7.170 -0.6117  0.0749  0.4358
   96MOL   H13819328   2.498   6.143   7.056 -0.6394  0.1193  2.0834
   96MOL   H13919329   2.478   6.309   7.059  0.3670 -0.8242  0.4501
   96MOL   H14019330   2.704   6.162   6.924  1.3521  1.1009  1.9478
   96MOL   H14119331   2.683   6.335   6.917  0.7045 -0.0056 -0.8398
   96MOL   O14219332   2.526   6.216   6.827 -0.3349 -0.6357  0.3323
   96MOL   C14319333   2.585   6.237   6.690 -0.0064 -0.3013 -0.5257
   96MOL   C14419334   2.481   6.260   6.575  0.0798  0.2524 -0.1796
   96MOL   C14519335   2.531   6.341   6.453  0.2608  0.7280  0.7174
   96MOL   H14619336   2.646   6.154   6.655  2.9157  1.9357 -0.9925
   96MOL   H14719337   2.648   6.326   6.693  1.1361 -1.0431 -1.7799
   96MOL   H14819338   2.458   6.159   6.541 -1.1086  0.9403 -1.4578
   96MOL   H14919339   2.392   6.299   6.624 -1.4303 -1.5836 -1.3899
   96MOL   H15019340   2.617   6.293   6.407 -0.1775 -1.9278  2.5286
   96MOL   H15119341   2.561   6.442   6.480 -0.3026  0.8580  0.8616
   96MOL   O15219342   2.435   6.342   6.348  0.0435  0.5608 -0.2632
   96MOL   C15319343   2.327   6.434   6.374  0.4230 -0.6041 -0.0411
   96MOL   C15419344   2.367   6.564   6.304 -0.4585  0.5116  0.6935
   96MOL   C15519345   2.329   6.694   6.382 -0.0777  0.1412 -0.2901
   96MOL   H15619346   2.313   6.442   6.482 -2.6910  1.7880 -0.5414
   96MOL   H15719347   2.234   6.409   6.324 -0.7285  0.6104  1.4443
   96MOL   H15819348   2.474   6.579   6.290 -0.5322  0.7275  0.3560
   96MOL   H15919349   2.324   6.568   6.204  1.1652  0.8304 -0.0010
   96MOL   H16019350   2.223   6.697   6.404  0.1250 -2.1749  1.1697
   96MOL   H16119351   2.352   6.783   6.322 -0.4895 -0.4331 -1.3131
   96MOL   O16219352   2.408   6.699   6.501  0.3970 -0.0142  0.1039
   96MOL   C16319353   2.366   6.795   6.589 -0.5335 -0.8669 -0.4753
   96MOL   C16419354   2.399   6.762   6.731  0.5999  0.1562  0.1059
   96MOL   C16519355   2.342   6.628   6.769  0.3157 -0.0942 -0.6804
   96MOL   H16619356   2.257   6.795   6.582 -0.5387 -1.9190 -0.3445
   96MOL   H16719357   2.403   6.896   6.567  0.5468 -0.8742  1.2079
   96MOL   H16819358   2.508   6.751   6.739  0.5140 -0.8942 -0.1233
   96MOL   H16919359   2.366   6.846   6.792  1.6604  0.9637 -0.4052
   96MOL   H17019360   2.382   6.548   6.707 -2.8856 -2.4826  0.1767
   96MOL   H17119361   2.233   6.632   6.772  0.0948 -3.2389 -2.1979
   96MOL   O17219362   2.385   6.626   6.907 -0.0157  1.1186 -0.7200
   96MOL   C17319363   2.325   6.530   6.989 -0.5938 -0.9993 -0.0397
   96MOL   C17419364   2.376   6.555   7.128  0.3297  0.0255  0.1812
   96MOL   C17519365   2.302   6.482   7.232 -0.1155 -0.1333 -0.4568
   96MOL   H17619366   2.344   6.430   6.950  2.2552 -0.7515  0.5829
   96MOL   H17719367   2.218   6.550   6.983 -0.1202  2.2267  1.2194
   96MOL   H17819368   2.484   6.550   7.126  0.3347  0.4304 -2.8746
   96MOL   H17919369   2.359   6.661   7.144  0.1308 -0.0658  0.5988
   96MOL   H18019370   2.355   6.398   7.276  1.7659  2.0988  1.6337
   96MOL   H18119371   2.225   6.427   7.178 -0.4135 -0.4193  0.2609
   96MOL   O18219372   2.251   6.564   7.333  0.4832 -0.1763 -0.0506
   96MOL   C18319373   2.179   6.486   7.428 -0.6810 -0.1292 -0.4777
   96MOL   C18419374   2.094   6.583   7.514 -0.1587  0.4123 -0.2054
   96MOL   C18519375   2.173   6.682   7.593  0.4192 -0.0303  0.9060
   96MOL   H18619376   2.234   6.421   7.496 -1.0221 -0.8004 -0.8395
   96MOL   H18719377   2.108   6.424   7.374 -0.2300  0.6595 -1.9987
   96MOL   H18819378   2.030   6.643   7.449  0.2482  0.5887 -0.4404
   96MOL   H18919379   2.030   6.524   7.580  0.1571  0.3649  0.0588
   96MOL   H19019380   2.246   6.732   7.530 -0.9285  1.3281  0.3991
   96MOL   H19119381   2.226   6.636   7.677  0.0835  1.1813  1.7948
   96MOL   O19219382   2.077   6.785   7.631 -0.5326  0.7644  0.1638
   96MOL   C19319383   2.133   6.875   7.722  0.6557  0.0300 -0.8389
   96MOL   C19419384   2.030   6.979   7.766 -0.1656 -0.0160 -0.3158
   96MOL   C19519385   2.003   7.078   7.661 -0.2913  0.2177  0.2123
   96MOL   H19619386   2.213   6.921   7.664 -1.4331  1.2252 -2.8297
   96MOL   H19719387   2.179   6.821   0.017  0.9334  0.1596 -0.9066
   96MOL   H19819388   1.939   6.926   0.004  0.0365 -0.1676  0.0858
   96MOL   H19919389   2.060   7.023   0.072  1.2964 -0.2730 -0.6409
   96MOL   H20019390   2.084   7.150   7.645 -1.4053  0.9550 -2.3908
   96MOL   H20119391   1.925   7.148   7.691 -1.5254 -0.0869 -2.2004
   96MOL   H20219392   1.976   7.028   7.569  0.9669 -0.9209  0.4502
   97MOL     O119393   5.029   6.145   3.957  0.5136  0.0211 -0.2658
   97MOL     C219394   4.944   6.069   3.870 -0.1593  0.4761 -0.0194
   97MOL     C319395   5.007   5.945   3.813  0.3641 -0.0916  1.3143
   97MOL     C419396   4.931   5.893   3.685  0.4131 -0.6422  0.3957
   97MOL     H519397   4.914   6.142   3.795  2.4551  0.6848 -0.9431
   97MOL     H619398   4.860   6.043   3.934  0.1753  0.4965  0.4338
   97MOL     H719399   5.113   5.956   3.793  0.0654 -0.4672 -0.5288
   97MOL     H819400   4.997   5.874   3.895 -0.5807  2.1370  3.2011
   97MOL     H919401   4.932   5.981   3.620  2.2668 -1.7623 -1.1470
   97MOL    H1019402   4.831   5.858   3.710  0.1530  0.5432  1.0777
   97MOL    H1119403   5.025   6.096   4.038  0.5930  0.4604  0.0014
   97MOL    O1219404   4.985   5.779   3.629 -0.4660  0.4723  0.4738
   97MOL    C1319405   4.919   5.719   3.529 -0.2935 -0.1886 -0.1055
   97MOL    C1419406   4.964   5.575   3.550 -0.1768 -0.2478  0.9369
   97MOL    C1519407   5.112   5.556   3.510 -0.0042  0.0809  0.2764
   97MOL    H1619408   4.962   5.755   3.436 -1.4699 -1.6116 -1.2374
   97MOL    H1719409   4.810   5.730   3.528 -0.2287  0.8002  2.1699
   97MOL    H1819410   4.948   5.549   3.655 -2.3810 -2.0467  0.2053
   97MOL    H1919411   4.897   5.508   3.495 -0.5620  1.1293 -0.2958
   97MOL    H2019412   5.186   5.601   3.577  1.9807 -1.1640 -1.0347
   97MOL    H2119413   5.126   5.594   3.409  1.3387  0.0907  0.4620
   97MOL    O2219414   5.146   5.416   3.518 -0.2729 -0.0077  0.2011
   97MOL    C2319415   5.261   5.381   3.441  0.2798 -0.7762 -0.2331
   97MOL    C2419416   5.313   5.236   3.468  0.4432 -0.9964 -0.5954
   97MOL    C2519417   5.428   5.221   3.562 -0.2118  0.1544  0.7657
   97MOL    H2619418   5.340   5.454   3.459  0.3302 -1.1957  1.2774
   97MOL    H2719419   5.234   5.381   3.335 -1.4318 -0.2499  0.1816
   97MOL    H2819420   5.248   5.151   3.489 -0.1761 -0.2222  0.7591
   97MOL    H2919421   5.353   5.200   3.374 -0.9434 -1.0004 -1.1931
   97MOL    H3019422   5.506   5.276   3.510 -2.6625  2.7938 -0.2523
   97MOL    H3119423   5.460   5.117   3.574 -1.7205 -0.6897 -2.1093
   97MOL    O3219424   5.396   5.277   3.686  0.0171  0.5150  0.3214
   97MOL    C3319425   5.506   5.245   3.771  0.8157  0.0503 -0.2277
   97MOL    C3419426   5.492   5.322   3.910  0.3654  0.3863  0.3448
   97MOL    C3519427   5.614   5.281   4.003 -0.3227 -0.4611  0.4214
   97MOL    H3619428   5.606   5.272   3.738 -0.2955 -0.5155 -4.3466
   97MOL    H3719429   5.496   5.138   3.791 -0.9358  0.2591  0.0895
   97MOL    H3819430   5.490   5.428   3.886  0.1577  0.3096  0.0083
   97MOL    H3919431   5.393   5.300   3.947 -1.0509  1.0743 -2.8525
   97MOL    H4019432   5.621   5.172   3.999  0.2940 -0.3981 -0.4144
   97MOL    H4119433   5.593   5.321   4.103 -0.0424 -0.1355  0.3524
   97MOL    O4219434   5.730   5.335   3.941 -0.4837 -0.3944 -0.1412
   97MOL    C4319435   5.858   5.309   3.999  0.6809 -0.0147  0.4066
   97MOL    C4419436   5.899   5.164   4.001 -0.2628 -0.0495  0.5256
   97MOL    C4519437   5.984   5.108   4.117 -0.2764 -0.0106 -0.0736
   97MOL    H4619438   5.861   5.354   4.098  0.8792  1.5193 -0.2804
   97MOL    H4719439   5.931   5.356   3.933 -0.7644  0.7602 -0.6930
   97MOL    H4819440   5.809   5.105   3.989  0.5835 -1.4939  1.1649
   97MOL    H4919441   5.966   5.163   3.915 -2.5915  0.3808 -1.3342
   97MOL    H5019442   5.927   5.127   4.208  1.4362 -1.2558  1.3032
   97MOL    H5119443   6.074   5.169   4.126  0.2277 -0.7717  0.0919
   97MOL    O5219444   6.005   4.970   4.096 -0.5390 -0.3782  0.0166
   97MOL    C5319445   6.088   4.914   4.196 -0.6126 -0.9198  0.2949
   97MOL    C5419446   6.111   4.776   4.145 -0.0113  0.3183 -0.2460
   97MOL    C5519447   6.194   4.687   4.235  0.5635 -0.0748  0.6907
   97MOL    H5619448   6.030   4.914   4.288 -0.8029 -0.1634  0.1754
   97MOL    H5719449   6.183   4.965   4.216 -1.1701 -0.1536  0.9897
   97MOL    H5819450   6.014   4.730   4.127  0.0285  0.4942 -0.9481
   97MOL    H5919451   6.163   4.779   4.049  1.3527  0.1083  0.4843
   97MOL    H6019452   6.137   4.688   4.328  4.2344 -0.7600  3.0241
   97MOL    H6119453   6.288   4.743   4.236 -0.4700  1.7577 -0.6061
   97MOL    O6219454   6.215   4.555   4.182  0.2684 -0.2133 -0.4337
   97MOL    C6319455   6.291   4.482   4.274  0.0128  0.2361  0.0518
   97MOL    C6419456   6.296   4.333   4.243 -1.1081  0.9163 -0.1968
   97MOL    C6519457   6.420   4.263   4.292  0.0041 -0.6172 -0.0605
   97MOL    H6619458   6.246   4.488   4.373 -0.6071  1.0766 -0.2735
   97MOL    H6719459   6.393   4.512   4.300  0.9025 -2.1046 -0.6322
   97MOL    H6819460   6.207   4.275   4.268  0.0846 -2.0582 -2.5106
   97MOL    H6919461   6.299   4.323   4.134 -0.3440  0.9540 -0.1828
   97MOL    H7019462   6.393   4.159   4.274 -2.4348 -0.0457  0.1107
   97MOL    H7119463   6.432   4.291   4.397 -0.5338  1.8247 -0.6119
   97MOL    O7219464   6.540   4.294   4.214 -0.0151 -0.1154 -0.2252
   97MOL    C7319465   6.645   4.217   4.262  0.2522 -0.3716  0.5542
   97MOL    C7419466   6.776   4.259   4.187 -0.8544 -0.1474  0.4882
   97MOL    C7519467   6.908   4.212   4.256 -0.0998 -0.8340  0.4523
   97MOL    H7619468   6.631   4.110   4.243  0.8154 -0.9120  3.0609
   97MOL    H7719469   6.656   4.239   4.368  0.3337  0.3171  0.4061
   97MOL    H7819470   6.776   4.225   4.083  3.6557 -1.1611  0.7155
   97MOL    H7919471   6.790   4.367   4.183 -0.6522 -0.1649  0.7032
   97MOL    H8019472   6.901   4.112   4.298 -1.1226  0.0443  2.4277
   97MOL    H8119473   6.930   4.283   4.335 -1.2821 -0.6602  0.6270
   97MOL    O8219474   7.010   4.220   4.156 -0.0246 -0.4521  0.4136
   97MOL    C8319475   7.143   4.197   4.206 -0.8537  0.9096  0.2673
   97MOL    C8419476   7.251   4.265   4.118  0.0903  0.0690  0.1387
   97MOL    C8519477   7.242   4.413   4.115  0.0653  0.0022 -0.7041
   97MOL    H8619478   7.174   4.092   4.205 -1.6482  0.6685 -1.0299
   97MOL    H8719479   7.162   4.225   4.309  1.4838  2.2069 -0.4935
   97MOL    H8819480   7.345   4.246   4.168 -1.2078 -2.4850  1.7235
   97MOL    H8919481   7.254   4.226   4.016  2.2086 -2.8625  1.2757
   97MOL    H9019482   7.222   4.439   4.219  0.2789  1.5870 -1.0439
   97MOL    H9119483   7.160   4.437   4.047 -1.4096 -2.1491  0.2811
   97MOL    O9219484   7.355   4.483   4.073  0.1636 -0.9852 -0.3265
   97MOL    C9319485   7.338   4.625   4.056 -0.9595 -0.1474 -0.6998
   97MOL    C9419486   7.465   4.709   4.065 -0.3658 -0.3233 -0.1067
   97MOL    C9519487   7.524   4.739   4.203  0.8460  0.3869 -0.0592
   97MOL    H9619488   7.265   4.663   4.127  0.5787 -1.7646  1.8093
   97MOL    H9719489   7.294   4.633   3.956  2.3005 -0.5500 -2.2292
   97MOL    H9819490   7.543   4.659   4.007 -0.2755 -0.3673  0.0542
   97MOL    H9919491   7.458   4.805   4.013 -1.6055 -0.5941 -0.4468
   97MOL   H10019492   7.527   4.645   4.258  0.0868 -0.5274 -1.5751
   97MOL   H10119493   7.460   4.816   4.246  1.1681  1.1412 -0.9083
   97MOL   O10219494   7.653   4.791   4.190  0.4149  0.0956  0.0506
   97MOL   C10319495   7.705   4.846   4.312  0.4567  0.3306  0.2618
   97MOL   C10419496   0.065   4.864   4.294  0.3229 -0.2059  1.1149
   97MOL   C10519497   0.124   4.931   4.171  0.3281 -0.1685 -0.0047
   97MOL   H10619498   7.686   4.780   4.397  1.1495 -0.7116 -0.3886
   97MOL   H10719499   7.654   4.940   4.336 -0.5559 -0.2615  0.4346
   97MOL   H10819500   0.103   4.916   4.381 -2.3249 -0.6425  2.5660
   97MOL   H10919501   0.120   4.769   4.289 -1.0339 -1.0463  2.0762
   97MOL   H11019502   0.101   5.037   4.160 -1.1081 -0.4314  0.3402
   97MOL   H11119503   0.078   4.888   4.081 -0.4810  1.0810 -0.2076
   97MOL   O11219504   0.264   4.912   4.152 -0.5088  0.1293  0.2012
   97MOL   C11319505   0.333   5.030   4.195 -0.0858 -0.5218 -0.4790
   97MOL   C11419506   0.482   5.023   4.162 -0.6149  0.3117  0.2193
   97MOL   C11519507   0.571   5.136   4.203  0.0982  0.8191  0.3546
   97MOL   H11619508   0.313   5.042   4.302 -1.2176 -0.3908 -0.7081
   97MOL   H11719509   0.297   5.124   4.152  0.7860  1.2165  2.4013
   97MOL   H11819510   0.520   4.927   4.196  3.4899  2.0293  0.7219
   97MOL   H11919511   0.493   5.022   4.053 -0.3550 -0.2530  0.2512
   97MOL   H12019512   0.554   5.159   4.309  1.5227 -1.5067  1.1257
   97MOL   H12119513   0.566   5.234   4.157  2.0193  0.8432  0.1490
   97MOL   O12219514   0.701   5.081   4.195  0.0666 -0.3425 -0.7498
   97MOL   C12319515   0.807   5.166   4.228  0.3959 -0.1014  0.1536
   97MOL   C12419516   0.895   5.172   4.103  0.5486  0.0492  0.0522
   97MOL   C12519517   0.989   5.289   4.110 -0.1088 -0.0759 -0.6311
   97MOL   H12619518   0.859   5.104   4.301  0.1120  0.9537  1.2823
   97MOL   H12719519   0.771   5.264   4.261 -0.4799 -0.2305 -0.3848
   97MOL   H12819520   0.951   5.079   4.094 -1.7849 -1.5341  1.3688
   97MOL   H12919521   0.839   5.177   4.010 -0.5696  2.9256  0.8367
   97MOL   H13019522   1.075   5.269   4.173 -0.8184 -0.6460  0.1707
   97MOL   H13119523   0.937   5.383   4.131 -2.5426 -1.1361 -1.7168
   97MOL   O13219524   1.046   5.295   3.987 -0.2511  0.1461 -0.1568
   97MOL   C13319525   1.116   5.416   3.968 -0.5476 -0.1260 -1.0187
   97MOL   C13419526   1.185   5.403   3.830  0.4059 -0.3738 -0.1298
   97MOL   C13519527   1.242   5.534   3.783 -0.2073 -0.1462  0.1225
   97MOL   H13619528   1.192   5.418   4.046 -0.3622  0.7148 -1.2187
   97MOL   H13719529   1.057   5.503   3.994  0.6772  0.4515 -0.1442
   97MOL   H13819530   1.265   5.330   3.825 -1.0913 -1.8951 -3.4197
   97MOL   H13919531   1.112   5.369   3.756  1.7880 -1.7650 -0.8870
   97MOL   H14019532   1.168   5.612   3.806 -1.9362 -2.0403  1.1324
   97MOL   H14119533   1.261   5.541   3.676  2.7250 -1.7070  0.5061
   97MOL   O14219534   1.358   5.573   3.865  0.3369 -0.3264 -0.2197
   97MOL   C14319535   1.401   5.701   3.836  0.0473 -0.0078 -0.4144
   97MOL   C14419536   1.507   5.731   3.946 -0.3815 -0.1241 -0.7012
   97MOL   C14519537   1.542   5.878   3.946 -0.5769  0.1122  1.1759
   97MOL   H14619538   1.317   5.770   3.843 -0.0311 -0.3072  1.7925
   97MOL   H14719539   1.438   5.730   3.738  0.4272  1.6148  0.1958
   97MOL   H14819540   1.474   5.713   4.049  2.6835 -0.3476  0.3006
   97MOL   H14919541   1.593   5.663   3.945  0.0047  0.2690  1.7603
   97MOL   H15019542   1.444   5.922   3.968 -1.1992 -0.4649 -0.3429
   97MOL   H15119543   1.561   5.912   3.844 -2.2626 -2.4350 -0.0198
   97MOL   O15219544   1.621   5.929   4.049 -0.2030  0.2904  0.2305
   97MOL   C15319545   1.654   6.070   4.047  0.7963  0.2820  0.0261
   97MOL   C15419546   1.752   6.101   4.162  0.6914  0.7429  0.3858
   97MOL   C15519547   1.742   6.248   4.215  0.4744 -0.3009 -0.3714
   97MOL   H15619548   1.559   6.121   4.064  0.4225  0.2819 -1.9537
   97MOL   H15719549   1.682   6.108   3.950  1.8648 -1.1266 -0.2334
   97MOL   H15819550   1.723   6.031   4.240 -0.6354  0.8528 -0.0074
   97MOL   H15919551   1.856   6.082   4.133 -0.0823 -0.3904 -1.7820
   97MOL   H16019552   1.802   6.240   4.306 -0.3398  0.0855  0.2055
   97MOL   H16119553   1.642   6.283   4.241  0.2042 -0.9268 -0.5691
   97MOL   O16219554   1.808   6.337   4.120  0.2751  0.7317 -0.1140
   97MOL   C16319555   1.779   6.470   4.156  0.2916 -0.2183 -0.0126
   97MOL   C16419556   1.868   6.561   4.073 -0.0770 -0.1450  0.6484
   97MOL   C16519557   1.818   6.703   4.058 -0.4366  0.3939 -0.9971
   97MOL   H16619558   1.801   6.484   4.262 -1.0201 -0.7388  0.3455
   97MOL   H16719559   1.677   6.493   4.127  0.9446  0.1653 -2.1054
   97MOL   H16819560   1.969   6.563   4.115 -0.1187 -3.1097  0.9876
   97MOL   H16919561   1.878   6.520   3.973  0.6931  1.6937 -0.0504
   97MOL   H17019562   1.806   6.740   4.160  0.0424  1.3062 -1.2672
   97MOL   H17119563   1.717   6.709   4.019 -0.6465 -0.7118 -0.6455
   97MOL   O17219564   1.909   6.782   3.988  0.5086  0.2570  0.2415
   97MOL   C17319565   1.895   6.920   4.000  0.3010 -1.0379  0.0215
   97MOL   C17419566   2.004   7.011   3.932  0.0995 -0.7452 -0.4091
   97MOL   C17519567   1.990   6.989   3.779 -0.1717 -0.3332  0.4139
   97MOL   H17619568   1.906   6.948   4.105  0.9947 -2.7295  0.4133
   97MOL   H17719569   1.795   6.948   3.967  1.1145  0.7614 -1.0140
   97MOL   H17819570   1.976   7.115   3.947 -1.2298 -1.1675  0.1442
   97MOL   H17919571   2.107   6.996   3.963 -0.1122  0.9696  1.2127
   97MOL   H18019572   2.011   6.883   3.770  1.0796 -0.2734  2.2208
   97MOL   H18119573   2.074   7.040   3.730 -0.0957 -0.8934 -0.0358
   97MOL   O18219574   1.867   7.034   3.723 -0.7089 -0.1252  0.2539
   97MOL   C18319575   1.844   6.999   3.594  0.2631  0.0047  0.3916
   97MOL   C18419576   1.705   7.031   3.556 -0.0451 -0.2322 -0.0780
   97MOL   C18519577   1.607   6.946   3.637 -0.3144 -0.1275  0.5304
   97MOL   H18619578   1.860   6.891   3.587 -1.5932 -0.4612  2.6623
   97MOL   H18719579   1.916   7.052   3.532  1.9597 -1.1567  1.3168
   97MOL   H18819580   1.675   7.133   3.577  0.8047 -0.2924  1.4653
   97MOL   H18919581   1.685   7.013   3.450  1.9797 -0.8614 -0.3851
   97MOL   H19019582   1.617   6.974   3.742  0.3651 -2.3475  1.0906
   97MOL   H19119583   1.620   6.837   3.636 -1.5732 -0.2907 -1.6410
   97MOL   O19219584   1.481   6.963   3.583 -0.2594 -0.0788  0.1350
   97MOL   C19319585   1.384   6.958   3.685 -0.8039  0.7288 -0.6643
   97MOL   C19419586   1.251   6.998   3.617 -0.2836 -0.3439  0.4550
   97MOL   C19519587   1.204   6.876   3.534 -0.0342  0.5961 -0.9100
   97MOL   H19619588   1.399   7.036   3.759 -1.0998 -0.4271  0.6400
   97MOL   H19719589   1.367   6.863   3.736  3.5374  0.9642  1.4805
   97MOL   H19819590   1.187   7.024   3.701 -0.1479 -0.5168  0.6140
   97MOL   H19919591   1.249   7.084   3.550  0.9614 -1.0110 -0.4657
   97MOL   H20019592   1.251   6.845   3.440  0.0549 -1.3797 -0.2347
   97MOL   H20119593   1.098   6.881   3.509  0.1264  0.3731 -1.6621
   97MOL   H20219594   1.219   6.781   3.586 -1.6159  0.9787  0.2642
   98MOL     O119595   2.233   0.929   2.249  0.8076 -0.5758  0.2910
   98MOL     C219596   2.184   1.008   2.362 -0.2915 -1.1855  0.1107
   98MOL     C319597   2.161   0.922   2.482  0.3340 -0.2815 -0.2708
   98MOL     C419598   2.149   1.006   2.612 -0.2267  0.3717  0.1975
   98MOL     H519599   2.094   1.064   2.335  0.3492  0.3350  1.0985
   98MOL     H619600   2.252   1.091   2.377 -2.5622  0.9233 -0.7994
   98MOL     H719601   2.069   0.867   2.466  0.0123 -0.0000  0.5741
   98MOL     H819602   2.238   0.845   2.483  0.3629 -0.2367  1.1093
   98MOL     H919603   2.232   1.077   2.612  0.6294 -0.6287  0.2026
   98MOL    H1019604   2.162   0.936   2.695  0.2696 -0.6683 -0.7497
   98MOL    H1119605   2.267   0.979   2.176 -1.4724  0.6265  0.0049
   98MOL    O1219606   2.026   1.074   2.620 -0.1500 -0.0358 -0.7253
   98MOL    C1319607   2.027   1.186   2.704  0.0646  0.3595 -0.3654
   98MOL    C1419608   2.072   1.155   2.851  0.2112 -0.1569  0.3710
   98MOL    C1519609   1.982   1.045   2.914  0.2652 -0.8610 -0.2095
   98MOL    H1619610   1.930   1.235   2.699 -0.1282 -0.1473 -1.8255
   98MOL    H1719611   2.084   1.267   2.659  1.8096 -0.0534  1.0273
   98MOL    H1819612   2.178   1.126   2.847  0.6039  1.3583 -0.7837
   98MOL    H1919613   2.072   1.249   2.906 -0.9697  1.1821 -1.8207
   98MOL    H2019614   1.970   0.954   2.855  0.3179 -0.2579 -1.1657
   98MOL    H2119615   1.884   1.093   2.911  0.1795 -1.0418 -0.3047
   98MOL    O2219616   2.022   1.006   3.042 -0.4232  0.0766  0.2569
   98MOL    C2319617   1.915   0.942   3.109  0.1010  0.0690  0.3941
   98MOL    C2419618   1.977   0.896   3.243  0.6474  0.8481  0.0209
   98MOL    C2519619   1.888   0.796   3.317  1.4376 -0.0546  0.1740
   98MOL    H2619620   1.874   0.861   3.049  2.0634 -2.2355  2.0654
   98MOL    H2719621   1.835   1.014   3.131 -0.9613 -0.5673 -1.2985
   98MOL    H2819622   2.058   0.830   3.212 -0.1656 -0.9096  1.5739
   98MOL    H2919623   1.999   0.977   3.312  0.4511 -0.3212  1.4912
   98MOL    H3019624   1.861   0.717   3.248  1.3031  0.0792  0.0733
   98MOL    H3119625   1.792   0.840   3.344  0.4113 -2.0817 -0.0555
   98MOL    O3219626   1.954   0.735   3.419 -0.5150 -0.1159 -0.8270
   98MOL    C3319627   1.861   0.673   3.507  0.3799 -0.1953 -0.4039
   98MOL    C3419628   1.931   0.582   3.607  0.4602  0.0336  0.0577
   98MOL    C3519629   1.827   0.491   3.682 -0.0851 -0.1164 -0.1290
   98MOL    H3619630   1.798   0.608   3.446  0.3599 -0.9007  0.3635
   98MOL    H3719631   1.802   0.748   3.560 -0.6099 -2.7049  2.2219
   98MOL    H3819632   1.992   0.514   3.547 -0.7532 -1.9675  1.0107
   98MOL    H3919633   1.996   0.645   3.668 -1.7202  2.0467  0.3836
   98MOL    H4019634   1.887   0.456   3.766 -0.1487  1.3955  0.5420
   98MOL    H4119635   1.788   0.413   3.617 -0.5018 -0.5614  0.6497
   98MOL    O4219636   1.716   0.566   3.735 -0.3683 -0.2801 -0.2601
   98MOL    C4319637   1.639   0.495   3.820  0.2051  0.6242  0.0566
   98MOL    C4419638   1.513   0.567   3.867  0.1034 -0.5500 -0.2302
   98MOL    C4519639   1.420   0.483   3.953 -0.1047 -0.4602  0.1084
   98MOL    H4619640   1.700   0.456   3.902 -0.1381  1.6102  0.7899
   98MOL    H4719641   1.600   0.404   3.775 -1.4499  0.4425  1.7888
   98MOL    H4819642   1.533   0.664   3.912  2.1613 -1.1441  0.1863
   98MOL    H4919643   1.455   0.583   3.776  0.1230 -1.5367 -0.4223
   98MOL    H5019644   1.474   0.437   4.035 -0.1395  2.7797  2.0159
   98MOL    H5119645   1.379   0.398   3.897 -0.2228  1.0695 -2.1868
   98MOL    O5219646   1.309   0.557   4.018  0.2942  0.3790  0.0623
   98MOL    C5319647   1.228   0.475   4.088  1.6116  0.0860 -1.1133
   98MOL    C5419648   1.142   0.573   4.164  0.3686  0.6910 -0.0922
   98MOL    C5519649   1.023   0.504   4.233  0.0449  0.1736 -0.4392
   98MOL    H5619650   1.271   0.415   4.169  0.2568  1.5738  0.7457
   98MOL    H5719651   1.171   0.408   4.024 -0.7832  0.6145  0.4046
   98MOL    H5819652   1.193   0.641   4.233 -1.6002  0.9164  1.1772
   98MOL    H5919653   1.091   0.640   4.095 -2.2914 -1.9487 -0.8152
   98MOL    H6019654   1.058   0.418   4.291 -1.5736 -2.1684 -2.8038
   98MOL    H6119655   0.954   0.459   4.162 -0.3185 -1.5064  0.9263
   98MOL    O6219656   0.965   0.588   4.329 -0.2026 -0.5693 -0.0522
   98MOL    C6319657   0.876   0.517   4.410 -0.0714  0.3333 -0.2958
   98MOL    C6419658   0.810   0.618   4.502  0.9875  0.0311 -0.2798
   98MOL    C6519659   0.683   0.569   4.577 -0.8120  0.3306  0.0035
   98MOL    H6619660   0.922   0.432   4.462 -1.2051 -0.8127 -1.1210
   98MOL    H6719661   0.800   0.483   4.339  0.6745  1.9874 -1.9380
   98MOL    H6819662   0.882   0.628   4.584  1.0632 -1.6981 -0.1266
   98MOL    H6919663   0.793   0.720   4.466 -0.9738 -0.2019 -0.0591
   98MOL    H7019664   0.706   0.467   4.610  0.7302  0.7910  0.3755
   98MOL    H7119665   0.597   0.550   4.512 -0.0783 -4.8262  0.3383
   98MOL    O7219666   0.659   0.650   4.684 -0.3026  0.5092  0.0876
   98MOL    C7319667   0.562   0.621   4.786  0.3881 -0.1529  0.6228
   98MOL    C7419668   0.574   0.711   4.912  0.4904  0.1111  0.1086
   98MOL    C7519669   0.705   0.718   4.968  0.3878 -0.3175  0.2889
   98MOL    H7619670   0.582   0.516   4.808  0.9303  0.0111  0.9134
   98MOL    H7719671   0.460   0.624   4.746  0.5427 -3.0988 -0.0856
   98MOL    H7819672   0.532   0.809   4.887 -1.7008 -0.5044  1.2744
   98MOL    H7919673   0.498   0.672   4.979 -1.1615  0.9603 -1.2310
   98MOL    H8019674   0.777   0.661   4.909  0.9548  0.9090 -0.2199
   98MOL    H8119675   0.704   0.652   5.055 -2.7114  0.1890  0.6652
   98MOL    O8219676   0.746   0.851   4.978 -0.1373 -0.1925 -0.4761
   98MOL    C8319677   0.783   0.908   4.853 -0.0909 -0.1285  0.4903
   98MOL    C8419678   0.856   1.044   4.861 -0.3046  0.4747 -0.2431
   98MOL    C8519679   0.858   1.112   4.724 -0.3346  0.6210  0.2545
   98MOL    H8619680   0.695   0.923   4.790 -0.7716  0.5828  1.6001
   98MOL    H8719681   0.838   0.836   4.791 -3.0150 -0.8247 -1.4169
   98MOL    H8819682   0.808   1.109   4.934  0.3429 -1.2000  1.6904
   98MOL    H8919683   0.949   1.024   4.912 -1.0502  1.4044  1.5239
   98MOL    H9019684   0.880   1.045   4.642  0.2384  1.7741 -0.5477
   98MOL    H9119685   0.928   1.195   4.729  0.8750 -0.3825  0.0313
   98MOL    O9219686   0.730   1.165   4.695  0.3859 -0.2091  0.0985
   98MOL    C9319687   0.729   1.216   4.558  0.0907  0.0323 -0.3880
   98MOL    C9419688   0.648   1.349   4.563 -0.1631  0.2787 -0.9058
   98MOL    C9519689   0.607   1.407   4.428  0.2484 -1.0954  0.3110
   98MOL    H9619690   0.684   1.142   4.492 -0.8326  0.0505  0.2141
   98MOL    H9719691   0.831   1.232   4.523 -0.5361  2.7545 -1.0703
   98MOL    H9819692   0.567   1.349   4.637  1.4330 -1.1432  0.9242
   98MOL    H9919693   0.719   1.422   4.602 -0.8281  0.3625  0.1793
   98MOL   H10019694   0.572   1.318   4.377 -0.0234  0.3847 -2.1590
   98MOL   H10119695   0.697   1.449   4.383  0.5631 -0.6084  1.3700
   98MOL   O10219696   0.504   1.499   4.428 -0.3910 -0.2958  0.3217
   98MOL   C10319697   0.438   1.504   4.303 -0.0075  0.2814  0.2016
   98MOL   C10419698   0.390   1.645   4.279  0.3490  0.2424 -0.0580
   98MOL   C10519699   0.265   1.667   4.369  0.1187  0.2548 -0.0395
   98MOL   H10619700   0.360   1.429   4.296 -0.7496  0.9905  0.7814
   98MOL   H10719701   0.502   1.478   4.219  0.3672 -0.1481  0.6116
   98MOL   H10819702   0.471   1.709   4.315 -0.3994  0.0700  1.9592
   98MOL   H10919703   0.376   1.673   4.174  3.8088  1.2549 -0.3128
   98MOL   H11019704   0.300   1.667   4.472  2.4206  0.2251 -0.7934
   98MOL   H11119705   0.195   1.584   4.364  1.5571 -1.0278  0.5242
   98MOL   O11219706   0.212   1.791   4.325  0.4050  0.1559 -0.4951
   98MOL   C11319707   0.084   1.817   4.371  0.1844  0.0994 -0.7854
   98MOL   C11419708   0.035   1.942   4.296  0.5896 -0.4634  0.4671
   98MOL   C11519709   7.681   1.993   4.337  0.1202 -0.0270  0.1001
   98MOL   H11619710   0.077   1.823   4.480 -1.3949 -2.1001 -0.7311
   98MOL   H11719711   0.019   1.735   4.343  0.8380 -0.0422 -1.9061
   98MOL   H11819712   0.114   2.017   4.300  1.5673 -1.1983 -3.1789
   98MOL   H11919713   0.026   1.923   4.189 -0.9274  0.3846  0.4305
   98MOL   H12019714   7.602   1.920   4.324  1.5304 -1.6564  0.4220
   98MOL   H12119715   7.664   2.072   4.264 -0.5633  2.6986  3.0522
   98MOL   O12219716   7.675   2.054   4.469  0.2952 -0.3521  0.2720
   98MOL   C12319717   7.572   2.142   4.495 -0.1245 -0.8734 -0.4252
   98MOL   C12419718   7.547   2.154   4.650 -0.2420 -0.0756 -0.2607
   98MOL   C12519719   7.445   2.263   4.690  0.3895 -0.2103  0.4419
   98MOL   H12619720   7.477   2.108   4.454 -2.9814  1.6702  3.6667
   98MOL   H12719721   7.586   2.240   4.449 -4.0573  0.0090  0.1263
   98MOL   H12819722   7.522   2.056   4.690  5.1236 -1.6513 -0.4132
   98MOL   H12919723   7.646   2.172   4.691 -0.1230  0.0479 -0.6040
   98MOL   H13019724   7.351   2.224   4.651 -1.0420 -0.1133  3.6166
   98MOL   H13119725   7.467   2.355   4.636 -0.0507 -1.2826 -1.5871
   98MOL   O13219726   7.427   2.284   4.830 -0.0098  0.4212 -0.3872
   98MOL   C13319727   7.334   2.385   4.856 -0.6953  0.1349 -0.5424
   98MOL   C13419728   7.326   2.405   5.009  0.0176  0.6242 -0.4966
   98MOL   C13519729   7.226   2.516   5.047 -0.4101 -0.6518 -0.2469
   98MOL   H13619730   7.231   2.364   4.828 -0.1940 -2.3145 -0.6375
   98MOL   H13719731   7.359   2.478   4.805 -1.5461  1.0713  0.7278
   98MOL   H13819732   7.281   2.319   5.061 -0.2892  1.0910  0.0212
   98MOL   H13919733   7.417   2.425   5.066  0.1381  0.1818 -0.5345
   98MOL   H14019734   7.127   2.477   5.020 -0.1195 -1.0576 -0.7200
   98MOL   H14119735   7.255   2.608   4.995  2.6131 -1.8555 -0.7795
   98MOL   O14219736   7.238   2.552   5.183 -0.2840 -0.6216  0.1050
   98MOL   C14319737   7.134   2.641   5.225 -0.4563 -0.4246 -0.4292
   98MOL   C14419738   7.171   2.685   5.368 -0.8028  0.0650 -0.1147
   98MOL   C14519739   7.047   2.741   5.446 -0.0830 -0.1744  0.2029
   98MOL   H14619740   7.037   2.593   5.213 -0.3976  0.2122 -4.0894
   98MOL   H14719741   7.127   2.729   5.162 -2.5240 -0.9627 -0.9902
   98MOL   H14819742   7.191   2.599   5.432  1.7612  1.6259  1.2777
   98MOL   H14919743   7.256   2.753   5.377  0.2967 -1.0761 -1.7813
   98MOL   H15019744   7.075   2.787   5.540  0.1778  0.9019 -0.3894
   98MOL   H15119745   6.974   2.665   5.474  0.8116 -1.3900 -0.7492
   98MOL   O15219746   6.980   2.831   5.367  0.3593 -0.0884 -0.4222
   98MOL   C15319747   7.038   2.961   5.368  0.1824  0.3755 -0.4091
   98MOL   C15419748   6.992   3.045   5.252  0.2922 -0.1378  0.6378
   98MOL   C15519749   6.853   3.088   5.270 -0.0277 -0.1959 -0.7765
   98MOL   H15619750   7.147   2.960   5.379  0.0053  0.4327  1.7028
   98MOL   H15719751   7.004   3.009   5.460 -3.4635 -1.2522 -0.8519
   98MOL   H15819752   7.046   3.139   5.258 -1.4044  0.9356 -0.5053
   98MOL   H15919753   7.013   2.992   5.159  1.0998  2.2577 -0.5844
   98MOL   H16019754   6.859   3.156   5.355  1.4453 -1.4830  0.1870
   98MOL   H16119755   6.782   3.010   5.297  1.1278 -1.3460 -1.0147
   98MOL   O16219756   6.802   3.156   5.159 -0.3143 -0.4445  0.2275
   98MOL   C16319757   6.704   3.086   5.082  0.9046 -0.3988  0.4217
   98MOL   C16419758   6.677   3.178   4.962 -0.4493  0.2328 -0.4104
   98MOL   C16519759   6.571   3.129   4.876  0.0840  0.0558  0.0067
   98MOL   H16619760   6.616   3.067   5.143 -0.3892 -1.3168 -1.6949
   98MOL   H16719761   6.753   2.992   5.060  3.5550  0.6506  1.6296
   98MOL   H16819762   6.655   3.277   5.000  0.4336  0.0940  0.4683
   98MOL   H16919763   6.768   3.187   4.903 -0.4107 -2.5028 -0.8553
   98MOL   H17019764   6.483   3.102   4.935  0.3364 -0.3951  0.1752
   98MOL   H17119765   6.598   3.044   4.813  1.3191  1.6781 -1.6949
   98MOL   O17219766   6.521   3.238   4.796 -0.2630 -0.1921  0.7053
   98MOL   C17319767   6.424   3.199   4.697 -0.2138  1.1108 -0.7688
   98MOL   C17419768   6.391   3.309   4.600 -0.5137  0.8672  0.1988
   98MOL   C17519769   6.286   3.265   4.494 -0.7451  0.5478  0.5374
   98MOL   H17619770   6.335   3.158   4.746  0.4813  1.5414  0.8841
   98MOL   H17719771   6.454   3.110   4.641  1.0151  0.1648  1.3397
   98MOL   H17819772   6.354   3.394   4.658 -1.0746  1.0351 -0.3899
   98MOL   H17919773   6.486   3.345   4.559  0.9338 -1.8223  1.0537
   98MOL   H18019774   6.188   3.234   4.531 -1.6315 -0.0914 -2.2214
   98MOL   H18119775   6.325   3.169   4.458 -1.9614  0.2507 -0.0166
   98MOL   O18219776   6.260   3.373   4.405 -0.2142  0.1819  0.3634
   98MOL   C18319777   6.192   3.331   4.286 -0.1105  0.2106 -0.3156
   98MOL   C18419778   6.149   3.455   4.216 -0.1818  0.0083  0.1674
   98MOL   C18519779   6.060   3.432   4.093 -0.0542 -0.7639 -0.7655
   98MOL   H18619780   6.108   3.273   4.324 -0.3164 -0.1722 -1.3365
   98MOL   H18719781   6.256   3.267   4.226  1.1235  3.0844 -2.1153
   98MOL   H18819782   6.109   3.529   4.286 -1.6732  1.4054 -2.0942
   98MOL   H18919783   6.239   3.494   4.169 -0.2141  1.2169  1.0638
   98MOL   H19019784   5.958   3.403   4.122  0.3912 -1.9202 -0.3330
   98MOL   H19119785   6.085   3.341   4.040  4.3103  0.8617 -1.6390
   98MOL   O19219786   6.055   3.541   4.001  0.5029 -0.2774 -0.1067
   98MOL   C19319787   5.964   3.511   3.894 -0.2014  0.1406  0.4887
   98MOL   C19419788   5.826   3.577   3.936 -0.2986  0.5758  0.1903
   98MOL   C19519789   5.728   3.578   3.820  0.3566  0.5114  0.5893
   98MOL   H19619790   5.945   3.408   3.861  0.8389 -0.0787  0.5577
   98MOL   H19719791   5.991   3.565   3.803 -1.1816  0.2580  0.2610
   98MOL   H19819792   5.776   3.528   4.019 -2.3518  3.3565  0.6980
   98MOL   H19919793   5.846   3.678   3.972 -1.1328  2.0382 -3.2444
   98MOL   H20019794   5.735   3.484   3.766 -0.4600  0.4377  0.5989
   98MOL   H20119795   5.755   3.656   3.748 -0.0248  0.5633  0.4979
   98MOL   H20219796   5.627   3.587   3.860 -0.5216 -2.2122 -0.9442
   99MOL     O119797   4.176   5.441   3.460 -0.2781 -0.1662  0.0115
   99MOL     C219798   4.075   5.357   3.410  0.1696 -0.7788  0.2827
   99MOL     C319799   4.100   5.205   3.437 -0.3692 -1.0748  0.1740
   99MOL     C419800   4.014   5.117   3.345  0.6727  0.1789 -0.0784
   99MOL     H519801   4.079   5.365   3.301  1.7770 -0.0930  0.3756
   99MOL     H619802   3.976   5.393   3.439  0.8196  0.7778  0.6221
   99MOL     H719803   4.206   5.186   3.421  0.2793  0.8766  1.8597
   99MOL     H819804   4.088   5.176   3.541 -0.0989 -2.5055 -0.1903
   99MOL     H919805   4.034   5.014   3.375  2.3292  0.6124  0.4004
   99MOL    H1019806   4.026   5.135   3.238 -0.6783  1.0005 -0.0932
   99MOL    H1119807   4.252   5.445   3.405  1.8625  3.1063  2.9967
   99MOL    O1219808   3.874   5.139   3.376  0.0874  0.3974  0.0916
   99MOL    C1319809   3.788   5.068   3.294  0.0092  0.5545  0.2649
   99MOL    C1419810   3.643   5.080   3.350  0.0705 -0.1994 -0.4039
   99MOL    C1519811   3.527   5.014   3.267 -0.2774  0.0705  0.0618
   99MOL    H1619812   3.821   4.965   3.302 -0.5894  0.3797  0.4868
   99MOL    H1719813   3.798   5.098   3.190 -0.6998 -0.6885 -0.1752
   99MOL    H1819814   3.636   5.037   3.450 -0.2449 -0.4847 -0.5474
   99MOL    H1919815   3.617   5.185   3.362  2.2209  0.1957  0.9578
   99MOL    H2019816   3.495   5.077   3.184  1.1400 -0.6636 -1.0771
   99MOL    H2119817   3.436   4.995   3.324 -0.1328  0.2597  0.3555
   99MOL    O2219818   3.582   4.888   3.219  0.3258 -0.1049  0.7043
   99MOL    C2319819   3.484   4.816   3.141 -0.0043  0.3317 -0.2726
   99MOL    C2419820   3.543   4.680   3.107  0.1382  0.1311 -0.4882
   99MOL    C2519821   3.451   4.588   3.021  0.1011  0.1437  0.5517
   99MOL    H2619822   3.457   4.880   3.057  0.4540  1.6289  0.5501
   99MOL    H2719823   3.396   4.803   3.205 -0.3588 -0.2592 -0.8726
   99MOL    H2819824   3.639   4.712   3.065 -0.5141  0.5084 -1.7324
   99MOL    H2919825   3.572   4.635   3.201 -0.6251  1.0080  0.1800
   99MOL    H3019826   3.425   4.632   2.925 -0.7228  0.7334  1.0407
   99MOL    H3119827   3.361   4.556   3.072 -0.5756 -0.7957 -1.1863
   99MOL    O3219828   3.535   4.474   3.000 -0.5144  0.1721  0.5183
   99MOL    C3319829   3.469   4.387   2.909 -0.9370  0.4878  0.9018
   99MOL    C3419830   3.511   4.246   2.921 -0.1741 -0.0249 -0.1220
   99MOL    C3519831   3.456   4.152   2.808 -0.3368 -0.4668  0.9678
   99MOL    H3619832   3.493   4.426   2.809 -0.5913 -1.0160  0.3863
   99MOL    H3719833   3.360   4.395   2.911 -1.1047 -0.6926 -1.5627
   99MOL    H3819834   3.620   4.243   2.909  0.3992 -1.0350  4.3942
   99MOL    H3919835   3.494   4.208   3.022  0.8017  1.0845  0.4738
   99MOL    H4019836   3.468   4.198   2.710 -1.3810 -1.2091  0.4875
   99MOL    H4119837   3.348   4.145   2.816 -0.5720  0.2727 -1.2912
   99MOL    O4219838   3.524   4.029   2.825 -0.1193  0.2713  0.2971
   99MOL    C4319839   3.471   3.931   2.727 -0.3600  0.0389  0.5819
   99MOL    C4419840   3.512   3.967   2.578  0.5772 -0.6776 -0.6788
   99MOL    C4519841   3.482   3.864   2.470 -0.3677 -0.5519  1.2189
   99MOL    H4619842   3.363   3.923   2.735 -0.4481  1.3383  0.8401
   99MOL    H4719843   3.506   3.832   2.757 -0.6073 -0.5642 -1.0536
   99MOL    H4819844   3.459   4.053   2.539 -3.6036 -3.2381 -0.9360
   99MOL    H4919845   3.618   3.986   2.558  0.1186  0.8870 -1.6563
   99MOL    H5019846   3.377   3.838   2.479 -0.0141 -2.4468  0.0343
   99MOL    H5119847   3.544   3.775   2.471 -1.1988 -1.1327  1.3199
   99MOL    O5219848   3.512   3.921   2.346  0.3049 -0.0098  0.0654
   99MOL    C5319849   3.527   3.836   2.232  0.7406  0.5628  0.1285
   99MOL    C5419850   3.527   3.917   2.096  0.0340 -0.2498 -0.2057
   99MOL    C5519851   3.561   3.819   1.981 -0.5412 -0.7383 -0.6874
   99MOL    H5619852   3.446   3.764   2.224  0.5113  0.8732 -0.3509
   99MOL    H5719853   3.625   3.789   2.234  1.8110  2.7259  1.1835
   99MOL    H5819854   3.422   3.943   2.086  0.4496  1.8805  0.6816
   99MOL    H5919855   3.570   4.017   2.090 -0.5490 -0.0898 -1.9896
   99MOL    H6019856   3.582   3.885   1.897  1.7767  1.6470  1.6703
   99MOL    H6119857   3.489   3.741   1.955 -0.4918 -1.7502  2.0448
   99MOL    O6219858   3.691   3.773   2.008  0.2612  0.0723 -0.1556
   99MOL    C6319859   3.759   3.697   1.907  1.0650  0.2052  0.8335
   99MOL    C6419860   3.828   3.794   1.809  0.1072  0.6172 -0.4803
   99MOL    C6519861   3.930   3.879   1.869 -0.1109  0.2190  0.3659
   99MOL    H6619862   3.687   3.626   1.867 -0.0432  1.7227  0.0915
   99MOL    H6719863   3.827   3.624   1.951  2.0872 -0.8890 -2.4340
   99MOL    H6819864   3.884   3.751   1.725  0.3901 -0.1762  0.1071
   99MOL    H6919865   3.746   3.847   1.761  0.0771  0.5790 -0.4714
   99MOL    H7019866   4.011   3.817   1.907 -1.4880 -1.4818  0.5972
   99MOL    H7119867   3.889   3.943   1.948  1.5689  1.0471  0.6139
   99MOL    O7219868   3.988   3.954   1.764  0.6408 -0.0159 -0.6808
   99MOL    C7319869   4.121   3.992   1.769  0.1357 -0.2934  0.5233
   99MOL    C7419870   4.142   4.111   1.856 -0.0633 -0.4842 -1.0297
   99MOL    C7519871   4.292   4.145   1.866 -0.2083 -0.5017  0.2631
   99MOL    H7619872   4.134   4.024   1.666  1.3234  0.1060  0.7908
   99MOL    H7719873   4.187   3.907   1.789  1.6908  0.5481 -0.9203
   99MOL    H7819874   4.085   4.194   1.815  1.3013  0.0799 -1.8177
   99MOL    H7919875   4.105   4.085   1.956  0.7337  0.2444 -0.5385
   99MOL    H8019876   4.338   4.170   1.770  0.6987 -1.3946  0.4527
   99MOL    H8119877   4.342   4.052   1.896 -1.9647 -2.6872 -3.2685
   99MOL    O8219878   4.310   4.244   1.964 -0.2714  0.4330 -0.9749
   99MOL    C8319879   4.434   4.300   1.959 -0.8054 -0.8640 -0.2019
   99MOL    C8419880   4.438   4.417   2.061 -0.6972 -0.2132  0.7620
   99MOL    C8519881   4.365   4.547   2.020  0.3525  0.2460 -0.0527
   99MOL    H8619882   4.461   4.338   1.861 -0.1471 -2.5380 -0.6958
   99MOL    H8719883   4.508   4.227   1.993  0.5703  0.3561 -0.5328
   99MOL    H8819884   4.400   4.386   2.159 -1.3548  1.3594  1.0357
   99MOL    H8919885   4.542   4.433   2.088 -1.0539  3.6161  0.1330
   99MOL    H9019886   4.257   4.538   2.033  0.1579  0.7854 -1.3031
   99MOL    H9119887   4.377   4.560   1.913  0.7506  0.0206 -0.0384
   99MOL    O9219888   4.420   4.647   2.112  0.2867  0.5660  0.3795
   99MOL    C9319889   4.375   4.773   2.077  0.4223 -0.0014  0.1848
   99MOL    C9419890   4.406   4.871   2.194 -0.4371  0.1065 -0.0517
   99MOL    C9519891   4.551   4.866   2.248  0.2666 -0.3737  0.0064
   99MOL    H9619892   4.269   4.789   2.058 -0.0486 -2.4189  0.7268
   99MOL    H9719893   4.425   4.807   1.986  1.9132 -1.3590  0.4820
   99MOL    H9819894   4.397   4.976   2.164 -1.0048  0.3580  0.9261
   99MOL    H9919895   4.339   4.860   2.280 -0.5604 -1.7942 -0.3715
   99MOL   H10019896   4.616   4.905   2.170 -1.7764  1.2954 -0.9496
   99MOL   H10119897   4.578   4.768   2.287  0.9872  0.1421  0.8201
   99MOL   O10219898   4.562   4.944   2.367  0.1517 -0.2196 -0.1057
   99MOL   C10319899   4.694   4.935   2.420  1.0127  0.5510 -0.0149
   99MOL   C10419900   4.744   5.068   2.472 -0.0497 -0.2464  0.0107
   99MOL   C10519901   4.887   5.079   2.516 -1.0259  0.4625  0.3319
   99MOL   H10619902   4.776   4.891   2.363  1.6892  1.3746  0.3175
   99MOL   H10719903   4.677   4.861   2.498 -1.5597  1.1757  0.0691
   99MOL   H10819904   4.735   5.145   2.396  0.6745  0.5602  0.7284
   99MOL   H10919905   4.694   5.082   2.568  1.6780 -0.4780  0.9639
   99MOL   H11019906   4.957   5.055   2.435  1.3097  2.1294  1.7978
   99MOL   H11119907   4.905   5.008   2.597 -0.3444 -1.5136 -1.4953
   99MOL   O11219908   4.892   5.219   2.548  0.6490 -0.0747 -0.3341
   99MOL   C11319909   5.012   5.270   2.607 -0.0801 -0.0712  0.2810
   99MOL   C11419910   5.011   5.426   2.590 -0.5545  0.0612  0.4255
   99MOL   C11519911   5.152   5.489   2.606 -0.2032  0.5295  0.7431
   99MOL   H11619912   5.097   5.235   2.549  0.5588  1.3084  0.3569
   99MOL   H11719913   5.043   5.244   2.708  0.6274 -2.0772 -0.4365
   99MOL   H11819914   4.977   5.448   2.489 -0.9634 -3.1047 -0.1890
   99MOL   H11919915   4.946   5.480   2.658  0.5448 -1.0221  2.3846
   99MOL   H12019916   5.220   5.462   2.525 -3.1365 -1.9430 -0.9810
   99MOL   H12119917   5.202   5.449   2.694  0.5722 -2.7608 -1.1224
   99MOL   O12219918   5.128   5.626   2.607  0.4600 -0.0905 -0.1438
   99MOL   C12319919   5.244   5.706   2.636  0.3706  0.1502  0.1072
   99MOL   C12419920   5.194   5.851   2.630 -0.1949  0.1728  0.5393
   99MOL   C12519921   5.189   5.907   2.488  0.4315 -0.7300 -0.7872
   99MOL   H12619922   5.313   5.692   2.552  0.4626 -2.9020  0.6483
   99MOL   H12719923   5.295   5.692   2.731 -2.5365  1.0821  1.8738
   99MOL   H12819924   5.103   5.880   2.683 -0.9480  3.6722 -2.4343
   99MOL   H12919925   5.278   5.906   2.671 -0.5491  2.2975 -1.4663
   99MOL   H13019926   5.147   5.844   2.409  2.0785 -0.7467 -1.6579
   99MOL   H13119927   5.291   5.908   2.450  1.1656 -0.4371  1.1363
   99MOL   O13219928   5.139   6.035   2.483 -0.3902 -0.2368  0.0307
   99MOL   C13319929   5.001   6.034   2.446 -0.3049  0.6046  0.3086
   99MOL   C13419930   4.942   6.173   2.449 -0.9737  0.3339 -0.2073
   99MOL   C13519931   4.785   6.180   2.443 -0.6275  0.4633 -0.8266
   99MOL   H13619932   4.940   5.964   2.503 -0.9135  1.0200  0.1796
   99MOL   H13719933   5.001   5.989   2.346  0.4730 -0.5832  0.8246
   99MOL   H13819934   4.967   6.216   2.546  1.9304 -4.2750  1.2603
   99MOL   H13919935   4.987   6.242   2.377 -0.9146  1.8583  1.2586
   99MOL   H14019936   4.739   6.171   2.542 -0.1377 -2.0360 -0.7872
   99MOL   H14119937   4.740   6.106   2.377  1.8778 -1.0207 -0.9610
   99MOL   O14219938   4.773   6.316   2.404 -0.2246 -0.3710 -0.1161
   99MOL   C14319939   4.644   6.332   2.345 -0.4018 -0.2573  0.2024
   99MOL   C14419940   4.616   6.484   2.332  0.3238  0.4554  0.2272
   99MOL   C14519941   4.481   6.497   2.268 -0.5179  0.2895 -0.7480
   99MOL   H14619942   4.567   6.272   2.394 -0.9460 -0.7255 -1.1997
   99MOL   H14719943   4.644   6.297   2.242 -0.8202 -0.3242  0.2266
   99MOL   H14819944   4.617   6.540   2.426  1.8191  0.4145  0.2519
   99MOL   H14919945   4.693   6.533   2.273 -0.3132  1.4373  0.2016
   99MOL   H15019946   4.399   6.466   2.332  0.2846  0.6804  0.4921
   99MOL   H15119947   4.478   6.416   2.195  0.5493 -2.0706  1.7426
   99MOL   O15219948   4.477   6.624   2.207 -0.1217  0.1933  0.0459
   99MOL   C15319949   4.347   6.669   2.162  0.3467 -0.3669  0.4382
   99MOL   C15419950   4.346   6.805   2.073  0.0581 -0.1158 -0.2606
   99MOL   C15519951   4.219   6.854   2.007  0.4656  0.0301 -0.5598
   99MOL   H15619952   4.266   6.678   2.233 -2.0278 -2.0711 -1.9528
   99MOL   H15719953   4.309   6.592   2.095 -0.0637  2.4862 -2.7252
   99MOL   H15819954   4.368   6.885   2.144 -0.8900 -0.2125  0.1563
   99MOL   H15919955   4.427   6.805   2.000 -2.5972 -0.5584 -3.3016
   99MOL   H16019956   4.147   6.881   2.085  0.5323  0.7112 -0.7290
   99MOL   H16119957   4.174   6.780   1.941  0.6037 -0.1699 -0.4305
   99MOL   O16219958   4.255   6.974   1.946  0.2251 -0.1186  0.0712
   99MOL   C16319959   4.142   7.053   1.912 -0.3528 -0.3169 -0.4390
   99MOL   C16419960   4.206   7.183   1.855  0.1028 -0.1041 -0.1808
   99MOL   C16519961   4.265   7.168   1.720  0.0046 -0.0108  0.2427
   99MOL   H16619962   4.075   7.070   1.996 -0.1166  0.2794 -0.3722
   99MOL   H16719963   4.087   7.005   1.831 -1.5051 -0.1728  0.2618
   99MOL   H16819964   4.133   7.264   1.857 -0.0845 -0.2929  1.0599
   99MOL   H16919965   4.278   7.230   1.922 -1.5837  3.4565 -0.7225
   99MOL   H17019966   4.329   7.080   1.708  0.3917 -0.1948  3.2345
   99MOL   H17119967   4.334   7.248   1.693  3.3096 -3.0756 -0.7771
   99MOL   O17219968   4.150   7.161   1.634 -0.5443  0.3374  0.0552
   99MOL   C17319969   4.190   7.147   1.500 -0.1217  0.5468 -0.4803
   99MOL   C17419970   4.056   7.132   1.417 -0.3865  0.6000 -0.1872
   99MOL   C17519971   4.084   7.148   1.265 -0.7989 -0.1266 -0.4455
   99MOL   H17619972   4.251   7.060   1.480 -2.1275  0.0474 -5.0085
   99MOL   H17719973   4.237   7.241   1.470 -2.0345  1.2484 -1.3628
   99MOL   H17819974   4.005   7.041   1.448 -3.3301  1.9068 -1.0272
   99MOL   H17919975   3.977   7.203   1.444 -1.0540 -0.2375  0.0926
   99MOL   H18019976   4.152   7.071   1.228 -1.1725 -0.0771 -1.2371
   99MOL   H18119977   4.112   7.250   1.239  0.7054 -0.5784 -0.6838
   99MOL   O18219978   3.963   7.133   1.200  0.7344 -0.4477 -0.2417
   99MOL   C18319979   3.957   7.129   1.060  0.7611  0.0693 -1.0890
   99MOL   C18419980   3.826   7.175   0.997  0.7624 -0.3478  0.0026
   99MOL   C18519981   3.778   7.305   1.055  0.1811 -0.1707  0.1746
   99MOL   H18619982   3.982   7.031   1.018 -1.8788 -1.1054  0.0083
   99MOL   H18719983   4.053   7.169   1.026  1.5976  0.0256  1.1242
   99MOL   H18819984   3.831   7.188   0.888  1.0670 -1.4218 -0.1142
   99MOL   H18919985   3.759   7.090   1.011 -0.7132  0.9737  1.1235
   99MOL   H19019986   3.757   7.293   1.161  0.2566  1.0390  0.3388
   99MOL   H19119987   3.677   7.328   1.023 -0.3064  0.6912  2.2543
   99MOL   O19219988   3.863   7.417   1.018 -0.7789 -0.1334  0.4216
   99MOL   C19319989   3.837   7.545   1.086  0.4560  0.5172 -0.2827
   99MOL   C19419990   3.917   7.654   1.016 -0.7460 -0.0509  0.6715
   99MOL   C19519991   3.914   7.661   0.859 -0.1773  0.0386 -0.4627
   99MOL   H19619992   3.868   7.544   1.191  1.1941 -0.8881 -0.5068
   99MOL   H19719993   3.729   7.555   1.071  0.6520  0.4686 -1.8173
   99MOL   H19819994   3.875   7.745   1.060 -1.5227 -0.6594  1.2047
   99MOL   H19919995   4.020   7.646   1.049 -0.7299  0.1764  0.6780
   99MOL   H20019996   3.960   7.571   0.817  0.2837  0.0339  0.0417
   99MOL   H20119997   3.969   7.747   0.823 -0.1597  0.8441  1.4594
   99MOL   H20219998   3.814   7.682   0.821 -0.0978  1.0955 -0.0869
  100MOL     O119999   3.774   6.804   1.702  0.6809  0.0308 -0.0612
  100MOL     C220000   3.898   6.736   1.728  0.7270 -0.3376 -0.4623
  100MOL     C320001   3.991   6.773   1.611  0.4254  0.4656  0.1285
  100MOL     C420002   4.143   6.726   1.627 -0.1429 -0.9107  0.0910
  100MOL     H520003   3.887   6.628   1.726 -0.0618 -0.2407 -1.1521
  100MOL     H620004   3.937   6.762   1.827  0.5286 -0.2751 -0.4020
  100MOL     H720005   3.953   6.749   1.512 -0.2760  1.9871  0.0095
  100MOL     H820006   3.987   6.882   1.604  0.8450  0.3768 -1.6311
  100MOL     H920007   4.133   6.618   1.618 -2.3986 -0.8159  0.9439
  100MOL    H1020008   4.181   6.758   1.724 -0.0164 -0.3283 -0.1470
  100MOL    H1120009   3.780   6.860   1.626 -2.5146 -2.4393 -2.2362
  100MOL    O1220010   4.217   6.768   1.517  0.4242  0.0976 -0.0489
  100MOL    C1320011   4.360   6.737   1.525 -0.1970 -0.1958  0.5649
  100MOL    C1420012   4.454   6.833   1.442  0.8873 -0.4010  0.0506
  100MOL    C1520013   4.415   6.848   1.299  0.5313 -0.3886  0.0164
  100MOL    H1620014   4.381   6.634   1.497 -1.2884  0.2062 -1.8091
  100MOL    H1720015   4.390   6.741   1.630 -1.3793  0.5651  0.8936
  100MOL    H1820016   4.454   6.936   1.478 -0.0810 -0.9351  1.6396
  100MOL    H1920017   4.552   6.785   1.450  1.7301  1.3725  0.8661
  100MOL    H2020018   4.320   6.897   1.277  1.6699  0.9894 -2.0369
  100MOL    H2120019   4.407   6.756   1.241  1.0007  1.1064 -2.4775
  100MOL    O2220020   4.509   6.939   1.244  0.5534 -0.1995  0.0445
  100MOL    C2320021   4.484   6.952   1.106 -0.2054  0.0127 -0.2222
  100MOL    C2420022   4.553   7.078   1.044 -0.3495  0.2681 -0.1364
  100MOL    C2520023   4.501   7.217   1.077  0.5388  0.0956  0.1411
  100MOL    H2620024   4.380   6.954   1.074 -0.2834 -1.0881 -0.0608
  100MOL    H2720025   4.522   6.867   1.049  1.5873  0.7947 -0.2157
  100MOL    H2820026   4.659   7.083   1.069 -0.9663  0.5435  2.6007
  100MOL    H2920027   4.551   7.059   0.936 -3.5888  0.9995 -0.2504
  100MOL    H3020028   4.443   7.207   1.168 -0.2239 -1.3568 -0.4793
  100MOL    H3120029   4.426   7.246   1.004 -0.4002  1.2548  1.5502
  100MOL    O3220030   4.598   7.314   1.101  0.2415  0.0390  0.1898
  100MOL    C3320031   4.664   7.365   0.987  0.5072 -0.1545  0.0185
  100MOL    C3420032   4.738   7.499   1.017 -0.7254  0.6133 -0.1276
  100MOL    C3520033   4.823   7.552   0.901 -0.1025  0.0404 -0.3885
  100MOL    H3620034   4.580   7.393   0.924 -0.4230  0.0668  1.3589
  100MOL    H3720035   4.734   7.294   0.941  0.7409  0.0462  0.0614
  100MOL    H3820036   4.663   7.572   1.047  0.2594  1.2843  0.7491
  100MOL    H3920037   4.811   7.479   1.096  1.2949  1.7844 -1.6612
  100MOL    H4020038   4.772   7.598   0.816 -2.1892  0.8852  1.2856
  100MOL    H4120039   4.887   7.475   0.858 -0.7105 -1.4272  1.2696
  100MOL    O4220040   4.895   7.666   0.957 -0.0549 -0.4051 -0.1270
  100MOL    C4320041   5.007   7.711   0.882 -0.1487  0.5234  0.2510
  100MOL    C4420042   4.969   7.746   0.738  0.6332 -0.2172  0.0148
  100MOL    C4520043   5.081   0.039   0.676  0.2495  0.0384 -0.1146
  100MOL    H4620044   5.093   7.643   0.885 -0.4519  0.1204 -0.2055
  100MOL    H4720045   5.054   0.010   0.928 -0.0972  0.3085  0.6087
  100MOL    H4820046   4.950   7.666   0.666 -0.3746  0.8865 -0.9534
  100MOL    H4920047   4.881   0.022   0.742  1.5660  1.0255  0.8909
  100MOL    H5020048   5.171   7.769   0.656  0.1882 -0.0097 -0.2544
  100MOL    H5120049   5.106   0.122   0.742  0.3505  0.3693 -0.5692
  100MOL    O5220050   5.035   0.105   0.564  0.0845 -0.6518  0.0107
  100MOL    C5320051   5.135   0.175   0.497  0.5300  0.2307  0.0351
  100MOL    C5420052   5.101   0.177   0.354  0.7012 -0.7395 -0.2451
  100MOL    C5520053   4.978   0.258   0.315 -0.6559  0.0710 -0.6311
  100MOL    H5620054   5.233   0.127   0.500  0.5847  0.2197 -1.7212
  100MOL    H5720055   5.153   0.273   0.541  0.2798  0.0110  0.6343
  100MOL    H5820056   5.185   0.216   0.297  0.8809  0.9819  1.1714
  100MOL    H5920057   5.069   0.081   0.314 -0.9389 -0.4542  0.3408
  100MOL    H6020058   4.999   0.362   0.341  0.6037 -0.0927 -0.9537
  100MOL    H6120059   4.891   0.235   0.376 -0.0137 -1.5358 -0.2881
  100MOL    O6220060   4.954   0.227   0.177  0.5035 -0.3766  0.4764
  100MOL    C6320061   4.844   0.307   0.132 -0.6023 -0.0035 -0.0311
  100MOL    C6420062   4.824   0.263   7.772  0.2096 -0.2697  0.1521
  100MOL    C6520063   4.712   0.339   7.707  0.5869 -0.5721 -0.1911
  100MOL    H6620064   4.871   0.411   0.149  1.9500 -0.7878  0.9925
  100MOL    H6720065   4.756   0.277   0.189 -0.0581 -0.2261  0.7007
  100MOL    H6820066   4.919   0.277   7.720  0.5358  0.8688  1.0352
  100MOL    H6920067   4.790   0.160   7.770 -3.5318  0.8875 -0.5710
  100MOL    H7020068   4.636   0.359   7.782  1.4618 -0.9176  0.8008
  100MOL    H7120069   4.673   0.274   7.628 -1.6267  0.5490 -0.0495
  100MOL    O7220070   4.772   0.452   7.650  0.3710 -0.1367 -0.0451
  100MOL    C7320071   4.675   0.550   7.609  0.3124 -0.3998  0.0398
  100MOL    C7420072   4.716   0.632   7.491  0.0513  0.8788 -0.1455
  100MOL    C7520073   4.612   0.741   7.457 -0.5371 -0.1490  0.0018
  100MOL    H7620074   4.660   0.620   7.691 -0.0264 -0.6567  0.1965
  100MOL    H7720075   4.580   0.504   7.582 -0.0193 -1.2332  2.4920
  100MOL    H7820076   4.814   0.673   7.519  0.0555 -0.5231  1.9311
  100MOL    H7920077   4.740   0.564   7.409 -3.2598 -0.5866  0.0379
  100MOL    H8020078   4.656   0.802   7.378  1.5310  0.0636  1.2995
  100MOL    H8120079   4.583   0.799   7.544  2.3190  2.4453 -0.7101
  100MOL    O8220080   4.496   0.676   7.395 -0.2321 -0.7545  0.1236
  100MOL    C8320081   4.393   0.770   7.385  0.4528 -0.7377 -0.0850
  100MOL    C8420082   4.259   0.708   7.338 -0.3103  0.1783  0.1545
  100MOL    C8520083   4.149   0.817   7.329  0.1611  0.4156  0.4252
  100MOL    H8620084   4.412   0.851   7.315  1.8802  0.5205  1.7059
  100MOL    H8720085   4.372   0.807   7.486 -0.5397 -1.3815 -0.0472
  100MOL    H8820086   4.269   0.656   7.243  2.0610  0.7553  0.0788
  100MOL    H8920087   4.219   0.637   7.411  0.0915 -0.5770 -0.3593
  100MOL    H9020088   4.173   0.877   7.241  1.8196  2.3952  2.2030
  100MOL    H9120089   4.159   0.882   7.415 -0.5270  2.8447 -1.2825
  100MOL    O9220090   4.019   0.757   7.313  0.0094 -0.0321 -0.8819
  100MOL    C9320091   3.925   0.862   7.285  0.1346  0.4187  0.2077
  100MOL    C9420092   3.782   0.806   7.267  0.2965 -0.4694 -0.3027
  100MOL    C9520093   3.711   0.802   7.400 -1.0352  0.9145  0.0963
  100MOL    H9620094   3.955   0.913   7.193  0.3429 -0.0412  0.0133
  100MOL    H9720095   3.923   0.940   7.361 -4.0779 -1.8810  2.6100
  100MOL    H9820096   3.712   0.859   7.201 -1.1210 -1.6415  0.2291
  100MOL    H9920097   3.798   0.711   7.218 -0.4134 -0.4552 -0.5648
  100MOL   H10020098   3.675   0.893   7.448 -0.2669  1.4891 -0.4035
  100MOL   H10120099   3.786   0.762   7.467 -2.2479  1.0203  1.5452
  100MOL   O10220100   3.598   0.710   7.399  0.0204  0.2662 -0.1234
  100MOL   C10320101   3.559   0.661   7.524 -0.2679 -0.3088  0.5247
  100MOL   C10420102   3.414   0.618   7.515  0.0303  0.2274  0.1416
  100MOL   C10520103   3.360   0.528   7.624 -0.0858  0.8488 -1.4820
  100MOL   H10620104   3.557   0.737   7.602 -1.7153  0.1742  0.0338
  100MOL   H10720105   3.625   0.579   7.554  2.1822  1.5554  0.3621
  100MOL   H10820106   3.340   0.697   7.526  0.4493  0.7093 -0.4682
  100MOL   H10920107   3.391   0.565   7.423 -0.7678  1.1020 -0.1626
  100MOL   H11020108   3.429   0.444   7.626 -0.3284  0.6722  0.7070
  100MOL   H11120109   3.256   0.503   7.603  0.2185 -0.4051 -1.5565
  100MOL   O11220110   3.382   0.594   7.749  0.1419 -0.3113 -0.1899
  100MOL   C11320111   3.340   0.514   0.073 -0.3768 -0.4921 -0.1910
  100MOL   C11420112   3.326   0.608   0.198  0.1933 -0.2977 -0.0724
  100MOL   C11520113   3.338   0.535   0.332 -0.5670 -0.0640  1.1669
  100MOL   H11620114   3.415   0.440   0.100  0.0775 -0.1057 -0.3972
  100MOL   H11720115   3.246   0.460   0.060 -1.3194  1.1709 -0.4522
  100MOL   H11820116   3.399   0.688   0.189 -0.1529  0.0090 -0.1624
  100MOL   H11920117   3.224   0.644   0.183  0.4588 -0.3875 -2.2985
  100MOL   H12020118   3.319   0.601   0.417 -1.7913  0.4284  0.5230
  100MOL   H12120119   3.443   0.506   0.334 -0.8604 -1.1931  0.7946
  100MOL   O12220120   3.238   0.432   0.341  0.0538  0.8929 -0.6419
  100MOL   C12320121   3.265   0.329   0.429  0.3904 -0.3442  0.2025
  100MOL   C12420122   3.153   0.222   0.419  0.2305  0.2175 -0.9323
  100MOL   C12520123   3.205   0.084   0.451  0.1613 -0.0207  0.2359
  100MOL   H12620124   3.285   0.361   0.532 -0.5599 -1.6901  0.8232
  100MOL   H12720125   3.360   0.287   0.395 -0.4492 -1.3596 -0.9100
  100MOL   H12820126   3.064   0.231   0.480  0.7574  3.2091 -0.5035
  100MOL   H12920127   3.117   0.225   0.317  1.1966 -0.6926 -1.3202
  100MOL   H13020128   3.290   0.060   0.387 -0.5113  1.8917 -1.4171
  100MOL   H13120129   3.133   0.011   0.415 -1.0289  1.2837 -0.0711
  100MOL   O13220130   3.251   0.069   0.585  0.1087  0.0860 -0.0344
  100MOL   C13320131   3.305   7.733   0.614  0.1568 -0.1100  0.0768
  100MOL   C13420132   3.385   7.738   0.746  0.3353 -0.7440 -0.2509
  100MOL   C13520133   3.469   7.611   0.767  0.0948  0.1615 -0.8753
  100MOL   H13620134   3.372   7.699   0.534 -0.3653  0.5192 -0.6414
  100MOL   H13720135   3.235   7.650   0.610  0.4620 -0.3332 -0.8732
  100MOL   H13820136   3.450   0.037   0.740 -2.2655  1.2930  0.3347
  100MOL   H13920137   3.322   7.753   0.834  2.4881 -1.7293  1.5048
  100MOL   H14020138   3.398   7.529   0.763  0.3722  0.0372 -4.2167
  100MOL   H14120139   3.504   7.615   0.870  2.1554  2.3640 -1.6129
  100MOL   O14220140   3.577   7.605   0.676  0.4657 -0.4844  0.1899
  100MOL   C14320141   3.649   7.489   0.697 -0.4709 -0.2423  0.1114
  100MOL   C14420142   3.771   7.469   0.600  0.3203  0.0912  0.2996
  100MOL   C14520143   3.730   7.444   0.449 -0.9255  0.1970  0.4837
  100MOL   H14620144   3.581   7.407   0.675 -0.7510 -0.1322  0.5766
  100MOL   H14720145   3.685   7.480   0.800  2.2997  0.2021 -0.7560
  100MOL   H14820146   3.834   7.558   0.605 -0.7665  0.8605  0.3956
  100MOL   H14920147   3.827   7.394   0.656 -2.0111  0.1100  2.7661
  100MOL   H15020148   3.692   7.537   0.407  0.4007  0.3222 -0.4552
  100MOL   H15120149   3.656   7.364   0.441  2.9238 -3.4108 -1.2674
  100MOL   O15220150   3.839   7.387   0.377 -0.1324 -0.7274 -0.0649
  100MOL   C15320151   3.820   7.392   0.237  1.0269  0.1975 -0.4866
  100MOL   C15420152   3.711   7.313   0.164  0.1020 -0.4051 -1.1655
  100MOL   C15520153   3.715   7.320   0.013  0.7536  0.8800 -0.0511
  100MOL   H15620154   3.910   7.350   0.191  1.6886  0.7766  0.2603
  100MOL   H15720155   3.810   7.496   0.205  0.2587  0.2773  0.0053
  100MOL   H15820156   3.720   7.207   0.191  0.3716 -0.8715 -3.0244
  100MOL   H15920157   3.621   7.363   0.198  1.0878  1.4422 -1.2171
  100MOL   H16020158   3.812   7.292   7.759 -0.4667 -0.4719 -2.0061
  100MOL   H16120159   3.684   7.419   7.769  1.2606  0.7963 -0.8048
  100MOL   O16220160   3.613   7.227   7.753  0.7036  0.7618 -0.1304
  100MOL   C16320161   3.627   7.208   7.609 -0.2808  0.2304  0.1034
  100MOL   C16420162   3.508   7.117   7.564 -0.3651 -0.9354  0.0849
  100MOL   C16520163   3.518   7.092   7.412  0.3433 -0.2831 -0.7011
  100MOL   H16620164   3.722   7.164   7.582  0.0505  0.9471  0.0923
  100MOL   H16720165   3.621   7.304   7.558 -2.2867  0.5810  0.9310
  100MOL   H16820166   3.517   7.017   7.607  2.2718 -1.0802 -0.6682
  100MOL   H16920167   3.413   7.163   7.588 -0.0005  0.3422 -0.8622
  100MOL   H17020168   3.488   7.186   7.366  0.4929  1.4157  2.5432
  100MOL   H17120169   3.448   7.010   7.397  0.5931 -0.4747 -0.8424
  100MOL   O17220170   3.644   7.046   7.376 -0.4630  0.6389 -0.4365
  100MOL   C17320171   3.652   7.024   7.237 -0.2682 -0.1807  0.1539
  100MOL   C17420172   3.798   7.028   7.197 -0.5639 -0.7836 -0.1614
  100MOL   C17520173   3.877   7.158   7.257 -0.1738 -0.2123 -0.1566
  100MOL   H17620174   3.598   7.103   7.185 -1.3622  0.2177  1.8416
  100MOL   H17720175   3.595   6.936   7.208 -0.8749 -0.2476  1.4946
  100MOL   H17820176   3.856   6.939   7.223 -1.4039 -1.3449 -0.2254
  100MOL   H17920177   3.795   7.026   7.088  3.2888 -1.7135 -0.3299
  100MOL   H18020178   3.890   7.155   7.366 -1.6746  0.1007  0.0395
  100MOL   H18120179   3.821   7.245   7.225  0.8534  0.1139 -1.1066
  100MOL   O18220180   4.001   7.165   7.185  0.3592 -0.4705  0.5998
  100MOL   C18320181   4.104   7.229   7.255 -0.0025  0.4239  0.6061
  100MOL   C18420182   4.221   7.244   7.153 -0.0224 -0.3441  0.7158
  100MOL   C18520183   4.345   7.332   7.193  0.0104 -0.6128  0.2790
  100MOL   H18620184   4.142   7.182   7.346 -0.1015  0.5902  0.7328
  100MOL   H18720185   4.069   7.330   7.279 -0.5381  0.2674  0.4814
  100MOL   H18820186   4.250   7.147   7.113 -0.7308 -0.4085  0.3364
  100MOL   H18920187   4.172   7.303   7.075  1.7990 -0.3478 -0.4625
  100MOL   H19020188   4.309   7.434   7.204 -1.8210 -1.2627  0.5117
  100MOL   H19120189   4.420   7.336   7.114 -0.8462 -2.5807 -0.6696
  100MOL   O19220190   4.397   7.275   7.317  0.1372 -0.4717  0.2790
  100MOL   C19320191   4.525   7.332   7.351  0.2475 -0.9299  0.5238
  100MOL   C19420192   4.539   7.336   7.504  0.0908  0.1497  0.1162
  100MOL   C19520193   4.687   7.386   7.536  0.3342 -1.0126 -0.3614
  100MOL   H19620194   4.546   7.433   7.316  0.8193 -1.3733 -0.4414
  100MOL   H19720195   4.603   7.267   7.312 -0.1801 -0.3021 -1.4288
  100MOL   H19820196   4.457   7.402   7.532 -2.0777 -1.6219 -1.9464
  100MOL   H19920197   4.507   7.241   7.545 -0.4038 -0.2746 -1.2538
  100MOL   H20020198   4.755   7.302   7.522 -0.1817 -1.0480 -2.8494
  100MOL   H20120199   4.696   7.434   7.633 -1.8391 -0.0256 -0.6165
  100MOL   H20220200   4.715   7.469   7.472  0.8500  0.8657  2.2232
  101MOL     O120201   4.874   3.722   0.899 -0.0387  0.6676 -0.2317
  101MOL     C220202   4.800   3.724   1.026  0.2968 -0.3344  0.3003
  101MOL     C320203   4.844   3.612   1.117  0.9392 -0.2818 -0.4294
  101MOL     C420204   4.723   3.567   1.201  0.2599  0.3211 -0.4464
  101MOL     H520205   4.699   3.709   0.990  1.1000 -0.6026 -1.9618
  101MOL     H620206   4.794   3.814   1.087 -0.6020  0.7096 -1.2881
  101MOL     H720207   4.885   3.530   1.058  0.3295 -0.4150 -0.6681
  101MOL     H820208   4.926   3.655   1.174  0.5800  1.0226 -0.8641
  101MOL     H920209   4.628   3.552   1.151  0.0182 -0.5219  0.2580
  101MOL    H1020210   4.690   3.645   1.269  1.7049  1.6554 -1.2327
  101MOL    H1120211   4.821   3.766   0.834  0.0297 -0.4125 -1.0280
  101MOL    O1220212   4.776   3.456   1.271 -0.1166  0.1765  0.4621
  101MOL    C1320213   4.676   3.389   1.353  0.7460 -0.1940 -0.1227
  101MOL    C1420214   4.722   3.245   1.379  0.7008 -0.1372 -0.3229
  101MOL    C1520215   4.618   3.176   1.470 -0.1848 -0.3918 -0.0773
  101MOL    H1620216   4.586   3.384   1.293 -0.1488  0.6996  1.1240
  101MOL    H1720217   4.651   3.443   1.445  0.3495  1.0329 -0.9405
  101MOL    H1820218   4.727   3.203   1.278 -1.2309  1.3787 -1.0678
  101MOL    H1920219   4.824   3.258   1.416  0.7410  1.3449 -0.9018
  101MOL    H2020220   4.528   3.159   1.410 -0.3635  0.2894 -0.0009
  101MOL    H2120221   4.599   3.236   1.559  1.2590 -0.1839  0.0963
  101MOL    O2220222   4.680   3.048   1.497  0.4483 -0.0450 -0.3253
  101MOL    C2320223   4.599   2.963   1.574 -0.3333 -0.0106  0.0305
  101MOL    C2420224   4.657   2.822   1.577  0.1892 -0.0141 -0.3531
  101MOL    C2520225   4.550   2.737   1.635 -0.2989 -0.3036 -0.2398
  101MOL    H2620226   4.499   2.964   1.530 -1.0820  0.2497  1.7087
  101MOL    H2720227   4.595   2.990   1.679 -0.4627  1.3009 -0.2953
  101MOL    H2820228   4.695   2.787   1.481 -1.1892 -0.7003 -0.6596
  101MOL    H2920229   4.741   2.818   1.646 -0.1910  0.3051  0.1277
  101MOL    H3020230   4.469   2.729   1.562 -1.5880  1.0603  0.9971
  101MOL    H3120231   4.514   2.786   1.726  0.1223 -0.4262 -0.0069
  101MOL    O3220232   4.600   2.605   1.667 -0.0728  0.0754  0.4332
  101MOL    C3320233   4.518   2.537   1.764 -0.6358 -0.5220 -0.1220
  101MOL    C3420234   4.496   2.394   1.721  0.3300  0.5230 -0.3374
  101MOL    C3520235   4.384   2.323   1.789  0.5382  0.1306 -0.0612
  101MOL    H3620236   4.420   2.583   1.765 -0.5263 -0.2844  1.8373
  101MOL    H3720237   4.556   2.545   1.866 -0.1367  1.5555 -0.4646
  101MOL    H3820238   4.459   2.405   1.619  0.1501 -1.1541 -0.4699
  101MOL    H3920239   4.583   2.332   1.700 -0.9936 -0.6105 -2.6770
  101MOL    H4020240   4.298   2.387   1.772  0.8328  0.3342 -0.7873
  101MOL    H4120241   4.398   2.301   1.895  2.6330  0.9544 -0.1532
  101MOL    O4220242   4.364   2.196   1.716 -0.1098  0.1732  0.0195
  101MOL    C4320243   4.261   2.122   1.779 -0.4041  0.2416  0.0509
  101MOL    C4420244   4.214   2.023   1.674  0.3704  0.4411 -0.1392
  101MOL    C4520245   4.111   1.915   1.728 -0.2567 -0.8977  0.0233
  101MOL    H4620246   4.177   2.192   1.789  0.3189  0.9221  1.6164
  101MOL    H4720247   4.282   2.083   1.879 -1.4377  3.6132  1.6595
  101MOL    H4820248   4.170   2.084   1.595  0.8732  0.7134 -0.2112
  101MOL    H4920249   4.297   1.973   1.624 -0.0813  0.6249 -1.0936
  101MOL    H5020250   4.034   1.977   1.774  0.8668 -0.1316  0.8890
  101MOL    H5120251   4.147   1.839   1.797  0.8293  0.3434  0.8536
  101MOL    O5220252   4.044   1.839   1.620  0.7136 -0.5287 -0.3709
  101MOL    C5320253   3.927   1.903   1.570  0.0699  0.1115 -0.1205
  101MOL    C5420254   3.807   1.836   1.629  0.7179  0.1799 -0.2138
  101MOL    C5520255   3.682   1.898   1.564  0.4948 -0.2382 -0.1644
  101MOL    H5620256   3.924   1.875   1.464 -0.0787 -0.4308  0.0266
  101MOL    H5720257   3.922   2.012   1.580 -0.0817  0.1431 -0.5040
  101MOL    H5820258   3.812   1.730   1.604 -0.2260 -0.1695  1.0102
  101MOL    H5920259   3.805   1.849   1.737 -0.8276 -0.9097 -0.0848
  101MOL    H6020260   3.689   1.900   1.456  2.1848 -0.9119 -0.0753
  101MOL    H6120261   3.662   2.000   1.600  0.5510  0.1472 -1.1992
  101MOL    O6220262   3.554   1.840   1.600  0.6663 -0.0956  0.1893
  101MOL    C6320263   3.544   1.704   1.572  0.2542  0.1756  1.2138
  101MOL    C6420264   3.416   1.637   1.623 -0.0104  0.1485  0.1632
  101MOL    C6520265   3.441   1.490   1.656 -0.2927 -0.5724 -0.0230
  101MOL    H6620266   3.627   1.660   1.627  0.3977 -3.1116 -1.4513
  101MOL    H6720267   3.552   1.685   1.465 -0.8032  1.2406  0.9400
  101MOL    H6820268   3.388   1.687   1.715  0.5512 -3.0416  2.1453
  101MOL    H6920269   3.337   1.646   1.547 -0.3171 -2.8513  0.0725
  101MOL    H7020270   3.509   1.492   1.742  0.8704 -0.1744 -0.9429
  101MOL    H7120271   3.495   1.437   1.578  1.6931  0.1112  0.8542
  101MOL    O7220272   3.326   1.426   1.701 -0.1300 -0.0867 -0.5750
  101MOL    C7320273   3.340   1.287   1.741 -0.1236 -0.4371  0.6737
  101MOL    C7420274   3.403   1.246   1.876  0.3599  0.3353 -0.6511
  101MOL    C7520275   3.347   1.319   1.998 -0.7018 -0.7371 -0.6310
  101MOL    H7620276   3.404   1.246   1.663  0.7684  0.0511  1.1476
  101MOL    H7720277   3.242   1.242   1.728 -0.2633 -0.0686  0.4211
  101MOL    H7820278   3.405   1.139   1.896  1.8322  0.3740 -0.5600
  101MOL    H7920279   3.510   1.261   1.871  0.3477 -0.0345 -2.3974
  101MOL    H8020280   3.247   1.279   2.014 -1.1191 -0.1573 -1.7061
  101MOL    H8120281   3.351   1.424   1.970 -0.6772 -0.8753 -1.1574
  101MOL    O8220282   3.449   1.281   2.091  0.2171  0.4747  0.4700
  101MOL    C8320283   3.421   1.296   2.231  0.3591  0.0003 -0.0147
  101MOL    C8420284   3.335   1.175   2.297 -0.5944 -1.1093 -0.3926
  101MOL    C8520285   3.337   1.174   2.456  0.2609  0.1565  0.0061
  101MOL    H8620286   3.350   1.377   2.248  1.4321  0.4225  2.6644
  101MOL    H8720287   3.516   1.312   2.281  0.0556 -0.5530  0.7515
  101MOL    H8820288   3.238   1.172   2.246 -0.9529 -1.1960  0.2919
  101MOL    H8920289   3.389   1.088   2.259  1.0989 -0.1285 -0.2820
  101MOL    H9020290   3.439   1.171   2.495  0.2225 -2.2943 -0.0030
  101MOL    H9120291   3.287   1.083   2.487 -0.2829  0.5456  0.2704
  101MOL    O9220292   3.254   1.279   2.498  0.3539 -0.0950  0.0855
  101MOL    C9320293   3.247   1.275   2.639 -0.5832 -1.1588 -0.6669
  101MOL    C9420294   3.167   1.398   2.698 -0.4139 -0.2945  0.0782
  101MOL    C9520295   3.047   1.356   2.785  0.6948  0.1959  0.4884
  101MOL    H9620296   3.348   1.289   2.679 -1.0863 -1.1471  0.6205
  101MOL    H9720297   3.214   1.177   2.673  0.1959 -0.4660  2.2237
  101MOL    H9820298   3.234   1.464   2.752 -1.7432  0.5910  0.6546
  101MOL    H9920299   3.133   1.457   2.612 -0.8845 -0.9600 -0.1989
  101MOL   H10020300   3.081   1.295   2.868  0.3271  1.4157  1.5484
  101MOL   H10120301   2.988   1.288   2.724  0.1525  0.5378  0.6246
  101MOL   O10220302   2.979   1.473   2.833 -0.5536 -0.1170  0.9177
  101MOL   C10320303   2.922   1.460   2.960 -0.6581 -0.8176 -0.1773
  101MOL   C10420304   2.913   1.607   3.014  0.2611 -0.4597 -1.0456
  101MOL   C10520305   3.049   1.680   3.016  0.9067 -0.6632  0.2515
  101MOL   H10620306   2.986   1.403   3.027 -0.7024 -0.8132 -0.1311
  101MOL   H10720307   2.823   1.418   2.940 -0.1565 -2.1271  0.0588
  101MOL   H10820308   2.846   1.655   2.943 -0.6628 -1.2330 -0.7128
  101MOL   H10920309   2.857   1.601   3.108  0.2079 -1.2025 -1.1215
  101MOL   H11020310   3.126   1.656   2.943  0.8819 -0.1362  0.0510
  101MOL   H11120311   3.081   1.661   3.119  1.4244  1.7434  0.5756
  101MOL   O11220312   3.031   1.822   3.033  0.2578  0.4545  0.4522
  101MOL   C11320313   3.022   1.878   2.906  0.1659  0.7541  0.4623
  101MOL   C11420314   3.004   2.023   2.924 -0.3978 -0.7938  0.1047
  101MOL   C11520315   3.012   2.109   2.791 -0.3394 -0.6704 -0.0593
  101MOL   H11620316   2.942   1.842   2.840  1.1379 -1.2081  0.3278
  101MOL   H11720317   3.118   1.871   2.855 -0.2698 -0.6611 -0.1868
  101MOL   H11820318   2.909   2.042   2.974  0.7673 -0.3201  2.2046
  101MOL   H11920319   3.083   2.066   2.986 -0.0900 -1.1399 -0.0503
  101MOL   H12020320   3.113   2.109   2.751 -0.4413  1.9405 -0.4030
  101MOL   H12120321   2.998   2.212   2.823  1.1337 -0.7102  0.7597
  101MOL   O12220322   2.904   2.075   2.697 -0.6381 -0.2262  0.2420
  101MOL   C12320323   2.900   2.168   2.590 -0.1557 -0.1227 -0.0746
  101MOL   C12420324   2.785   2.128   2.494  0.7792  0.0193  0.1357
  101MOL   C12520325   2.760   2.228   2.382 -0.8526 -0.2021 -0.0111
  101MOL   H12620326   2.997   2.167   2.541  1.0027  1.4015  2.0919
  101MOL   H12720327   2.886   2.268   2.631 -0.3455 -0.0021 -0.4347
  101MOL   H12820328   2.787   2.026   2.456  2.3584  0.8074 -2.0182
  101MOL   H12920329   2.693   2.139   2.552  0.6053 -0.1976 -0.1022
  101MOL   H13020330   2.744   2.331   2.415  0.1397 -0.2112  0.5237
  101MOL   H13120331   2.676   2.191   2.322 -0.8776 -1.0419  0.5328
  101MOL   O13220332   2.871   2.230   2.302 -0.3624 -0.6650  0.3718
  101MOL   C13320333   2.837   2.277   2.173 -0.2893 -0.6782 -0.2509
  101MOL   C13420334   2.973   2.278   2.095 -0.2172  0.0726 -0.4319
  101MOL   C13520335   2.948   2.304   1.946  0.1433 -0.6550 -0.5614
  101MOL   H13620336   2.805   2.381   2.179  0.5525 -0.4341  0.0943
  101MOL   H13720337   2.770   2.205   2.127 -1.1143  1.1090 -1.9355
  101MOL   H13820338   3.037   2.360   2.126  0.3500 -0.2049 -0.8745
  101MOL   H13920339   3.020   2.182   2.114 -2.5573 -1.2493 -1.1375
  101MOL   H14020340   2.893   2.224   1.896 -0.6754 -1.0730  1.0006
  101MOL   H14120341   3.044   2.309   1.895 -0.8598  0.6701 -2.3850
  101MOL   O14220342   2.885   2.432   1.912 -0.3271 -0.1045  0.0261
  101MOL   C14320343   2.870   2.447   1.765 -0.2652  0.5407 -0.1675
  101MOL   C14420344   2.823   2.596   1.743 -0.5662  0.2962 -0.1972
  101MOL   C14520345   2.816   2.631   1.590  0.3160  0.0348  0.6946
  101MOL   H14620346   2.796   2.373   1.735  2.5098 -3.0938  1.6233
  101MOL   H14720347   2.969   2.433   1.721 -0.2924 -0.4237  0.0672
  101MOL   H14820348   2.736   2.628   1.800  0.5082  2.2546  0.3984
  101MOL   H14920349   2.897   2.663   1.787 -0.8881  0.1549  0.5799
  101MOL   H15020350   2.761   2.551   1.540  0.8664  0.5090 -0.6782
  101MOL   H15120351   2.915   2.637   1.545  0.0963  0.3421  0.2543
  101MOL   O15220352   2.755   2.752   1.566  0.3181  0.0431 -0.2043
  101MOL   C15320353   2.749   2.778   1.424  0.0070  0.6072 -0.0069
  101MOL   C15420354   2.688   2.917   1.406 -0.2438 -0.2367 -0.2539
  101MOL   C15520355   2.673   2.959   1.259  0.2634 -0.0711 -0.3322
  101MOL   H15620356   2.687   2.704   1.372 -0.1577  0.5336  0.2972
  101MOL   H15720357   2.848   2.770   1.378 -0.2386  1.2760 -0.6755
  101MOL   H15820358   2.591   2.911   1.456 -0.7198  0.7116 -1.0392
  101MOL   H15920359   2.749   2.992   1.457  1.1637 -1.3678 -0.2390
  101MOL   H16020360   2.626   3.057   1.250 -0.1264 -0.3600 -1.6750
  101MOL   H16120361   2.608   2.883   1.216  0.0741  0.1930 -0.5179
  101MOL   O16220362   2.788   2.944   1.176 -0.6100 -0.0122  0.3676
  101MOL   C16320363   2.886   3.048   1.193 -0.0814  0.3815  0.5321
  101MOL   C16420364   2.997   3.007   1.096  0.0307 -1.3745 -0.5356
  101MOL   C16520365   3.099   3.128   1.090  0.3956  0.3899 -0.1549
  101MOL   H16620366   2.913   3.062   1.297 -3.1740 -2.2540  1.7777
  101MOL   H16720367   2.837   3.138   1.155  0.6566 -0.0771 -1.5613
  101MOL   H16820368   3.036   2.913   1.135  0.2963  0.0308  2.7635
  101MOL   H16920369   2.962   2.986   0.995 -1.8042 -0.1306 -0.1688
  101MOL   H17020370   3.148   3.158   1.182 -0.3525 -1.4758  0.8760
  101MOL   H17120371   3.033   3.207   1.053 -0.3255  0.2663  0.8371
  101MOL   O17220372   3.206   3.096   0.999  0.1810  0.2105 -0.2168
  101MOL   C17320373   3.290   3.204   0.971  0.8975 -0.0327  0.5913
  101MOL   C17420374   3.383   3.164   0.858  0.3549 -0.0963  0.3301
  101MOL   C17520375   3.315   3.131   0.724 -0.4645 -0.7298 -0.4094
  101MOL   H17620376   3.351   3.214   1.061 -0.4649 -0.7335  1.5965
  101MOL   H17720377   3.227   3.289   0.947 -0.2224 -1.2305 -0.7817
  101MOL   H17820378   3.470   3.227   0.840 -1.0291  1.5199 -0.8196
  101MOL   H17920379   3.423   3.068   0.893  0.2485 -0.4591 -0.5236
  101MOL   H18020380   3.267   3.223   0.689 -0.4580 -0.0190  1.3910
  101MOL   H18120381   3.244   3.050   0.739 -1.2543  0.1276  0.5566
  101MOL   O18220382   3.430   3.096   0.647 -0.4001 -0.3632 -0.1124
  101MOL   C18320383   3.396   3.020   0.530 -0.3937  0.3291  0.1690
  101MOL   C18420384   3.510   3.030   0.426  0.1894  0.4395 -0.3280
  101MOL   C18520385   3.519   3.172   0.364  0.0569  0.1426 -0.1726
  101MOL   H18620386   3.308   3.061   0.480 -1.1655 -0.5119  0.8424
  101MOL   H18720387   3.386   2.916   0.560 -0.1770  0.4091  0.5222
  101MOL   H18820388   3.604   2.995   0.470 -0.3678 -0.2632  0.3263
  101MOL   H18920389   3.478   2.960   0.349  0.7052 -0.5424  0.3337
  101MOL   H19020390   3.529   3.250   0.440 -3.0251  1.8823 -1.4516
  101MOL   H19120391   3.423   3.189   0.315  0.1185  1.2745  0.0798
  101MOL   O19220392   3.638   3.178   0.288  0.0867 -0.4366  0.8385
  101MOL   C19320393   3.656   3.308   0.237  0.6397  0.4530  0.2129
  101MOL   C19420394   3.642   3.306   0.087  0.2522  0.8507 -0.2706
  101MOL   C19520395   3.507   3.263   0.020 -0.0231  1.1136  0.3819
  101MOL   H19620396   3.762   3.330   0.246  0.5338  1.1353 -0.2269
  101MOL   H19720397   3.605   3.387   0.293 -1.2671 -0.5641 -0.0603
  101MOL   H19820398   3.676   3.400   0.044  0.6005  0.5050 -0.7452
  101MOL   H19920399   3.725   3.240   0.062 -1.4524 -1.7388  0.6135
  101MOL   H20020400   3.426   3.335   0.029 -1.0941  0.0454 -0.5643
  101MOL   H20120401   3.480   3.172   0.074  1.7803 -1.8844 -3.5625
  101MOL   H20220402   3.519   3.232   7.705 -0.7683  0.7618  0.3994
  102MOL     O120403   4.490   1.269   7.570 -0.0694 -0.3182 -0.3512
  102MOL     C220404   4.499   1.404   7.617  0.3119 -0.3726  0.5826
  102MOL     C320405   4.580   1.409   7.745 -0.0342  0.6041  0.5388
  102MOL     C420406   4.596   1.540   0.026  0.3535 -0.4244  0.3938
  102MOL     H520407   4.401   1.451   7.615 -0.6745 -2.2898  1.8087
  102MOL     H620408   4.557   1.466   7.549 -1.4977  0.1686 -0.4888
  102MOL     H720409   4.529   1.342   0.027  0.2534 -2.3179 -1.9514
  102MOL     H820410   4.674   1.355   7.733 -0.7185 -0.3764 -0.4895
  102MOL     H920411   4.496   1.583   0.034  0.5094  0.0920 -0.3589
  102MOL    H1020412   4.655   1.612   7.757 -1.1065 -0.4813 -1.2563
  102MOL    H1120413   4.577   1.245   7.543 -0.2422 -0.3011 -0.9439
  102MOL    O1220414   4.648   1.521   0.159  0.1564 -0.4299 -0.0939
  102MOL    C1320415   4.578   1.436   0.255 -0.2921  0.3125  0.1689
  102MOL    C1420416   4.636   1.452   0.399  0.5006  0.0729 -0.1575
  102MOL    C1520417   4.600   1.337   0.496  0.2480  0.0047  0.0384
  102MOL    H1620418   4.591   1.332   0.228 -3.1660 -0.0480  0.0417
  102MOL    H1720419   4.473   1.462   0.250 -0.5811 -1.0983 -1.4766
  102MOL    H1820420   4.745   1.449   0.403  0.4551  0.3949  1.3693
  102MOL    H1920421   4.610   1.539   0.459  1.6647 -0.3282  0.9609
  102MOL    H2020422   4.654   1.355   0.589  0.6655  4.3847 -0.9133
  102MOL    H2120423   4.642   1.242   0.464  1.1176  0.5916 -0.5863
  102MOL    O2220424   4.460   1.342   0.519 -0.0524  0.0941  0.1545
  102MOL    C2320425   4.414   1.252   0.615  0.3127  0.0677  0.0672
  102MOL    C2420426   4.262   1.263   0.621 -0.0294 -0.3453  0.1357
  102MOL    C2520427   4.199   1.176   0.722 -0.0188 -0.1699  0.0878
  102MOL    H2620428   4.462   1.266   0.712  1.6115  0.5858 -0.6363
  102MOL    H2720429   4.430   1.150   0.583  1.0474 -0.4125  1.8894
  102MOL    H2820430   4.229   1.364   0.643  1.6738  0.2659 -0.0590
  102MOL    H2920431   4.223   1.240   0.522 -0.7432  0.8226  0.1418
  102MOL    H3020432   4.105   1.199   0.772  0.8099  1.8078  0.7452
  102MOL    H3120433   4.281   1.155   0.790 -0.2392 -1.0687  0.0843
  102MOL    O3220434   4.165   1.067   0.639  0.2216  0.7695  0.2971
  102MOL    C3320435   4.220   0.940   0.669 -0.2877 -0.7698 -0.5159
  102MOL    C3420436   4.143   0.832   0.592 -0.6440 -0.1239 -0.3606
  102MOL    C3520437   3.993   0.830   0.615  0.4113 -0.3807 -0.7450
  102MOL    H3620438   4.197   0.912   0.772  2.7383 -2.0759 -0.1266
  102MOL    H3720439   4.328   0.933   0.650 -0.1247  1.0291 -0.3337
  102MOL    H3820440   4.167   0.844   0.486  1.3689 -1.9482 -0.1368
  102MOL    H3920441   4.185   0.733   0.609  0.8638  0.0490 -2.8043
  102MOL    H4020442   3.960   0.932   0.597  1.1271 -0.4003 -2.2402
  102MOL    H4120443   3.975   0.802   0.718  1.9085  0.7447 -0.1636
  102MOL    O4220444   3.957   0.727   0.532 -0.3932 -0.2782  0.0418
  102MOL    C4320445   3.823   0.760   0.494  0.1201  0.1047 -0.3025
  102MOL    C4420446   3.746   0.642   0.440  0.2151  0.0802 -0.2481
  102MOL    C4520447   3.797   0.587   0.297  0.4914 -0.2170 -0.3223
  102MOL    H4620448   3.825   0.835   0.414  1.3325 -0.5261 -0.8789
  102MOL    H4720449   3.763   0.801   0.575  0.3051  2.0472 -1.1288
  102MOL    H4820450   3.757   0.566   0.518  1.0129  0.1171 -0.3205
  102MOL    H4920451   3.639   0.656   0.427 -0.0050 -2.2253 -1.1632
  102MOL    H5020452   3.904   0.565   0.306 -0.1289 -3.2359  0.0257
  102MOL    H5120453   3.770   0.661   0.222  0.3772 -0.9272 -0.9843
  102MOL    O5220454   3.734   0.466   0.262 -0.5450  0.6735 -0.1966
  102MOL    C5320455   3.777   0.410   0.139 -0.3548 -0.3043 -0.5890
  102MOL    C5420456   3.743   0.268   0.126  0.3307 -0.4034 -0.4177
  102MOL    C5520457   3.833   0.199   0.014  0.3034  0.1527  0.3829
  102MOL    H5620458   3.886   0.410   0.143 -0.4084  0.4122  2.5597
  102MOL    H5720459   3.746   0.480   0.062  0.5368  1.7070  0.8329
  102MOL    H5820460   3.765   0.211   0.217 -0.0187  0.8153  0.4373
  102MOL    H5920461   3.636   0.256   0.114  0.5590 -1.7959 -1.2021
  102MOL    H6020462   3.930   0.244   0.032  0.5292  1.3809 -3.4593
  102MOL    H6120463   3.786   0.219   7.706 -0.7652 -0.2655  0.8016
  102MOL    O6220464   3.839   0.066   0.047  0.3073 -0.3119 -0.1375
  102MOL    C6320465   3.917   7.785   7.733  0.5796  0.1048 -0.3872
  102MOL    C6420466   3.933   7.643   7.775  0.0824  0.5224  0.5757
  102MOL    C6520467   4.001   7.557   7.664  0.6328  0.1490  0.6006
  102MOL    H6620468   4.009   0.055   7.735  0.0730  0.8926  0.2233
  102MOL    H6720469   3.872   7.786   7.633  0.8322 -1.3163 -0.5194
  102MOL    H6820470   4.005   7.651   0.068  0.0722  0.9807  0.5388
  102MOL    H6920471   3.834   7.620   0.025 -0.1762  0.2978 -0.2132
  102MOL    H7020472   4.098   7.600   7.637  0.1765  1.3416  0.8346
  102MOL    H7120473   3.953   7.562   7.566  0.8424  0.6011  0.5166
  102MOL    O7220474   4.026   7.433   7.729 -0.0251  0.5076 -0.3281
  102MOL    C7320475   4.052   7.335   7.632  0.1135 -0.5172  0.3332
  102MOL    C7420476   4.060   7.209   7.713 -0.2556  0.5794  0.0884
  102MOL    C7520477   4.105   7.092   7.624  0.4050 -0.4836 -1.2620
  102MOL    H7620478   4.134   7.352   7.561 -1.0747 -0.0710 -0.9603
  102MOL    H7720479   3.972   7.329   7.559  0.8233 -1.2080 -0.3935
  102MOL    H7820480   4.123   7.227   0.011  1.1159  3.0086 -1.3517
  102MOL    H7920481   3.966   7.173   7.755 -0.0209  1.3999  1.3212
  102MOL    H8020482   4.200   7.119   7.577  1.6187  1.3121  2.0575
  102MOL    H8120483   4.030   7.087   7.544 -1.1287  1.4312  0.0298
  102MOL    O8220484   4.115   6.973   7.700  0.5202 -0.3308 -0.4038
  102MOL    C8320485   4.133   6.857   7.618 -0.0442  0.5619 -1.0588
  102MOL    C8420486   4.118   6.723   7.704 -0.0515 -0.1172  0.0574
  102MOL    C8520487   4.127   6.590   7.610  0.5548 -1.0477 -0.1972
  102MOL    H8620488   4.238   6.847   7.587  0.4539 -0.5326  0.9240
  102MOL    H8720489   4.065   6.850   7.533 -0.1151  0.3978 -0.9875
  102MOL    H8820490   4.192   6.716   7.784 -0.8590 -1.2240  0.7264
  102MOL    H8920491   4.018   6.720   7.748 -0.1138  1.0254 -0.0043
  102MOL    H9020492   4.113   6.492   7.655  0.0011 -0.2150  1.4757
  102MOL    H9120493   4.230   6.583   7.574  0.9057  0.5237  0.4497
  102MOL    O9220494   4.029   6.611   7.512 -0.5578  0.0852 -0.1962
  102MOL    C9320495   4.052   6.527   7.399 -0.3431 -0.2432 -0.1499
  102MOL    C9420496   3.916   6.528   7.324 -0.0517 -0.0823 -0.1977
  102MOL    C9520497   3.941   6.447   7.197 -0.1771 -0.6212  0.2179
  102MOL    H9620498   4.065   6.425   7.433  2.4950 -0.1570 -0.8697
  102MOL    H9720499   4.140   6.555   7.341 -0.0761 -3.1659 -1.2073
  102MOL    H9820500   3.828   6.495   7.379  0.1415  0.1334  0.2432
  102MOL    H9920501   3.874   6.627   7.304 -2.3424 -1.1867 -1.0645
  102MOL   H10020502   3.966   6.344   7.223  1.3730 -0.1903  0.5054
  102MOL   H10120503   4.029   6.492   7.150 -1.3978 -0.0315 -1.5854
  102MOL   O10220504   3.819   6.466   7.124 -0.1255  0.2688 -0.5051
  102MOL   C10320505   3.833   6.432   6.989 -0.4339  0.0134 -0.4029
  102MOL   C10420506   3.714   6.488   6.915 -0.0606  0.1752  0.8810
  102MOL   C10520507   3.729   6.633   6.869 -0.3472 -0.5587 -0.0674
  102MOL   H10620508   3.826   6.323   6.988 -2.5516  0.1357 -0.2552
  102MOL   H10720509   3.918   6.471   6.933 -1.6699 -1.0605 -3.0891
  102MOL   H10820510   3.686   6.440   6.821  1.1422  1.6546 -0.2630
  102MOL   H10920511   3.624   6.499   6.975 -0.1205  1.1329  0.6180
  102MOL   H11020512   3.822   6.659   6.820 -1.0765  0.1892 -1.0835
  102MOL   H11120513   3.730   6.690   6.962 -2.0775 -1.4874  0.5490
  102MOL   O11220514   3.606   6.657   6.799 -0.7976 -0.1778 -0.1926
  102MOL   C11320515   3.601   6.789   6.750 -0.1139  0.6969  0.7293
  102MOL   C11420516   3.504   6.790   6.629  0.0977 -0.5097  0.0058
  102MOL   C11520517   3.517   6.923   6.550  0.2454  0.3248 -0.5502
  102MOL   H11620518   3.700   6.816   6.713 -0.7726 -0.4632 -1.9820
  102MOL   H11720519   3.571   6.853   6.833 -2.3163 -0.2213  0.6810
  102MOL   H11820520   3.496   6.697   6.574 -0.3588 -0.6583  0.3220
  102MOL   H11920521   3.410   6.795   6.683 -0.3419 -0.4196 -0.7724
  102MOL   H12020522   3.515   7.005   6.622 -2.6264 -2.0188  2.1806
  102MOL   H12120523   3.440   6.942   6.475 -0.4503  1.4180  0.4214
  102MOL   O12220524   3.644   6.936   6.483 -0.7358 -0.0981 -0.4971
  102MOL   C12320525   3.658   7.050   6.399 -0.2389  0.4617 -0.2382
  102MOL   C12420526   3.647   7.181   6.480  0.1067 -0.3994  0.0438
  102MOL   C12520527   3.664   7.307   6.391  0.3378  0.2842  0.1921
  102MOL   H12620528   3.579   7.048   6.323 -0.3884 -1.4875 -0.0529
  102MOL   H12720529   3.759   7.040   6.360 -0.5503  0.8693 -1.1673
  102MOL   H12820530   3.556   7.191   6.540  0.9842 -0.6356  1.4324
  102MOL   H12920531   3.725   7.169   6.554 -0.0633 -0.7743  0.1634
  102MOL   H13020532   3.771   7.307   6.373 -0.0134 -1.8177 -2.1780
  102MOL   H13120533   3.641   7.390   6.458 -1.8665 -0.8336  0.8715
  102MOL   O13220534   3.572   7.295   6.277 -0.5016 -0.1216 -0.3261
  102MOL   C13320535   3.552   7.419   6.210  0.3888  0.6064  0.1393
  102MOL   C13420536   3.454   7.396   6.098 -0.1939 -0.5970 -0.5086
  102MOL   C13520537   3.413   7.519   6.024  0.0437 -0.4182  0.0602
  102MOL   H13620538   3.645   7.459   6.169  0.5112 -1.3802 -1.5954
  102MOL   H13720539   3.522   7.497   6.281  0.5594  0.5450  0.2818
  102MOL   H13820540   3.503   7.329   6.028 -4.0576 -2.0903 -1.9466
  102MOL   H13920541   3.376   7.343   6.154 -0.8219 -0.3750 -1.1633
  102MOL   H14020542   3.509   7.569   6.010  1.1691 -3.0872 -2.2009
  102MOL   H14120543   3.348   7.577   6.088  1.6836  1.7170 -0.1526
  102MOL   O14220544   3.354   7.487   5.905 -0.7609  0.3717 -0.6267
  102MOL   C14320545   3.214   7.533   5.890  0.1657  0.1401 -0.3515
  102MOL   C14420546   3.169   7.476   5.758  0.4123  0.0525 -0.1078
  102MOL   C14520547   3.024   7.521   5.734  0.2967 -0.0539  0.1754
  102MOL   H14620548   3.202   7.641   5.878 -2.8534 -0.3344 -2.0305
  102MOL   H14720549   3.153   7.506   5.977 -0.7805 -0.1554 -1.1043
  102MOL   H14820550   3.226   7.516   5.675 -1.3191  2.3685 -0.2316
  102MOL   H14920551   3.183   7.368   5.760 -1.9891 -0.2570  1.8152
  102MOL   H15020552   3.037   7.629   5.720  1.8646 -0.4849 -1.8744
  102MOL   H15120553   2.965   7.516   5.826 -0.0007  0.3201  0.0053
  102MOL   O15220554   2.973   7.466   5.617  0.3983  0.6382 -0.0321
  102MOL   C15320555   3.053   7.501   5.505 -0.1357  0.0581 -0.4155
  102MOL   C15420556   2.969   7.479   5.380 -0.1268  0.6466 -0.9545
  102MOL   C15520557   3.068   7.473   5.261 -0.2460  0.4860 -0.6677
  102MOL   H15620558   3.148   7.448   5.498  0.8495  1.6561  0.3362
  102MOL   H15720559   3.078   7.608   5.504 -1.7526  0.4470  0.1085
  102MOL   H15820560   2.911   7.387   5.384 -0.4395  0.9103  1.0059
  102MOL   H15920561   2.906   7.566   5.357  0.4010  1.1933 -0.3411
  102MOL   H16020562   3.128   7.382   5.268  0.1761  0.5391 -3.2408
  102MOL   H16120563   3.133   7.560   5.252 -0.2882  0.4530 -1.3239
  102MOL   O16220564   2.986   7.472   5.141  0.3253 -0.7393 -0.0919
  102MOL   C16320565   3.072   7.484   5.029 -0.6310  0.5348 -0.3663
  102MOL   C16420566   2.986   7.495   4.902 -0.1806  0.5991 -0.2697
  102MOL   C16520567   3.070   7.489   4.775  0.3931 -0.0823 -0.0679
  102MOL   H16620568   3.145   7.404   5.023 -1.4132 -0.2739  0.7014
  102MOL   H16720569   3.128   7.576   5.045  1.2128 -0.3851 -1.3884
  102MOL   H16820570   2.907   7.419   4.896  1.0735 -0.7352 -0.0506
  102MOL   H16920571   2.930   7.588   4.891 -3.5616 -1.4707 -1.4105
  102MOL   H17020572   3.155   7.558   4.780 -0.5086  0.8875  2.4724
  102MOL   H17120573   3.013   7.508   4.684  2.4227 -2.5459 -1.9305
  102MOL   O17220574   3.132   7.364   4.760 -0.1098  0.2081  0.2071
  102MOL   C17320575   3.185   7.353   4.626 -0.3105 -0.3110 -0.5109
  102MOL   C17420576   3.236   7.206   4.621 -0.8789  0.4526 -0.0806
  102MOL   C17520577   3.319   7.185   4.495 -0.1216  0.6004  0.3841
  102MOL   H17620578   3.252   7.433   4.598  0.1236 -0.5770 -0.2293
  102MOL   H17720579   3.101   7.367   4.557 -0.5254  1.0727  0.0231
  102MOL   H17820580   3.295   7.180   4.709  1.6037  0.9915 -1.5280
  102MOL   H17920581   3.147   7.145   4.608 -0.4436 -0.2012 -0.0025
  102MOL   H18020582   3.265   7.239   4.417  0.5314 -1.4766 -1.5504
  102MOL   H18120583   3.340   7.083   4.463  0.6730  1.3522 -1.5574
  102MOL   O18220584   3.440   7.252   4.508 -0.1752  0.3881 -0.8561
  102MOL   C18320585   3.520   7.234   4.388  0.2494 -0.1295 -0.3459
  102MOL   C18420586   3.645   7.327   4.386  0.2258 -0.0780 -0.5829
  102MOL   C18520587   3.706   7.347   4.242  0.1081  0.6130  0.5778
  102MOL   H18620588   3.463   7.263   4.300  0.6195 -2.2869 -1.3257
  102MOL   H18720589   3.559   7.135   4.362 -1.5607 -0.5133 -1.6709
  102MOL   H18820590   3.622   7.415   4.446 -2.1271  0.0289 -1.5924
  102MOL   H18920591   3.728   7.280   4.438  0.6159 -1.2009 -2.1756
  102MOL   H19020592   3.729   7.250   4.197 -1.2622  0.5460 -0.0103
  102MOL   H19120593   3.798   7.402   4.260  0.3383  0.3726  0.1475
  102MOL   O19220594   3.621   7.418   4.157  0.5768  0.8554  0.5445
  102MOL   C19320595   3.682   7.496   4.056  0.6199 -0.4364  0.5398
  102MOL   C19420596   3.569   7.551   3.964  0.0692  0.7833 -0.2399
  102MOL   C19520597   3.486   7.440   3.901  0.0991  0.6638  0.4169
  102MOL   H19620598   3.761   7.443   4.003  0.1341  0.6457 -1.2832
  102MOL   H19720599   3.732   7.580   4.104  0.6355  0.1703 -0.5341
  102MOL   H19820600   3.488   7.601   4.016 -4.1867 -3.6732 -2.1070
  102MOL   H19920601   3.607   7.616   3.885  0.3317  0.5051 -0.3471
  102MOL   H20020602   3.436   7.376   3.973 -1.3179  0.0016 -1.1211
  102MOL   H20120603   3.544   7.373   3.837 -1.1861 -1.0062  0.9771
  102MOL   H20220604   3.406   7.486   3.844 -1.2200  1.1111  2.5995
  103MOL     O120605   1.519   3.964   2.303 -0.5681 -0.3146  0.4176
  103MOL     C220606   1.524   4.008   2.166 -0.5102  0.4626 -0.0610
  103MOL     C320607   1.535   3.889   2.070 -0.1085  0.0871  0.2725
  103MOL     C420608   1.575   3.924   1.927  0.1304 -0.1066 -0.6195
  103MOL     H520609   1.613   4.070   2.155  0.6698 -1.2814 -0.5670
  103MOL     H620610   1.439   4.074   2.148  1.1780  2.6304 -0.3494
  103MOL     H720611   1.616   3.828   2.110 -1.7595 -2.2415  0.1609
  103MOL     H820612   1.441   3.835   2.077 -0.3284  0.3008 -0.8469
  103MOL     H920613   1.605   3.838   1.868 -1.3996 -1.6343  0.7988
  103MOL    H1020614   1.655   3.998   1.931 -0.6011  0.6445  0.5706
  103MOL    H1120615   1.486   3.876   2.299 -0.9684 -0.1993  1.2032
  103MOL    O1220616   1.469   3.993   1.859 -0.3274  0.0767  0.1478
  103MOL    C1320617   1.487   3.994   1.722  0.3741  0.4514  0.4552
  103MOL    C1420618   1.372   4.074   1.658  0.1315 -0.5418  0.2210
  103MOL    C1520619   1.384   4.224   1.689 -0.3482  0.4121  0.7719
  103MOL    H1620620   1.490   3.892   1.684  0.0483  0.9375 -0.8974
  103MOL    H1720621   1.581   4.047   1.706  1.5067 -0.9636  2.2659
  103MOL    H1820622   1.380   4.067   1.549  1.6083 -0.9195  0.3383
  103MOL    H1920623   1.277   4.036   1.694 -0.5387  1.4223  0.5699
  103MOL    H2020624   1.468   4.261   1.629 -0.5470 -0.9352 -0.3864
  103MOL    H2120625   1.407   4.242   1.793 -0.5892  1.1856  0.6880
  103MOL    O2220626   1.256   4.271   1.661 -0.0884 -0.2937 -0.4233
  103MOL    C2320627   1.255   4.412   1.703  0.9276 -0.1930  0.2731
  103MOL    C2420628   1.156   4.489   1.619  0.1202  0.2474  0.3399
  103MOL    C2520629   1.138   4.639   1.652  0.6531  0.6217  0.0352
  103MOL    H2620630   1.348   4.455   1.665 -0.2308  0.4198 -1.9540
  103MOL    H2720631   1.243   4.422   1.811 -0.7990  2.0829 -0.0815
  103MOL    H2820632   1.196   4.482   1.518 -0.4978  1.0877  0.0355
  103MOL    H2920633   1.057   4.444   1.627 -0.6056  2.1554  2.8478
  103MOL    H3020634   1.234   4.688   1.665  0.3293  1.2897 -0.1027
  103MOL    H3120635   1.091   4.651   1.749 -0.6666  0.9068 -0.6323
  103MOL    O3220636   1.051   4.697   1.559  0.1555 -0.4618  0.4558
  103MOL    C3320637   1.016   4.821   1.607  0.3732 -0.2557  0.3411
  103MOL    C3420638   0.901   4.882   1.524 -0.1302 -0.3978  0.1008
  103MOL    C3520639   0.894   5.031   1.529 -0.9455 -0.2931 -0.3264
  103MOL    H3620640   1.102   4.887   1.596 -0.1867  0.6359  1.2131
  103MOL    H3720641   0.985   4.846   1.708  0.3522 -0.9197  0.4989
  103MOL    H3820642   0.929   4.862   1.421  0.5720 -1.7332  0.5439
  103MOL    H3920643   0.805   4.838   1.552 -1.1256  1.2313 -0.7174
  103MOL    H4020644   0.867   5.065   1.628  0.0480  2.9238 -1.1179
  103MOL    H4120645   0.805   5.068   1.478 -0.5958  1.5071  0.3548
  103MOL    O4220646   1.016   5.100   1.494 -0.1303 -0.8092 -0.0169
  103MOL    C4320647   1.008   5.244   1.483  0.1445 -0.2169 -0.2623
  103MOL    C4420648   1.150   5.290   1.428 -0.0396 -0.0002  0.6974
  103MOL    C4520649   1.168   5.442   1.400 -0.3246  0.1482 -0.0970
  103MOL    H4620650   0.974   5.290   1.576  0.8619  0.0767 -0.1446
  103MOL    H4720651   0.925   5.279   1.421  1.1912  0.5839 -1.2316
  103MOL    H4820652   1.225   5.278   1.506  0.5118  2.3755  0.5799
  103MOL    H4920653   1.176   5.235   1.338 -0.8422  1.4245 -0.4159
  103MOL    H5020654   1.133   5.501   1.485  0.0894  0.5447 -0.2025
  103MOL    H5120655   1.123   5.478   1.308 -2.7829 -0.2576  0.9028
  103MOL    O5220656   1.308   5.470   1.393 -0.4734  0.6092  0.0154
  103MOL    C5320657   1.343   5.603   1.368  0.2831  0.3640  0.3955
  103MOL    C5420658   1.497   5.627   1.356  0.1511  0.1428  0.1407
  103MOL    C5520659   1.542   5.771   1.356 -0.1368  0.3921  0.2774
  103MOL    H5620660   1.312   5.657   1.457  0.9087 -1.0516  1.4951
  103MOL    H5720661   1.299   5.651   1.281 -0.8416 -2.1207 -0.4691
  103MOL    H5820662   1.548   5.577   1.438  0.7984 -1.1085 -1.0154
  103MOL    H5920663   1.543   5.580   1.269 -1.9596  1.7748 -1.9166
  103MOL    H6020664   1.509   5.813   1.452 -2.9057 -1.8148  0.3459
  103MOL    H6120665   1.499   5.827   1.273  2.3969 -2.0212 -2.7409
  103MOL    O6220666   1.680   5.777   1.368 -0.3068 -0.2327 -0.1747
  103MOL    C6320667   1.730   5.903   1.350  0.4209  0.0761 -0.1598
  103MOL    C6420668   1.881   5.902   1.340  0.7271 -0.3159 -0.2591
  103MOL    C6520669   1.952   5.876   1.472  0.4636  0.0346 -0.3951
  103MOL    H6620670   1.701   5.978   1.424  2.0731  0.1486  0.4176
  103MOL    H6720671   1.683   5.950   1.263 -0.1368 -0.9958 -0.4398
  103MOL    H6820672   1.906   5.823   1.269 -1.6957  0.1557 -1.6835
  103MOL    H6920673   1.915   5.997   1.299 -0.9254 -0.8579 -2.9809
  103MOL    H7020674   1.931   5.775   1.507  2.6527 -0.2163  0.2996
  103MOL    H7120675   1.920   5.938   1.555  0.9629 -0.9547  0.5591
  103MOL    O7220676   2.084   5.887   1.429  0.3973  0.0243  0.2023
  103MOL    C7320677   2.174   5.852   1.532  0.7599  0.2066 -0.4224
  103MOL    C7420678   2.318   5.844   1.478  0.3152  0.6222  0.2593
  103MOL    C7520679   2.419   5.801   1.583  0.2961 -0.1916 -0.1418
  103MOL    H7620680   2.152   5.750   1.563  1.2322  0.0460 -0.6135
  103MOL    H7720681   2.168   5.933   1.605  0.3997  0.6645 -0.9501
  103MOL    H7820682   2.321   5.771   1.396 -2.0507  2.2920 -1.3724
  103MOL    H7920683   2.346   5.941   1.437  2.1568  0.7485  1.7654
  103MOL    H8020684   2.400   5.695   1.593 -1.6684 -0.0032 -1.6134
  103MOL    H8120685   2.397   5.842   1.682  0.7944  0.3883 -0.2646
  103MOL    O8220686   2.551   5.814   1.534 -0.3380  0.1896  0.2856
  103MOL    C8320687   2.647   5.721   1.587  0.2345 -0.2960  1.4972
  103MOL    C8420688   2.680   5.615   1.482 -0.0006 -0.2127  0.2689
  103MOL    C8520689   2.783   5.519   1.544 -0.5647 -0.4067  0.1591
  103MOL    H8620690   2.613   5.680   1.681  0.0919 -1.8914  0.7596
  103MOL    H8720691   2.728   5.780   1.631  0.7362 -0.0544  0.2779
  103MOL    H8820692   2.579   5.581   1.459 -1.1977  3.5119 -0.2687
  103MOL    H8920693   2.720   5.665   1.394  1.1304  0.7113  1.2853
  103MOL    H9020694   2.754   5.478   1.642  0.7139 -1.0888  0.2629
  103MOL    H9120695   2.881   5.560   1.568 -0.9223  0.7954 -0.4405
  103MOL    O9220696   2.812   5.407   1.458  0.1080 -0.4611 -0.1925
  103MOL    C9320697   2.908   5.314   1.517  0.0884  0.4252 -0.2373
  103MOL    C9420698   2.922   5.181   1.440  0.2071  0.5555 -0.1260
  103MOL    C9520699   2.809   5.086   1.436 -0.7674 -0.1320  0.3705
  103MOL    H9620700   2.887   5.300   1.623 -0.4824  0.1386 -0.3863
  103MOL    H9720701   3.007   5.360   1.518 -0.0693  0.7883  2.3619
  103MOL    H9820702   2.941   5.196   1.334  0.1790 -1.8602 -0.4993
  103MOL    H9920703   3.014   5.132   1.471  0.5234  1.0380 -0.2900
  103MOL   H10020704   2.718   5.131   1.397  1.3186  2.6167 -1.4565
  103MOL   H10120705   2.795   5.063   1.542 -0.4168 -0.7850  0.2790
  103MOL   O10220706   2.843   4.973   1.347  0.0502  0.7165 -0.7784
  103MOL   C10320707   2.745   4.870   1.352 -0.3406 -0.0240  0.2251
  103MOL   C10420708   2.787   4.763   1.254 -1.4628 -0.0742  0.4918
  103MOL   C10520709   2.674   4.663   1.222 -0.1161 -0.3919 -0.4217
  103MOL   H10620710   2.649   4.915   1.324 -2.4767 -0.3235  6.2368
  103MOL   H10720711   2.731   4.841   1.456 -0.5082  2.8280  1.0597
  103MOL   H10820712   2.814   4.808   1.159 -0.9200  2.9880  2.0075
  103MOL   H10920713   2.879   4.711   1.281 -0.2578  1.5369 -0.4074
  103MOL   H11020714   2.711   4.592   1.148 -0.6012  0.6766 -1.7008
  103MOL   H11120715   2.597   4.725   1.177 -0.9964 -2.2800 -1.5341
  103MOL   O11220716   2.614   4.583   1.322 -0.2945  0.3523 -0.2510
  103MOL   C11320717   2.675   4.462   1.352 -0.1249 -0.8056 -0.0191
  103MOL   C11420718   2.590   4.391   1.462  0.4539 -0.0840  0.5146
  103MOL   C11520719   2.449   4.387   1.402  0.3486 -0.1071  0.0639
  103MOL   H11620720   2.773   4.487   1.391 -0.8274  1.6729  0.2707
  103MOL   H11720721   2.679   4.397   1.265  1.0127  2.1014 -2.2050
  103MOL   H11820722   2.631   4.291   1.463 -0.3121 -0.4489 -1.8042
  103MOL   H11920723   2.600   4.433   1.562  1.3904  0.6001  0.1416
  103MOL   H12020724   2.447   4.365   1.295 -0.6062 -0.7774  0.2127
  103MOL   H12120725   2.405   4.485   1.421  1.0607  0.5762 -1.6823
  103MOL   O12220726   2.377   4.294   1.483  0.5160  0.0379 -0.9515
  103MOL   C12320727   2.387   4.159   1.452  0.1353 -0.1260  0.1444
  103MOL   C12420728   2.301   4.082   1.559  0.1225  0.4389 -0.1170
  103MOL   C12520729   2.365   4.087   1.697 -0.1916 -0.5044  0.1704
  103MOL   H12620730   2.489   4.121   1.447 -0.0799 -0.6568 -0.2810
  103MOL   H12720731   2.339   4.133   1.357 -0.9430 -1.5746  1.0655
  103MOL   H12820732   2.202   4.128   1.570 -0.0365 -0.2208  1.2814
  103MOL   H12920733   2.286   3.976   1.539 -3.3402  1.2733 -2.4248
  103MOL   H13020734   2.375   4.192   1.722 -1.2801 -0.0313 -1.3130
  103MOL   H13120735   2.461   4.036   1.689  0.1000  0.1621 -0.5699
  103MOL   O13220736   2.288   4.020   1.795 -0.3278  0.2530  0.3158
  103MOL   C13320737   2.370   3.992   1.911  0.6643 -0.4949  0.2447
  103MOL   C13420738   2.301   3.884   1.996 -0.1609  0.4251 -0.2191
  103MOL   C13520739   2.387   3.845   2.114  0.0438  0.2720  0.0447
  103MOL   H13620740   2.388   4.087   1.960  0.5243  0.2698 -1.1451
  103MOL   H13720741   2.470   3.956   1.885  0.6613 -0.2829 -0.0605
  103MOL   H13820742   2.199   3.918   2.014  0.2857  1.9996 -0.5910
  103MOL   H13920743   2.293   3.789   1.943  0.1626 -0.3062  1.0354
  103MOL   H14020744   2.420   3.931   2.172 -0.7722  1.1713 -0.8255
  103MOL   H14120745   2.487   3.810   2.085 -0.2887 -1.1415  0.5460
  103MOL   O14220746   2.331   3.744   2.196  0.2502 -0.1002 -0.9878
  103MOL   C14320747   2.243   3.799   2.306 -0.5215  1.5040  0.5161
  103MOL   C14420748   2.132   3.696   2.330 -0.5744 -0.4278  0.8777
  103MOL   C14520749   2.025   3.680   2.221  0.3729 -0.1018 -0.1785
  103MOL   H14620750   2.200   3.897   2.283 -1.3344  1.1708  0.5998
  103MOL   H14720751   2.305   3.807   2.395  2.0390 -1.6180 -0.8807
  103MOL   H14820752   2.176   3.598   2.346 -0.9563 -0.6116  0.7942
  103MOL   H14920753   2.086   3.740   2.419 -1.8765  1.8553 -0.8804
  103MOL   H15020754   2.064   3.694   2.120 -0.2236  1.5484 -0.1888
  103MOL   H15120755   1.960   3.766   2.239 -0.9669 -0.7198 -1.9106
  103MOL   O15220756   1.945   3.564   2.229 -0.5913  0.2132  0.5791
  103MOL   C15320757   1.887   3.523   2.107 -0.3494  1.0667 -0.6189
  103MOL   C15420758   1.803   3.405   2.149  0.0755  0.5860  0.0333
  103MOL   C15520759   1.724   3.342   2.032  0.0456 -0.1626 -0.1925
  103MOL   H15620760   1.961   3.503   2.029 -0.9573  1.1224 -1.2196
  103MOL   H15720761   1.825   3.597   2.057 -2.9862 -0.0602  0.8726
  103MOL   H15820762   1.864   3.324   2.189 -2.4863 -0.5677  1.7280
  103MOL   H15920763   1.743   3.447   2.230  0.8145  0.6823  0.5337
  103MOL   H16020764   1.798   3.301   1.964 -0.1017 -1.9828  0.6866
  103MOL   H16120765   1.667   3.422   1.986  2.5977  2.6665  1.4031
  103MOL   O16220766   1.654   3.234   2.088 -0.3274 -0.2981  0.0555
  103MOL   C16320767   1.557   3.176   2.003  0.3069  0.6483  0.1097
  103MOL   C16420768   1.508   3.043   2.066  0.7223 -0.0210 -0.1086
  103MOL   C16520769   1.372   3.071   2.150 -0.3995 -0.1376 -0.5256
  103MOL   H16620770   1.604   3.163   1.905 -0.3229  1.2789 -0.2756
  103MOL   H16720771   1.472   3.240   1.984 -0.5846 -1.2836 -2.9391
  103MOL   H16820772   1.489   2.972   1.986 -2.4792  0.6244  0.0178
  103MOL   H16920773   1.577   2.988   2.130  1.3329  1.9801  1.0295
  103MOL   H17020774   1.390   3.153   2.220 -0.6928  0.1206 -0.7523
  103MOL   H17120775   1.349   2.974   2.194  0.1453  0.3258  0.7923
  103MOL   O17220776   1.269   3.099   2.059 -0.5330  0.1309 -0.7871
  103MOL   C17320777   1.140   3.105   2.116 -0.1522 -0.4897  0.3936
  103MOL   C17420778   1.081   3.222   2.040  0.9624  0.0222 -0.7218
  103MOL   C17520779   0.939   3.259   2.100 -0.8780  0.1497 -0.0427
  103MOL   H17620780   1.138   3.140   2.220 -2.1272 -2.4040  1.0634
  103MOL   H17720781   1.081   3.014   2.102  1.9777 -1.7278 -0.6148
  103MOL   H17820782   1.136   3.316   2.050  0.4161  0.1623  1.3111
  103MOL   H17920783   1.068   3.182   1.940 -0.0130 -0.1784 -0.5213
  103MOL   H18020784   0.951   3.280   2.206 -2.0887  0.5831  0.0105
  103MOL   H18120785   0.868   3.176   2.100 -1.4177  0.5471 -2.5666
  103MOL   O18220786   0.886   3.371   2.036  0.3725  0.3097  0.6013
  103MOL   C18320787   0.747   3.391   2.053 -0.3921  0.1566 -0.5784
  103MOL   C18420788   0.697   3.485   1.943  0.5349 -0.0016  0.3950
  103MOL   C18520789   0.548   3.527   1.951  0.2436  0.2718 -0.0962
  103MOL   H18620790   0.713   3.414   2.154  0.2499  1.0807 -0.5690
  103MOL   H18720791   0.694   3.298   2.033 -1.2292  1.3234 -4.3267
  103MOL   H18820792   0.757   3.574   1.958  0.4260 -0.1521  1.7936
  103MOL   H18920793   0.727   3.440   1.849  1.9837 -0.2762  0.9725
  103MOL   H19020794   0.527   3.590   2.037  0.3252  0.9714 -0.5846
  103MOL   H19120795   0.479   3.443   1.952 -0.1440  0.5991  0.5337
  103MOL   O19220796   0.506   3.604   1.837 -0.8229  0.6410  0.2245
  103MOL   C19320797   0.374   3.658   1.849 -0.6891  0.0973  0.8540
  103MOL   C19420798   0.321   3.734   1.725  0.1276 -0.7339 -0.6945
  103MOL   C19520799   0.190   3.813   1.757 -0.1738 -0.6484  0.2567
  103MOL   H19620800   0.372   3.728   1.933 -0.3613  0.4961  0.5297
  103MOL   H19720801   0.301   3.581   1.873  1.1910 -2.1178 -0.3265
  103MOL   H19820802   0.392   3.814   1.703  1.2797 -1.1480  1.3086
  103MOL   H19920803   0.311   3.671   1.636  1.0667 -1.3622 -0.3655
  103MOL   H20020804   0.158   3.868   1.668 -0.7847  0.1025  0.9389
  103MOL   H20120805   0.206   3.880   1.841 -3.2339  0.3750  0.0725
  103MOL   H20220806   0.114   3.738   1.781 -0.0287 -1.2191 -1.0005
  104MOL     O120807   1.567   5.692   0.695  0.5892 -0.1412  0.0081
  104MOL     C220808   1.446   5.624   0.699  0.1117 -0.5281 -0.4725
  104MOL     C320809   1.411   5.584   0.567 -0.4151 -0.1019  0.1188
  104MOL     C420810   1.289   5.482   0.561 -0.4549 -0.2249 -0.1309
  104MOL     H520811   1.374   5.688   0.751 -1.0109 -1.5039 -0.7962
  104MOL     H620812   1.463   5.536   0.760 -0.1632  0.0606  0.4614
  104MOL     H720813   1.385   5.666   0.499  2.1582  0.7038  0.0558
  104MOL     H820814   1.497   5.536   0.519  0.1363  1.5877 -0.6328
  104MOL     H920815   1.296   5.404   0.637  0.5820  0.4926  0.5159
  104MOL    H1020816   1.296   5.424   0.469 -1.0906 -2.0154  0.9235
  104MOL    H1120817   1.604   5.694   0.782  3.5865  0.1500 -1.1978
  104MOL    O1220818   1.167   5.549   0.574 -0.5122 -0.7781 -0.1479
  104MOL    C1320819   1.060   5.465   0.544  0.0890 -0.4297  0.4717
  104MOL    C1420820   0.939   5.555   0.550  0.2166 -0.1205  0.0421
  104MOL    C1520821   0.810   5.476   0.520 -0.7363  0.2238  1.1629
  104MOL    H1620822   1.053   5.393   0.625  1.5457 -0.1812  0.8342
  104MOL    H1720823   1.064   5.421   0.444  3.5659  0.9961 -0.0998
  104MOL    H1820824   0.937   5.603   0.648  1.7052  1.3200 -0.6085
  104MOL    H1920825   0.938   5.637   0.478 -0.5343  1.0260  1.3282
  104MOL    H2020826   0.843   5.436   0.424  1.7345  3.8536  0.4084
  104MOL    H2120827   0.723   5.543   0.513 -0.7578  0.0397 -0.7719
  104MOL    O2220828   0.793   5.386   0.625 -0.0788  0.0456  0.3002
  104MOL    C2320829   0.725   5.274   0.579  0.1455  0.3941  0.2883
  104MOL    C2420830   0.639   5.208   0.692  0.5985 -0.4987  0.3975
  104MOL    C2520831   0.571   5.075   0.647  0.7786  0.0413  0.3777
  104MOL    H2620832   0.803   5.208   0.541  0.0741 -1.0951  2.6053
  104MOL    H2720833   0.660   5.303   0.497  2.4120  0.2904 -1.5807
  104MOL    H2820834   0.708   5.179   0.772 -0.6871 -0.4418  1.5355
  104MOL    H2920835   0.576   5.280   0.743  2.0807  0.8432  0.3997
  104MOL    H3020836   0.514   5.030   0.729 -1.3491 -0.8244 -1.5079
  104MOL    H3120837   0.641   4.996   0.621 -0.7114 -0.8457 -1.0377
  104MOL    O3220838   0.496   5.105   0.527 -0.2367  0.0330 -0.0865
  104MOL    C3320839   0.421   4.988   0.475  0.1994 -0.6540  0.0350
  104MOL    C3420840   0.380   5.008   0.326 -0.3069  0.6430 -0.1371
  104MOL    C3520841   0.267   5.106   0.320  0.1043 -0.3129  0.0561
  104MOL    H3620842   0.329   4.979   0.533 -0.0501  1.9660  0.1031
  104MOL    H3720843   0.487   4.903   0.490  0.5077 -0.2307  1.1051
  104MOL    H3820844   0.466   5.045   0.270  0.2254 -1.8396 -1.0197
  104MOL    H3920845   0.358   4.910   0.283 -1.4934  1.5160 -1.5731
  104MOL    H4020846   0.309   5.205   0.338 -3.4367  1.5449 -1.2544
  104MOL    H4120847   0.186   5.093   0.392 -1.3393  1.7770 -1.1202
  104MOL    O4220848   0.205   5.105   0.186  0.4148  0.0397 -0.7727
  104MOL    C4320849   0.089   5.175   0.174  0.1265  0.6788 -0.4934
  104MOL    C4420850   0.017   5.148   0.041  0.0597 -0.2861  0.2501
  104MOL    C4520851   7.666   5.234   0.034  1.0787  0.0842  0.0309
  104MOL    H4620852   0.110   5.281   0.181  3.9560 -0.0091 -0.4713
  104MOL    H4720853   0.024   5.139   0.253 -1.4867 -0.3405 -2.2299
  104MOL    H4820854   0.094   5.167   7.753 -0.1839  0.9818  0.3085
  104MOL    H4920855   7.779   5.044   0.022  0.5806 -0.4663  0.5022
  104MOL    H5020856   7.677   5.342   0.043  0.4069  0.0293  1.6727
  104MOL    H5120857   7.625   5.207   0.131  0.3926  0.9119 -0.0200
  104MOL    O5220858   7.578   5.190   7.722  0.4751 -0.4381  0.2451
  104MOL    C5320859   7.446   5.234   7.741  0.3918  0.0664 -0.3742
  104MOL    C5420860   7.354   5.116   7.763 -0.5085  0.2297 -0.2373
  104MOL    C5520861   7.203   5.138   7.772  0.8882 -1.4970  0.0320
  104MOL    H5620862   7.422   5.296   7.655 -2.3729  0.1646  0.4221
  104MOL    H5720863   7.438   5.303   0.036  0.9868  1.4791 -1.4799
  104MOL    H5820864   7.381   5.049   7.682 -0.7380  1.0647 -1.0013
  104MOL    H5920865   7.374   5.066   0.070  0.8460 -0.7579 -1.0336
  104MOL    H6020866   7.167   5.210   0.058  1.8017  1.1165 -1.9655
  104MOL    H6120867   7.164   5.039   0.005 -1.2215 -0.6433  0.2909
  104MOL    O6220868   7.150   5.186   7.646 -0.0097 -0.4389  0.0176
  104MOL    C6320869   7.007   5.208   7.647 -0.1528  0.4111  1.3156
  104MOL    C6420870   6.972   5.254   7.509 -0.1637  0.5375 -1.3212
  104MOL    C6520871   6.838   5.322   7.497  0.4854  0.2074 -0.2714
  104MOL    H6620872   6.980   5.282   7.723 -0.7002  0.7868  0.7584
  104MOL    H6720873   6.949   5.116   7.662  1.0104 -0.6270 -0.4298
  104MOL    H6820874   7.050   5.318   7.467  1.7240 -0.9649 -0.2020
  104MOL    H6920875   6.985   5.172   7.439  0.1070  1.2602 -2.1223
  104MOL    H7020876   6.819   5.360   7.597  3.2066  0.7325  0.0840
  104MOL    H7120877   6.761   5.251   7.469  1.6216 -1.0354 -0.2860
  104MOL    O7220878   6.857   5.416   7.394 -0.4229 -0.0244 -0.1394
  104MOL    C7320879   6.788   5.540   7.420  0.1870  0.4340 -0.0443
  104MOL    C7420880   6.791   5.621   7.284  0.3540  0.3307 -0.1530
  104MOL    C7520881   6.678   5.571   7.185 -0.3478 -0.3141 -0.1097
  104MOL    H7620882   6.830   5.594   7.505 -1.0989 -2.6181  2.6666
  104MOL    H7720883   6.687   5.511   7.450  1.1200 -0.9508  1.8466
  104MOL    H7820884   6.771   5.726   7.304 -1.1002  0.0121  0.1300
  104MOL    H7920885   6.886   5.606   7.233  1.1880  0.1326  1.4153
  104MOL    H8020886   6.577   5.562   7.226 -0.1373  2.2254  1.0902
  104MOL    H8120887   6.704   5.474   7.142 -0.2329 -0.3475  0.0329
  104MOL    O8220888   6.679   5.655   7.078 -0.0013 -0.0350 -0.4927
  104MOL    C8320889   6.549   5.721   7.044 -0.1837  0.4405 -0.0175
  104MOL    C8420890   6.576   5.843   6.955  0.3086 -0.4574  1.1252
  104MOL    C8520891   6.625   5.816   6.812 -0.2138 -0.0555 -0.6363
  104MOL    H8620892   6.512   5.755   7.141 -0.9792 -0.8859  0.1658
  104MOL    H8720893   6.487   5.640   7.006 -0.4282  0.3922  0.4758
  104MOL    H8820894   6.478   5.890   6.942  1.6785  2.4181  0.7058
  104MOL    H8920895   6.645   5.913   7.002  0.6694  0.5413 -0.8553
  104MOL    H9020896   6.560   5.735   6.779  0.8821 -1.2320  0.0431
  104MOL    H9120897   6.726   5.777   6.824 -0.9893 -1.5852  1.0622
  104MOL    O9220898   6.614   5.931   6.727 -0.1904  0.2444  0.2548
  104MOL    C9320899   6.730   5.934   6.634 -0.6102  0.0779 -0.3598
  104MOL    C9420900   6.722   6.042   6.529 -0.4709 -0.7259 -0.9828
  104MOL    C9520901   6.721   6.179   6.595 -0.7014 -0.4834 -0.0796
  104MOL    H9620902   6.731   5.835   6.588 -2.3525 -0.2405  0.2336
  104MOL    H9720903   6.824   5.953   6.686  0.1865  1.9938 -2.4218
  104MOL    H9820904   6.799   6.015   6.457  0.3917  0.0750 -0.3722
  104MOL    H9920905   6.630   6.030   6.471  0.0452  0.6857 -2.1466
  104MOL   H10020906   6.730   6.171   6.703  0.5209  1.1949 -0.0283
  104MOL   H10120907   6.627   6.228   6.570  0.1644  1.8344  1.0891
  104MOL   O10220908   6.826   6.260   6.549 -0.1787 -0.1514 -0.0531
  104MOL   C10320909   6.835   6.381   6.613  0.3341  0.6701 -0.7926
  104MOL   C10420910   6.959   6.461   6.572  0.0688 -0.4616  0.5917
  104MOL   C10520911   6.986   6.475   6.416  0.5411  0.5749  0.0187
  104MOL   H10620912   6.807   6.361   6.716 -1.8708  1.3213 -1.2398
  104MOL   H10720913   6.747   6.437   6.580 -0.0609 -0.4522 -1.6546
  104MOL   H10820914   6.965   6.563   6.611  1.8941 -0.0319 -0.7749
  104MOL   H10920915   7.044   6.414   6.622 -0.7494 -3.3491 -0.6323
  104MOL   H11020916   6.895   6.495   6.359  0.4092 -2.1068 -0.7713
  104MOL   H11120917   7.020   6.380   6.376  0.8207 -0.2955  2.2501
  104MOL   O11220918   7.100   6.559   6.396  0.0749 -0.7317 -0.0216
  104MOL   C11320919   7.083   6.668   6.304 -0.3052  0.7287  0.0122
  104MOL   C11420920   7.061   6.624   6.152 -0.5165 -0.4568  0.3936
  104MOL   C11520921   7.044   6.756   6.072 -0.1525  0.2550  0.3176
  104MOL   H11620922   7.165   6.738   6.315  0.0150  0.6365 -1.7041
  104MOL   H11720923   6.996   6.718   6.347  0.0431  0.3858  1.1410
  104MOL   H11820924   7.143   6.574   6.102  0.9286  1.5033  0.7189
  104MOL   H11920925   6.972   6.563   6.138 -0.2957 -0.9533  1.1613
  104MOL   H12020926   7.117   6.833   6.099  0.8039 -0.3919 -0.3611
  104MOL   H12120927   6.948   6.801   6.094 -0.3794  0.0638 -0.2795
  104MOL   O12220928   7.050   6.734   5.932 -0.4640  0.2490 -0.3864
  104MOL   C12320929   7.003   6.841   5.858  0.1259 -0.3850  0.6334
  104MOL   C12420930   7.097   6.864   5.739 -0.2333 -0.2404  0.1389
  104MOL   C12520931   7.240   6.899   5.780 -0.0862  0.2201 -0.4132
  104MOL   H12620932   7.009   6.931   5.918 -3.8423  1.1493 -1.0869
  104MOL   H12720933   6.901   6.814   5.830  0.2787 -0.5042  0.1754
  104MOL   H12820934   7.099   6.772   5.681  2.0393  0.2020 -0.5446
  104MOL   H12920935   7.051   6.936   5.671  1.0355 -1.1980 -1.7810
  104MOL   H13020936   7.287   6.823   5.843  1.7638  1.9612  0.3622
  104MOL   H13120937   7.245   6.991   5.838  1.5648 -0.3400  0.3738
  104MOL   O13220938   7.312   6.919   5.656  0.8161 -0.2235 -0.4014
  104MOL   C13320939   7.455   6.950   5.665 -0.5357 -0.9101 -0.7746
  104MOL   C13420940   7.514   6.958   5.518  0.5229  0.3597  0.1730
  104MOL   C13520941   7.467   7.078   5.429  0.1997  0.1753  0.3825
  104MOL   H13620942   7.508   6.875   5.724  0.3040 -0.7560 -1.3223
  104MOL   H13720943   7.472   7.042   5.721 -1.9813 -1.6764  0.9676
  104MOL   H13820944   7.622   6.972   5.521  0.6158 -0.3872  0.3096
  104MOL   H13920945   7.502   6.866   5.461  0.4471  0.6237 -0.2356
  104MOL   H14020946   7.527   7.163   5.460 -0.5058  1.1392 -0.8256
  104MOL   H14120947   7.360   7.100   5.434  0.0979  0.1310 -1.2854
  104MOL   O14220948   7.499   7.052   5.299 -0.1065 -0.3117  0.3839
  104MOL   C14320949   7.396   6.979   5.227 -0.0669  0.0140  0.7340
  104MOL   C14420950   7.422   6.957   5.079  0.1958 -0.0330  1.0206
  104MOL   C14520951   7.295   6.947   4.995  0.4021  0.4353 -0.7920
  104MOL   H14620952   7.313   7.050   5.232 -1.2367 -1.4113  2.3899
  104MOL   H14720953   7.366   6.884   5.272 -0.9470 -0.5316 -0.9945
  104MOL   H14820954   7.486   7.038   5.046  2.0496 -0.4382  3.4990
  104MOL   H14920955   7.480   6.872   5.042  1.0118  2.0225 -2.6690
  104MOL   H15020956   7.323   6.972   4.893  0.4273  2.2629 -0.3635
  104MOL   H15120957   7.223   7.025   5.020  1.8256  2.2424 -2.1797
  104MOL   O15220958   7.233   6.819   5.003 -0.1513 -0.0620 -0.0863
  104MOL   C15320959   7.128   6.795   4.919 -0.4845  0.0721  0.6662
  104MOL   C15420960   7.143   6.653   4.855  0.0193 -0.4329 -0.4331
  104MOL   C15520961   7.033   6.629   4.756 -0.0423 -0.2157  0.5450
  104MOL   H15620962   7.122   6.869   4.839  0.6920 -2.4477 -1.8460
  104MOL   H15720963   7.037   6.788   4.979 -1.0555  1.6074  0.0031
  104MOL   H15820964   7.243   6.638   4.814 -0.2141 -3.2978 -0.1156
  104MOL   H15920965   7.135   6.575   4.932 -0.2583  0.8202  0.8194
  104MOL   H16020966   7.067   6.668   4.660 -3.9178  0.3082 -0.6688
  104MOL   H16120967   6.949   6.692   4.785  0.3235 -0.1478  1.5096
  104MOL   O16220968   6.997   6.486   4.744  0.1062 -0.3830  0.2175
  104MOL   C16320969   6.887   6.481   4.657 -0.1940  0.4297 -0.0481
  104MOL   C16420970   6.835   6.338   4.637 -0.1673 -0.4629  0.0317
  104MOL   C16520971   6.699   6.335   4.570 -0.0609  0.2029  0.4496
  104MOL   H16620972   6.916   6.504   4.555  1.1365  1.2404  0.5034
  104MOL   H16720973   6.810   6.554   4.682 -0.0317  0.9098 -0.9415
  104MOL   H16820974   6.913   6.276   4.593  2.4544  0.6554  2.9062
  104MOL   H16920975   6.813   6.288   4.732  2.8044  1.8725  2.0519
  104MOL   H17020976   6.712   6.361   4.466  0.2010 -1.7546 -0.0298
  104MOL   H17120977   6.628   6.400   4.622  0.2773  0.9791 -0.0585
  104MOL   O17220978   6.649   6.201   4.576  0.1377  0.1798  0.1063
  104MOL   C17320979   6.519   6.181   4.519 -0.5398 -0.1378 -0.2682
  104MOL   C17420980   6.471   6.041   4.523 -0.8111  0.3221 -0.1944
  104MOL   C17520981   6.326   6.014   4.475 -0.1503  0.2389  1.1934
  104MOL   H17620982   6.522   6.232   4.422 -0.0057 -0.0765 -0.2259
  104MOL   H17720983   6.448   6.246   4.569  0.4611  0.1520  0.7984
  104MOL   H17820984   6.541   5.980   4.464 -0.1392 -0.1017  1.0242
  104MOL   H17920985   6.476   6.006   4.626 -0.6597  1.8797  0.3453
  104MOL   H18020986   6.257   6.073   4.536  1.5044  0.2189  3.1526
  104MOL   H18120987   6.296   5.910   4.480  0.3375 -0.0919 -1.8910
  104MOL   O18220988   6.342   6.053   4.337 -0.1760 -0.5972 -0.5746
  104MOL   C18320989   6.217   6.043   4.270  0.3778  0.0083  0.0308
  104MOL   C18420990   6.234   6.139   4.155 -0.4964  0.4611  0.1525
  104MOL   C18520991   6.105   6.169   4.081  0.5850 -0.2538  0.4843
  104MOL   H18620992   6.140   6.068   4.343  3.1564 -1.9504  3.8388
  104MOL   H18720993   6.205   5.940   4.236  0.2813  0.1657 -0.4124
  104MOL   H18820994   6.285   6.230   4.188  1.4020 -0.7998  0.7543
  104MOL   H18920995   6.305   6.091   4.088 -0.6436  1.7170 -0.9341
  104MOL   H19020996   6.028   6.227   4.131  0.3340 -0.4071  0.2814
  104MOL   H19120997   6.069   6.072   4.047  1.6335 -0.0311 -1.3393
  104MOL   O19220998   6.136   6.234   3.962 -0.4614  0.3131  0.2845
  104MOL   C19320999   6.056   6.347   3.924 -0.0063 -0.4892 -0.1081
  104MOL   C19421000   6.093   6.381   3.773 -0.1184 -0.4962  0.2027
  104MOL   C19521001   5.988   6.449   3.691  0.9914  0.0929  0.2417
  104MOL   H19621002   6.066   6.437   3.985  0.7378 -0.2639 -0.5614
  104MOL   H19721003   5.954   6.308   3.923  0.2159 -1.3097  2.6644
  104MOL   H19821004   6.194   6.421   3.777 -0.5580  0.5054  2.3158
  104MOL   H19921005   6.122   6.291   3.719  0.5733 -0.1164 -0.0600
  104MOL   H20021006   5.975   6.551   3.724 -3.5037 -0.1442 -0.4510
  104MOL   H20121007   5.894   6.393   3.688  0.5647  0.8536 -0.5604
  104MOL   H20221008   6.035   6.451   3.592  0.2488  1.5703 -0.0974
  105MOL     O121009   0.283   2.850   0.547 -0.3789 -0.0043 -0.0153
  105MOL     C221010   0.394   2.766   0.528  0.3065 -0.0212 -0.7440
  105MOL     C321011   0.438   2.707   0.666 -0.3237 -0.5091 -0.4363
  105MOL     C421012   0.574   2.636   0.658  0.1320 -0.0876 -0.0606
  105MOL     H521013   0.479   2.820   0.485  1.5694 -1.4920 -0.1255
  105MOL     H621014   0.374   2.689   0.453 -0.5086 -1.2842  0.7427
  105MOL     H721015   0.441   2.790   0.736  0.1983 -1.7950  1.0970
  105MOL     H821016   0.361   2.636   0.698  1.3669 -1.4193  1.7719
  105MOL     H921017   0.570   2.549   0.592 -1.7711 -0.4675  0.5190
  105MOL    H1021018   0.604   2.594   0.754 -1.0801 -1.6631 -0.3494
  105MOL    H1121019   0.269   2.909   0.475  4.4822  2.1525  0.6293
  105MOL    O1221020   0.674   2.724   0.617 -0.0179  0.0979  0.0291
  105MOL    C1321021   0.794   2.660   0.566  0.1562 -0.0421 -0.9578
  105MOL    C1421022   0.803   2.651   0.407  0.0262 -0.1070  0.9006
  105MOL    C1521023   0.808   2.796   0.349 -0.0737 -0.6104 -0.9739
  105MOL    H1621024   0.809   2.557   0.601  1.0041  0.1729 -0.6802
  105MOL    H1721025   0.885   2.706   0.604  0.5006 -0.7337 -0.9368
  105MOL    H1821026   0.888   2.601   0.360  1.3855 -0.1365  3.3097
  105MOL    H1921027   0.708   2.612   0.370  0.4255  0.0071 -0.2777
  105MOL    H2021028   0.888   2.855   0.392  0.7308 -2.4694  0.1666
  105MOL    H2121029   0.724   2.847   0.395  2.1719  3.3300 -1.0221
  105MOL    O2221030   0.813   2.787   0.207  0.2400 -0.0414  0.0732
  105MOL    C2321031   0.796   2.912   0.149  0.2286 -0.3731  0.6538
  105MOL    C2421032   0.772   2.885   7.788 -0.1769 -0.3508 -0.3991
  105MOL    C2521033   0.691   2.998   7.719  0.7687 -0.1795 -0.0178
  105MOL    H2621034   0.878   2.983   0.160 -0.6479  1.0223 -1.4077
  105MOL    H2721035   0.706   2.962   0.185 -0.1117 -0.1779 -0.4488
  105MOL    H2821036   0.867   2.860   7.742 -0.1415  1.4942 -1.4018
  105MOL    H2921037   0.708   2.798   7.777 -0.6049  0.0560 -1.1994
  105MOL    H3021038   0.594   3.013   7.766  0.7330 -0.1524 -0.1000
  105MOL    H3121039   0.669   2.954   7.622  0.6134 -2.2185  0.9218
  105MOL    O3221040   0.767   3.116   7.704 -0.7477 -0.4809  0.0320
  105MOL    C3321041   0.748   3.160   7.572 -0.6669 -0.2736  0.2219
  105MOL    C3421042   0.832   3.282   7.539  0.2549 -0.5476 -0.5930
  105MOL    C3521043   0.784   3.361   7.410  0.1861  0.0844  0.3465
  105MOL    H3621044   0.642   3.170   7.552 -0.9215 -1.4233  0.9297
  105MOL    H3721045   0.781   3.082   7.504  1.0095 -1.4504  2.3135
  105MOL    H3821046   0.827   3.355   7.619 -0.5709 -0.3913 -0.7756
  105MOL    H3921047   0.933   3.242   7.533  0.9814  1.0863  0.7391
  105MOL    H4021048   0.686   3.402   7.437 -0.7995 -2.4033  0.7200
  105MOL    H4121049   0.766   3.302   7.321 -1.3725 -0.5760  1.0766
  105MOL    O4221050   0.866   3.476   7.386 -0.1798 -0.2873 -0.1792
  105MOL    C4321051   0.987   3.447   7.308  0.6959  0.2219  0.0921
  105MOL    C4421052   1.069   3.568   7.256 -0.1717 -0.2333  0.5023
  105MOL    C4521053   1.205   3.528   7.191 -0.0873  1.0579 -0.1742
  105MOL    H4621054   0.964   3.389   7.219 -1.0836  1.6500 -0.4188
  105MOL    H4721055   1.050   3.384   7.371  1.8291  1.2885  0.0311
  105MOL    H4821056   1.014   3.615   7.174  1.7143 -3.5212 -2.7669
  105MOL    H4921057   1.074   3.637   7.341 -1.8304 -0.6353  0.9466
  105MOL    H5021058   1.193   3.452   7.115 -0.7891  2.5835 -1.6260
  105MOL    H5121059   1.276   3.485   7.261 -0.2640  0.2439 -0.4955
  105MOL    O5221060   1.257   3.628   7.111  0.0348  0.1670 -0.2467
  105MOL    C5321061   1.389   3.603   7.060  0.0607  0.1812 -0.0683
  105MOL    C5421062   1.438   3.719   6.965  0.0594  0.5580 -0.1474
  105MOL    C5521063   1.578   3.692   6.915 -0.2743 -0.0650  0.3864
  105MOL    H5621064   1.389   3.511   7.001  1.9581  0.7517 -0.9694
  105MOL    H5721065   1.463   3.587   7.138 -2.1850 -1.0631  1.8959
  105MOL    H5821066   1.372   3.718   6.878  0.3094 -3.9971 -0.4150
  105MOL    H5921067   1.430   3.809   7.025 -2.1118  0.9708 -1.0375
  105MOL    H6021068   1.653   3.689   6.994 -0.8800 -0.0234  0.9661
  105MOL    H6121069   1.601   3.776   6.850 -1.1574  0.2334  0.4586
  105MOL    O6221070   1.582   3.566   6.837 -0.0378  0.1308 -0.3353
  105MOL    C6321071   1.710   3.510   6.837 -0.3294  0.1315 -0.6030
  105MOL    C6421072   1.703   3.388   6.748  0.3188 -0.2616 -0.5510
  105MOL    C6521073   1.836   3.319   6.737  0.3681  1.0261 -0.3782
  105MOL    H6621074   1.716   3.469   6.938 -2.6308  1.8506  0.2843
  105MOL    H6721075   1.788   3.582   6.812 -1.5623  1.4606 -0.7030
  105MOL    H6821076   1.634   3.321   6.798  2.7871 -2.4222  0.0841
  105MOL    H6921077   1.660   3.403   6.649 -1.1596 -1.7807 -0.1666
  105MOL    H7021078   1.885   3.310   6.833 -2.2212  2.8639  1.1680
  105MOL    H7121079   1.899   3.378   6.670  1.1260  1.6374  0.8729
  105MOL    O7221080   1.825   3.194   6.672  0.3566  0.1123  0.0870
  105MOL    C7321081   1.952   3.133   6.650 -0.5033 -0.5020  0.2318
  105MOL    C7421082   1.997   3.054   6.771  0.2078  0.0840 -0.4311
  105MOL    C7521083   2.140   2.991   6.747  0.4447  0.0189 -0.9455
  105MOL    H7621084   2.034   3.200   6.624 -0.2468 -1.0394 -0.3527
  105MOL    H7721085   1.951   3.070   6.561 -0.7149  0.3065 -0.3461
  105MOL    H7821086   1.991   3.112   6.863 -1.5179  2.9080 -2.2495
  105MOL    H7921087   1.932   2.968   6.787  1.3701 -0.8715 -0.7647
  105MOL    H8021088   2.217   3.066   6.729 -0.0682  1.4350  2.4098
  105MOL    H8121089   2.138   2.914   6.670  1.0118  1.4225 -2.3979
  105MOL    O8221090   2.174   2.917   6.860  0.3048 -0.4642  0.0417
  105MOL    C8321091   2.310   2.886   6.865 -0.6958  0.6029  0.1808
  105MOL    C8421092   2.329   2.803   6.996 -0.2269  0.1304  0.3886
  105MOL    C8521093   2.465   2.747   7.024  0.1207 -0.9838  0.4482
  105MOL    H8621094   2.372   2.975   6.876  0.0346  0.1911 -0.5858
  105MOL    H8721095   2.339   2.844   6.769  1.6185 -0.7938  1.4559
  105MOL    H8821096   2.286   2.860   7.078  0.6656  0.1364  0.8540
  105MOL    H8921097   2.255   2.724   6.981 -0.6027  0.4138  0.7475
  105MOL    H9021098   2.534   2.831   7.032  1.5744 -2.1996  0.9477
  105MOL    H9121099   2.491   2.684   6.939 -1.8538  1.9942 -2.4479
  105MOL    O9221100   2.459   2.665   7.140 -0.4395  0.1344 -0.2565
  105MOL    C9321101   2.579   2.613   7.192 -0.5061  0.3515  0.2460
  105MOL    C9421102   2.631   2.490   7.113  0.0850  0.3278 -0.2574
  105MOL    C9521103   2.529   2.381   7.107  0.2756  0.4956  0.1370
  105MOL    H9621104   2.569   2.586   7.297  0.3174  2.4348  0.8788
  105MOL    H9721105   2.645   2.699   7.197  1.5157 -1.1553  0.2398
  105MOL    H9821106   2.653   2.505   7.007 -0.2109 -0.1005 -0.3811
  105MOL    H9921107   2.725   2.448   7.149 -0.2606 -0.6619 -0.4915
  105MOL   H10021108   2.439   2.409   7.051  0.3940 -1.0925 -0.8773
  105MOL   H10121109   2.489   2.355   7.206  0.4389 -1.7899 -0.3901
  105MOL   O10221110   2.566   2.257   7.039 -0.6728  0.3060  0.4639
  105MOL   C10321111   2.637   2.172   7.126 -0.2727  1.1688 -0.2589
  105MOL   C10421112   2.669   2.043   7.043  0.0350  0.0405 -0.8612
  105MOL   C10521113   2.720   1.934   7.126  0.2217  0.4365  0.0784
  105MOL   H10621114   2.576   2.148   7.213 -1.0046 -2.0688 -1.5680
  105MOL   H10721115   2.727   2.222   7.161  1.1878  0.8441 -3.3692
  105MOL   H10821116   2.581   2.010   6.987  1.1405 -1.9097 -1.4771
  105MOL   H10921117   2.742   2.062   6.964  0.0373  0.4791 -0.7566
  105MOL   H11021118   2.698   1.838   7.080  0.4162  0.4394 -0.0218
  105MOL   H11121119   2.673   1.945   7.224 -0.9047 -1.2326 -0.2558
  105MOL   O11221120   2.863   1.950   7.154 -0.3316  0.1499 -0.0274
  105MOL   C11321121   2.900   1.909   7.283  0.0120 -1.1539  0.3599
  105MOL   C11421122   3.050   1.896   7.283 -0.1838 -0.1794 -0.1784
  105MOL   C11521123   3.092   1.816   7.414 -0.1504  0.2711  0.1382
  105MOL   H11621124   2.858   1.811   7.305  0.5893 -1.4679  0.0471
  105MOL   H11721125   2.871   1.975   7.366 -1.5197 -0.3408 -0.7939
  105MOL   H11821126   3.083   1.841   7.195  3.1903 -0.8085  1.3677
  105MOL   H11921127   3.115   1.984   7.279 -0.6403  0.1780  0.2061
  105MOL   H12021128   3.055   1.714   7.405 -1.1759  0.6087  0.4393
  105MOL   H12121129   3.037   1.862   7.497 -2.2801  0.8557 -1.5462
  105MOL   O12221130   3.231   1.808   7.432  0.3329 -0.5591  0.0823
  105MOL   C12321131   3.275   1.758   7.561  0.5804  0.2496 -0.4176
  105MOL   C12421132   3.253   1.872   7.663 -0.2372 -0.3117 -0.1756
  105MOL   C12521133   3.292   1.846   0.024  0.2356  0.4245  0.0398
  105MOL   H12621134   3.379   1.729   7.549  0.3037 -0.8204 -0.2986
  105MOL   H12721135   3.209   1.672   7.575 -2.1997  1.9473 -2.5325
  105MOL   H12821136   3.315   1.955   7.632 -2.1465  0.9013 -0.8144
  105MOL   H12921137   3.156   1.921   7.667  0.9759  2.3140 -2.1444
  105MOL   H13021138   3.397   1.825   0.041  0.2486  1.1371  0.8799
  105MOL   H13121139   3.230   1.772   0.077  0.3249  0.5718  0.3512
  105MOL   O13221140   3.261   1.959   0.093  0.4050 -0.0959 -0.0979
  105MOL   C13321141   3.265   1.937   0.233 -0.0434  0.1598 -0.3736
  105MOL   C13421142   3.251   2.065   0.312  0.7058  0.0801 -0.3252
  105MOL   C13521143   3.278   2.046   0.463 -0.0675  0.1653 -0.2125
  105MOL   H13621144   3.360   1.892   0.261  0.7790  2.1957  0.2255
  105MOL   H13721145   3.196   1.860   0.268  0.5883  0.1420  0.8600
  105MOL   H13821146   3.320   2.142   0.277  0.2404  0.0048 -1.4355
  105MOL   H13921147   3.154   2.114   0.301  1.1403  0.8342 -0.8801
  105MOL   H14021148   3.261   2.136   0.522  1.3390  0.6516 -0.5227
  105MOL   H14121149   3.383   2.020   0.482 -0.2937 -3.0910 -2.9700
  105MOL   O14221150   3.196   1.934   0.506  0.2965  0.0839  0.2769
  105MOL   C14321151   3.238   1.899   0.638 -0.7515 -0.6842 -0.0960
  105MOL   C14421152   3.139   1.791   0.679 -0.0943 -0.0946 -0.2781
  105MOL   C14521153   3.165   1.741   0.822 -0.2544  0.8012 -0.5531
  105MOL   H14621154   3.223   1.991   0.695 -0.4513  0.9336 -2.5588
  105MOL   H14721155   3.341   1.868   0.653  0.0205  1.7041 -0.1698
  105MOL   H14821156   3.035   1.825   0.679  0.1748  0.7983  1.1785
  105MOL   H14921157   3.131   1.706   0.612  0.4728  0.2016 -0.7168
  105MOL   H15021158   3.160   1.827   0.888 -3.3917  1.9055 -2.1633
  105MOL   H15121159   3.262   1.697   0.843 -0.3012  0.9390 -0.0496
  105MOL   O15221160   3.068   1.643   0.863 -0.1883  0.4027 -0.3422
  105MOL   C15321161   3.089   1.575   0.986 -0.4184  0.2809 -0.0565
  105MOL   C15421162   2.956   1.508   1.019 -0.5057  0.2371  0.6690
  105MOL   C15521163   2.948   1.407   1.136  0.0779 -0.6575 -0.5438
  105MOL   H15621164   3.114   1.651   1.060 -1.1033 -1.0950  1.6038
  105MOL   H15721165   3.175   1.508   0.981  0.6012  1.4283  1.5152
  105MOL   H15821166   2.881   1.586   1.035 -1.4959 -0.6982  0.5973
  105MOL   H15921167   2.927   1.451   0.931 -0.4170  0.7236  0.3190
  105MOL   H16021168   3.008   1.319   1.113 -3.0932 -2.6327 -1.6027
  105MOL   H16121169   2.851   1.368   1.167 -0.0085 -1.9367 -2.3126
  105MOL   O16221170   2.995   1.493   1.247  0.1635 -0.3832  0.0722
  105MOL   C16321171   2.950   1.431   1.369  0.0688  0.2395  0.2541
  105MOL   C16421172   3.016   1.504   1.490  0.9536  0.1209  0.9118
  105MOL   C16521173   2.963   1.469   1.626 -0.4784 -0.0533  0.4200
  105MOL   H16621174   2.945   1.322   1.373  2.4731  0.1122  0.4496
  105MOL   H16721175   2.847   1.466   1.372 -0.7264 -1.6721 -2.6903
  105MOL   H16821176   3.124   1.493   1.497  0.7839 -1.8587  0.7378
  105MOL   H16921177   3.008   1.611   1.474  0.0391  0.5488  3.8555
  105MOL   H17021178   3.034   1.525   1.687 -0.8419  0.7087  0.1465
  105MOL   H17121179   2.960   1.360   1.635  2.5183 -0.3124 -1.0785
  105MOL   O17221180   2.831   1.513   1.643  0.3472 -0.4566 -0.0702
  105MOL   C17321181   2.796   1.529   1.778  0.0947  0.2267  0.3460
  105MOL   C17421182   2.642   1.544   1.781  0.1981  0.1928 -0.2759
  105MOL   C17521183   2.594   1.541   1.920  0.2386 -0.5571 -1.4849
  105MOL   H17621184   2.840   1.618   1.823  1.9093  0.3625 -1.6177
  105MOL   H17721185   2.823   1.448   1.845 -0.0057 -0.7233 -0.7544
  105MOL   H17821186   2.615   1.635   1.727  0.6490  0.4283 -0.1094
  105MOL   H17921187   2.582   1.465   1.736  2.4132 -1.1749 -0.8903
  105MOL   H18021188   2.620   1.633   1.972  1.7825 -0.5399 -2.2653
  105MOL   H18121189   2.623   1.445   1.964 -1.1246  0.6033  2.1383
  105MOL   O18221190   2.458   1.526   1.919 -0.3058 -0.4452  0.5475
  105MOL   C18321191   2.403   1.495   2.044  0.2766 -0.1149 -0.5241
  105MOL   C18421192   2.252   1.474   2.032 -0.1667  0.9743 -1.1882
  105MOL   C18521193   2.187   1.498   2.169 -0.1134 -0.2037 -0.6126
  105MOL   H18621194   2.412   1.588   2.098  1.2880 -2.0315  2.7282
  105MOL   H18721195   2.442   1.411   2.101 -0.2853 -0.7559 -1.0638
  105MOL   H18821196   2.213   1.541   1.955  1.2565  2.0591 -0.9937
  105MOL   H18921197   2.232   1.371   2.003 -1.3162  0.6109  0.8456
  105MOL   H19021198   2.224   1.594   2.206  2.2667 -1.6647  0.9628
  105MOL   H19121199   2.231   1.424   2.237 -1.1163 -0.5119 -0.2931
  105MOL   O19221200   2.044   1.498   2.165  0.5430  0.0958 -0.0032
  105MOL   C19321201   1.977   1.551   2.282 -0.1089  0.0057 -0.1865
  105MOL   C19421202   1.828   1.549   2.264 -0.7963  0.4494 -0.5606
  105MOL   C19521203   1.749   1.595   2.383  0.0750  0.4713 -0.2986
  105MOL   H19621204   2.003   1.656   2.292  2.3369 -0.7596  2.1824
  105MOL   H19721205   2.001   1.488   2.368 -1.4720 -0.1781  0.0757
  105MOL   H19821206   1.792   1.605   2.178 -0.3101  1.4044 -0.1562
  105MOL   H19921207   1.811   1.448   2.228 -0.0634 -0.1329  0.6884
  105MOL   H20021208   1.759   1.529   2.469 -3.3597  0.0890 -0.1291
  105MOL   H20121209   1.645   1.622   2.363 -0.6087  1.3530  3.9195
  105MOL   H20221210   1.792   1.691   2.412  0.2642 -0.1475  1.5043
  106MOL     O121211   0.690   6.374   0.317  0.0875  0.6251 -0.0479
  106MOL     C221212   0.609   6.338   0.430 -0.1539  0.2846  0.8343
  106MOL     C321213   0.616   6.447   0.531  0.4005 -0.7383  0.4810
  106MOL     C421214   0.591   6.399   0.671  0.3718 -0.5195 -0.1157
  106MOL     H521215   0.656   6.245   0.464 -3.1766 -0.7897  2.2099
  106MOL     H621216   0.510   6.318   0.389  1.3446 -2.9930 -1.4805
  106MOL     H721217   0.715   6.491   0.518  1.7075 -4.0555 -1.3702
  106MOL     H821218   0.548   6.526   0.501  0.0432 -1.1068  0.3177
  106MOL     H921219   0.663   6.320   0.689  0.5162 -0.1839  0.7905
  106MOL    H1021220   0.495   6.348   0.673  1.1907 -2.1212 -0.8718
  106MOL    H1121221   0.748   6.301   0.303  0.6133  0.6725  1.8306
  106MOL    O1221222   0.613   6.508   0.753  0.3313  0.1834  0.3067
  106MOL    C1321223   0.613   6.466   0.891  0.1448  0.2019 -0.3641
  106MOL    C1421224   0.621   6.586   0.976 -0.2505  0.0714 -0.0697
  106MOL    C1521225   0.616   6.538   1.120 -0.1049 -0.4193  0.4937
  106MOL    H1621226   0.706   6.410   0.908  0.3460  0.3973 -0.8220
  106MOL    H1721227   0.520   6.411   0.903  0.8416 -0.5167  1.9575
  106MOL    H1821228   0.705   6.650   0.948  1.6135 -2.1391  0.2435
  106MOL    H1921229   0.534   6.647   0.953  0.0086 -0.0945 -1.5405
  106MOL    H2021230   0.618   6.621   1.191  2.3348 -0.3371  0.3592
  106MOL    H2121231   0.708   6.483   1.139 -0.6410 -0.9041  1.6851
  106MOL    O2221232   0.505   6.453   1.139 -0.0407  0.1281 -0.1311
  106MOL    C2321233   0.487   6.426   1.285  0.0751 -0.0876  0.4023
  106MOL    C2421234   0.347   6.371   1.299  0.1461 -0.0800 -0.4206
  106MOL    C2521235   0.305   6.374   1.447  0.4717 -0.4912 -0.5143
  106MOL    H2621236   0.502   6.520   1.338 -1.3202  1.9712 -2.6922
  106MOL    H2721237   0.558   6.357   1.332  0.0248  0.0586  0.6917
  106MOL    H2821238   0.269   6.425   1.245 -1.0404 -1.3447 -0.0066
  106MOL    H2921239   0.347   6.269   1.262  1.4327 -0.4785  0.6297
  106MOL    H3021240   0.279   6.476   1.472  0.1251 -0.6641 -0.1562
  106MOL    H3121241   0.394   6.344   1.503  2.2412  1.3700 -2.2747
  106MOL    O3221242   0.195   6.283   1.461  0.0300  0.6210 -0.4079
  106MOL    C3321243   0.136   6.298   1.586  0.6546  0.2868 -0.3850
  106MOL    C3421244   0.031   6.187   1.610 -0.1149  0.2352 -0.5386
  106MOL    C3521245   7.695   6.213   1.534 -0.3539 -0.1666  0.1895
  106MOL    H3621246   0.105   6.399   1.612  1.2077  0.5357 -0.6936
  106MOL    H3721247   0.213   6.289   1.664 -0.4172 -0.2733  0.6243
  106MOL    H3821248   0.079   6.096   1.572  0.5384  0.2557  0.2158
  106MOL    H3921249   0.008   6.169   1.715 -1.6594  0.0741 -0.8971
  106MOL    H4021250   7.721   6.226   1.429  0.7662  1.0607  0.5985
  106MOL    H4121251   7.664   6.317   1.549  0.0991 -0.1707  1.1896
  106MOL    O4221252   7.605   6.108   1.562 -0.3053  0.7131  0.5300
  106MOL    C4321253   7.540   6.123   1.691  0.1637 -0.2343  0.0616
  106MOL    C4421254   7.431   6.016   1.690  0.3336 -0.5868  0.4111
  106MOL    C4521255   7.354   6.011   1.821 -0.3916  0.2423 -0.1892
  106MOL    H4621256   7.503   6.223   1.717 -2.9818 -1.4171  0.4165
  106MOL    H4721257   7.598   6.080   1.772  0.3168  0.2740  0.2252
  106MOL    H4821258   7.362   6.045   1.611 -0.1246  1.3067  1.4932
  106MOL    H4921259   7.483   5.924   1.663  1.3757  0.3643 -0.9108
  106MOL    H5021260   7.255   5.968   1.804 -0.9664  2.4584 -2.9268
  106MOL    H5121261   7.339   6.113   1.859  0.4516  1.3247 -2.6676
  106MOL    O5221262   7.429   5.937   1.914 -0.4966  0.1487 -0.0419
  106MOL    C5321263   7.523   6.001   1.991 -0.1356 -0.6233  0.2090
  106MOL    C5421264   7.506   5.946   2.130  0.7165 -0.5695 -0.6219
  106MOL    C5521265   7.593   5.997   2.242 -0.5392 -0.3024 -0.2118
  106MOL    H5621266   7.512   6.109   1.999 -0.1241 -0.6807  1.1343
  106MOL    H5721267   7.621   5.966   1.960  0.5729  0.8481  0.7473
  106MOL    H5821268   7.409   5.967   2.176  1.5676  0.4056  0.7649
  106MOL    H5921269   7.509   5.837   2.133  0.7647 -0.5973 -1.4873
  106MOL    H6021270   7.583   6.105   2.235  1.1876 -0.2509 -2.4982
  106MOL    H6121271   7.697   5.971   2.224  0.0895  2.4914 -0.7592
  106MOL    O6221272   7.538   5.927   2.353 -0.9680  0.4603 -0.6411
  106MOL    C6321273   7.606   5.946   2.479 -0.2581 -0.1408 -0.2565
  106MOL    C6421274   7.542   5.874   2.604  0.2056  0.3487  0.1922
  106MOL    C6521275   7.532   5.727   2.594  0.2524  0.7650 -0.0930
  106MOL    H6621276   7.615   6.053   2.496  1.2232 -0.4649  1.0854
  106MOL    H6721277   7.711   5.917   2.478  0.3904  1.9470  1.8049
  106MOL    H6821278   7.597   5.898   2.695 -0.4637  0.3800  0.5910
  106MOL    H6921279   7.444   5.920   2.616  0.5852  1.8491 -2.1234
  106MOL    H7021280   7.628   5.684   2.563 -0.6212  0.5743 -2.6490
  106MOL    H7121281   7.460   5.702   2.516  0.5757 -1.4287  0.2772
  106MOL    O7221282   7.503   5.677   2.725 -0.4042 -0.3545 -0.2301
  106MOL    C7321283   7.494   5.533   2.731  0.4854 -0.4550  0.2973
  106MOL    C7421284   7.403   5.495   2.855 -0.2274 -0.0140 -0.5657
  106MOL    C7521285   7.402   5.344   2.887  0.5018 -0.0736  0.2967
  106MOL    H7621286   7.589   5.484   2.750  1.1108  0.6876  0.1150
  106MOL    H7721287   7.452   5.490   2.640  0.6105 -0.4583  0.2420
  106MOL    H7821288   7.430   5.547   2.948  2.1278  2.4351 -2.5256
  106MOL    H7921289   7.300   5.528   2.841 -0.3682 -0.5229 -0.7419
  106MOL    H8021290   7.392   5.295   2.791 -1.0370  2.4207 -0.8680
  106MOL    H8121291   7.314   5.318   2.946  0.5871  0.8822  0.8695
  106MOL    O8221292   7.524   5.308   2.949 -0.2817 -0.7327  0.0113
  106MOL    C8321293   7.524   5.172   2.989 -0.2200 -0.0169  0.2540
  106MOL    C8421294   7.669   5.123   2.958 -0.3354  0.2582 -0.0547
  106MOL    C8521295   7.676   4.975   2.995  0.2129 -0.6587  0.2438
  106MOL    H8621296   7.461   5.110   2.925  0.2056  0.5773 -0.7498
  106MOL    H8721297   7.487   5.151   3.089 -0.8424  1.5474  0.3536
  106MOL    H8821298   7.688   5.132   2.851  2.1454 -0.3796  0.2895
  106MOL    H8921299   7.742   5.185   3.009 -0.2627  2.0266 -2.2340
  106MOL    H9021300   7.617   4.969   3.086  0.5789 -1.1467  0.4516
  106MOL    H9121301   7.781   4.956   3.019  0.4221 -0.5643 -0.5616
  106MOL    O9221302   7.641   4.887   2.893 -0.3741  0.1395  0.2996
  106MOL    C9321303   7.644   4.757   2.940 -0.2368  0.4137  0.1278
  106MOL    C9421304   7.778   4.691   2.901  0.0678 -0.3893  1.0032
  106MOL    C9521305   0.032   4.709   2.753 -0.0249  0.6373 -0.5458
  106MOL    H9621306   7.565   4.712   2.880  0.5710 -1.1085  0.1817
  106MOL    H9721307   7.620   4.743   3.045 -0.6892  1.4769  0.1794
  106MOL    H9821308   0.075   4.732   2.957  0.2725 -0.2723  0.6065
  106MOL    H9921309   7.780   4.582   2.907  2.0135 -0.7729 -4.3053
  106MOL   H10021310   0.056   4.812   2.729  1.0018  0.9462  1.7084
  106MOL   H10121311   7.735   4.662   2.705 -2.9301  0.9776  4.0310
  106MOL   O10221312   0.148   4.631   2.716 -0.9193 -0.2632 -0.4172
  106MOL   C10321313   0.168   4.637   2.582 -0.0986 -0.2762  0.2920
  106MOL   C10421314   0.322   4.647   2.559 -0.0291  0.2775 -0.4423
  106MOL   C10521315   0.356   4.672   2.412  0.3999  0.3580 -0.1511
  106MOL   H10621316   0.123   4.724   2.536  0.0380  0.7507  2.0619
  106MOL   H10721317   0.126   4.557   2.520  1.5342  1.6992 -3.5376
  106MOL   H10821318   0.370   4.724   2.621 -1.0214 -0.8961  1.8369
  106MOL   H10921319   0.348   4.546   2.591  0.1523  0.4281 -0.1122
  106MOL   H11021320   0.319   4.773   2.395 -2.8898 -1.0168 -1.4323
  106MOL   H11121321   0.312   4.594   2.352  0.4970 -2.0289  2.7656
  106MOL   O11221322   0.496   4.681   2.401 -0.6117  0.1083 -0.3379
  106MOL   C11321323   0.543   4.725   2.279  0.4290  0.4163 -0.2433
  106MOL   C11421324   0.698   4.727   2.292 -0.0558 -0.3302 -0.6098
  106MOL   C11521325   0.768   4.752   2.157 -0.2688  0.3712 -0.0272
  106MOL   H11621326   0.513   4.829   2.265  0.1733  0.4610  0.5734
  106MOL   H11721327   0.512   4.652   2.205  0.4891 -0.5661  0.6894
  106MOL   H11821328   0.725   4.816   2.349  2.0559  2.4484 -5.6401
  106MOL   H11921329   0.743   4.643   2.345  1.0852 -0.2796 -1.4767
  106MOL   H12021330   0.873   4.777   2.165  0.1521 -1.6290  1.1157
  106MOL   H12121331   0.726   4.836   2.102 -0.1034 -0.0460 -0.7959
  106MOL   O12221332   0.756   4.638   2.070  0.2824 -0.2516  0.2907
  106MOL   C12321333   0.768   4.677   1.938  0.5167 -0.3269  0.4035
  106MOL   C12421334   0.761   4.546   1.853 -0.2485 -0.6132 -0.6025
  106MOL   C12521335   0.747   4.574   1.709  0.4273 -0.4314 -0.2789
  106MOL   H12621336   0.856   4.737   1.917 -0.2501  1.1800  1.3436
  106MOL   H12721337   0.678   4.736   1.920  0.2171 -1.0026 -0.3552
  106MOL   H12821338   0.854   4.491   1.869 -0.5148 -0.8494  0.1550
  106MOL   H12921339   0.689   4.472   1.886  0.0055  0.0073  1.4195
  106MOL   H13021340   0.820   4.643   1.667  1.6083 -1.3021  0.3161
  106MOL   H13121341   0.647   4.617   1.697  1.0868  1.0473 -0.5644
  106MOL   O13221342   0.744   4.443   1.648  0.3679 -0.6193  0.1440
  106MOL   C13321343   0.619   4.383   1.623 -0.0917  0.6282  0.4295
  106MOL   C13421344   0.640   4.249   1.551 -0.5535  0.6600  0.5279
  106MOL   C13521345   0.513   4.192   1.484  0.5501  0.0474  0.6129
  106MOL   H13621346   0.555   4.450   1.566 -1.7558  1.0622  2.7603
  106MOL   H13721347   0.558   4.368   1.712 -1.3995  1.6262 -0.2958
  106MOL   H13821348   0.717   4.259   1.474  1.0168  0.7486  2.0951
  106MOL   H13921349   0.682   4.183   1.626  1.1311  1.5058  0.3652
  106MOL   H14021350   0.476   4.256   1.404  1.0191 -1.9652 -1.2469
  106MOL   H14121351   0.429   4.189   1.553 -0.4671  0.6803 -0.5680
  106MOL   O14221352   0.542   4.067   1.428  0.2686  0.0480 -0.2495
  106MOL   C14321353   0.416   4.000   1.409 -0.0437  0.4414  0.4481
  106MOL   C14421354   0.458   3.864   1.356 -0.0015 -0.0823  0.2875
  106MOL   C14521355   0.335   3.794   1.300 -0.3089 -0.4380  0.2620
  106MOL   H14621356   0.355   4.054   1.337  0.4331  2.2312  1.3501
  106MOL   H14721357   0.358   3.987   1.500 -2.1587 -0.6495 -1.0045
  106MOL   H14821358   0.544   3.864   1.288 -1.3654  1.6286 -1.5248
  106MOL   H14921359   0.503   3.801   1.432 -1.6244 -2.2920 -0.5177
  106MOL   H15021360   0.304   3.855   1.216 -2.7104 -0.6616  0.9729
  106MOL   H15121361   0.263   3.777   1.380  0.2555 -0.5352  0.7525
  106MOL   O15221362   0.375   3.674   1.237 -0.8056  0.1543  0.0766
  106MOL   C15321363   0.268   3.606   1.184  0.7384  0.3098 -0.2251
  106MOL   C15421364   0.306   3.483   1.097  0.4535 -0.5031 -0.3260
  106MOL   C15521365   0.344   3.350   1.179  0.2603  0.4867  0.1994
  106MOL   H15621366   0.194   3.676   1.145 -1.7253 -1.7755  0.5535
  106MOL   H15721367   0.221   3.560   1.272  0.4640  1.6619  0.3458
  106MOL   H15821368   0.222   3.462   1.031 -0.1398 -0.3427  0.3672
  106MOL   H15921369   0.386   3.521   1.034  0.2407 -0.4350 -0.5552
  106MOL   H16021370   0.425   3.351   1.253 -0.3275  0.1807  0.8552
  106MOL   H16121371   0.391   3.284   1.107  1.7743  0.8936  0.7893
  106MOL   O16221372   0.226   3.302   1.244  0.0160  0.3439 -0.1307
  106MOL   C16321373   0.242   3.176   1.304 -0.3353  0.8939 -1.4387
  106MOL   C16421374   0.116   3.128   1.372 -0.0858 -0.6480  0.2118
  106MOL   C16521375   0.137   2.995   1.447 -0.3358  0.0622 -0.5997
  106MOL   H16621376   0.319   3.178   1.381 -2.7415  0.0050  1.0597
  106MOL   H16721377   0.267   3.097   1.233 -0.6537 -1.6514  1.1871
  106MOL   H16821378   0.087   3.203   1.446  2.0601 -0.4905  0.9332
  106MOL   H16921379   0.040   3.118   1.295  0.7779  0.4250 -0.7913
  106MOL   H17021380   0.214   2.983   1.523 -0.7408 -0.8535 -0.3199
  106MOL   H17121381   0.154   2.919   1.370 -0.6884  2.1418 -2.8117
  106MOL   O17221382   0.015   2.960   1.509  0.8776 -0.6088 -0.4744
  106MOL   C17321383   7.781   2.832   1.565 -0.1633 -0.3816  0.0159
  106MOL   C17421384   7.656   2.845   1.653  0.0970 -0.3680 -0.5084
  106MOL   C17521385   7.658   2.982   1.721  0.6150  0.3134  0.9215
  106MOL   H17621386   0.074   2.800   1.631  0.7528 -0.1283 -0.9775
  106MOL   H17721387   7.775   2.761   1.482  0.6632  0.2701 -0.6115
  106MOL   H17821388   7.560   2.821   1.607 -0.7253  1.2514  0.3239
  106MOL   H17921389   7.669   2.766   1.727 -0.2795  0.8517  0.8793
  106MOL   H18021390   7.647   3.069   1.655 -0.3901 -1.0716 -0.7811
  106MOL   H18121391   7.750   3.012   1.770  1.1245 -0.0681  0.2074
  106MOL   O18221392   7.550   2.975   1.816 -0.1785 -0.3441 -0.5554
  106MOL   C18321393   7.555   3.076   1.913  0.0596 -0.3656  0.1686
  106MOL   C18421394   7.428   3.085   1.999 -0.4027 -0.0350 -0.2513
  106MOL   C18521395   7.459   3.139   2.136  0.6796  0.2768  0.4262
  106MOL   H18621396   7.559   3.169   1.856 -0.2849 -0.4423  0.0179
  106MOL   H18721397   7.652   3.065   1.963  0.2028 -1.6312 -0.3527
  106MOL   H18821398   7.348   3.138   1.948  0.0618  0.6778 -0.2356
  106MOL   H18921399   7.384   2.989   2.027  2.5337 -0.8005  2.0218
  106MOL   H19021400   7.529   3.222   2.129  0.7012  0.1572 -1.0116
  106MOL   H19121401   7.500   3.058   2.197  1.2129 -1.2598 -1.9042
  106MOL   O19221402   7.346   3.187   2.212 -0.1472  0.0274  0.3552
  106MOL   C19321403   7.379   3.243   2.342  0.6317  0.2175  0.2806
  106MOL   C19421404   7.262   3.309   2.414 -0.1167 -0.3097 -0.7819
  106MOL   C19521405   7.303   3.401   2.534  0.0285 -0.0468 -0.1244
  106MOL   H19621406   7.457   3.315   2.317  0.4391  0.2337 -0.2764
  106MOL   H19721407   7.422   3.163   2.402 -0.9652 -1.0821 -0.2671
  106MOL   H19821408   7.213   3.379   2.346 -0.8612  1.7610  1.7985
  106MOL   H19921409   7.193   3.231   2.446 -0.5396  1.1202  1.9601
  106MOL   H20021410   7.349   3.491   2.495 -1.7670  1.1726  0.5211
  106MOL   H20121411   7.362   3.350   2.610 -0.4209  0.0943  0.3199
  106MOL   H20221412   7.216   3.433   2.591 -1.2782  0.2478 -2.2248
  107MOL     O121413   4.452   1.295   4.208  0.2580  0.1137 -0.0945
  107MOL     C221414   4.405   1.395   4.294 -0.5490  0.1496 -0.6576
  107MOL     C321415   4.267   1.448   4.242 -0.3555  0.2668 -0.1717
  107MOL     C421416   4.265   1.589   4.186  0.0993 -0.1022 -0.0589
  107MOL     H521417   4.482   1.472   4.293 -0.0777 -0.3196 -1.9167
  107MOL     H621418   4.404   1.356   4.396 -0.6050  1.3904 -0.1763
  107MOL     H721419   4.228   1.393   4.156 -3.6401  1.6575  0.3471
  107MOL     H821420   4.209   1.453   4.334 -0.0390 -0.3702  0.0671
  107MOL     H921421   4.355   1.620   4.133 -0.5253  0.1052 -1.0038
  107MOL    H1021422   4.246   1.667   4.261 -0.6901  0.0990 -0.4721
  107MOL    H1121423   4.542   1.273   4.227  0.3344 -1.0390 -1.6695
  107MOL    O1221424   4.168   1.596   4.085  0.4523  0.0249  0.1122
  107MOL    C1321425   4.156   1.724   4.030  1.1034  0.6045 -0.0645
  107MOL    C1421426   4.090   1.740   3.890  0.1098  0.6422  0.3331
  107MOL    C1521427   4.000   1.863   3.875 -0.6807  0.5208 -0.7176
  107MOL    H1621428   4.255   1.762   4.007  2.3450 -1.7073  1.2334
  107MOL    H1721429   4.113   1.798   4.097 -1.8661 -1.0919  0.0174
  107MOL    H1821430   4.161   1.724   3.809 -0.6109 -1.7555  0.1382
  107MOL    H1921431   4.019   1.657   3.885  0.7088 -0.0499  2.5618
  107MOL    H2021432   3.925   1.856   3.953  2.0717 -0.9111  1.9016
  107MOL    H2121433   3.953   1.859   3.777 -1.2088 -1.1026 -0.4110
  107MOL    O2221434   4.079   1.977   3.886  0.0431  0.1460  0.2966
  107MOL    C2321435   3.995   2.089   3.902 -0.1874  0.6508 -0.3044
  107MOL    C2421436   4.073   2.217   3.877  0.3014 -1.1101 -0.1059
  107MOL    C2521437   4.182   2.233   3.983  0.1338  0.4493  0.1491
  107MOL    H2621438   3.946   2.076   3.999  0.4078 -1.7251 -0.2942
  107MOL    H2721439   3.914   2.086   3.829  0.2894 -1.8021 -0.7622
  107MOL    H2821440   4.107   2.207   3.773 -1.1445 -0.5745 -0.6471
  107MOL    H2921441   4.001   2.296   3.895 -1.3109 -2.5627 -0.0416
  107MOL    H3021442   4.245   2.145   3.994  1.6713  1.6854  1.4896
  107MOL    H3121443   4.141   2.238   4.084 -0.0656 -0.9877  0.1365
  107MOL    O3221444   4.265   2.344   3.961  0.1759 -0.1816 -0.0504
  107MOL    C3321445   4.350   2.366   4.075  0.4132 -0.7513  0.4296
  107MOL    C3421446   4.473   2.437   4.014  0.7732 -0.1361  0.2435
  107MOL    C3521447   4.594   2.453   4.106  0.2921  0.0946 -0.0451
  107MOL    H3621448   4.377   2.276   4.131 -2.1035 -1.5364  0.4488
  107MOL    H3721449   4.304   2.436   4.145 -0.3494  0.3293 -1.1226
  107MOL    H3821450   4.509   2.382   3.928  1.8513 -0.4691  0.9047
  107MOL    H3921451   4.430   2.530   3.976 -0.2463 -0.0486  1.5744
  107MOL    H4021452   4.581   2.513   4.197 -0.9347  0.1010 -0.2206
  107MOL    H4121453   4.667   2.521   4.060  0.5585  1.5751  2.4606
  107MOL    O4221454   4.646   2.326   4.138 -0.0013 -0.3116  0.4929
  107MOL    C4321455   4.780   2.327   4.187  0.5489 -0.2599 -0.2659
  107MOL    C4421456   4.827   2.192   4.245 -0.1269  0.2529  0.1353
  107MOL    C4521457   4.964   2.203   4.308 -0.7412 -0.6716  0.0793
  107MOL    H4621458   4.790   2.399   4.268 -0.3859  1.4223 -1.6133
  107MOL    H4721459   4.848   2.345   4.104 -0.0707 -0.4599 -0.8179
  107MOL    H4821460   4.745   2.166   4.312 -0.4219  2.0420  0.5118
  107MOL    H4921461   4.826   2.113   4.171  0.7055 -0.7457  1.1804
  107MOL    H5021462   4.956   2.265   4.396  0.7893 -0.3149 -0.0330
  107MOL    H5121463   5.042   2.250   4.248 -0.2689  0.0597  1.2696
  107MOL    O5221464   5.005   2.074   4.337  0.3325 -0.1695 -0.0094
  107MOL    C5321465   5.129   2.067   4.408 -0.2326 -0.2495  0.5052
  107MOL    C5421466   5.164   1.917   4.443  0.5151  0.1762 -0.5014
  107MOL    C5521467   5.314   1.909   4.490 -0.0311  0.3822  0.6150
  107MOL    H5621468   5.110   2.130   4.495  0.6550 -0.1067  0.6016
  107MOL    H5721469   5.205   2.112   4.344 -0.0368  0.8966  1.5326
  107MOL    H5821470   5.089   1.883   4.514  1.6170 -0.9408  0.1387
  107MOL    H5921471   5.151   1.862   4.350  1.1400 -2.4842  0.9490
  107MOL    H6021472   5.340   1.962   4.582  0.6588 -0.2787  0.8133
  107MOL    H6121473   5.375   1.948   4.409 -1.1261  1.3777  0.2676
  107MOL    O6221474   5.352   1.773   4.499  0.2392  0.4427  0.1639
  107MOL    C6321475   5.487   1.753   4.524 -0.1280  0.0364  0.4948
  107MOL    C6421476   5.522   1.763   4.676  0.8743 -0.7616 -0.1064
  107MOL    C6521477   5.673   1.729   4.693 -0.0110  0.1797 -0.3615
  107MOL    H6621478   5.546   1.805   4.448 -0.6901 -0.4967 -0.3263
  107MOL    H6721479   5.496   1.646   4.505  0.4725 -0.6496  4.4231
  107MOL    H6821480   5.497   1.863   4.712  0.2179 -0.7934 -0.4506
  107MOL    H6921481   5.447   1.705   4.730 -0.8405  0.6738 -0.8694
  107MOL    H7021482   5.723   1.805   4.633 -0.0655 -0.0768 -0.7395
  107MOL    H7121483   5.703   1.627   4.669  1.9469  0.8272 -0.7312
  107MOL    O7221484   5.731   1.755   4.825 -0.7348 -0.0413  0.0343
  107MOL    C7321485   5.687   1.657   4.917 -0.0917  0.0465  0.2054
  107MOL    C7421486   5.709   1.713   5.058 -0.5113  0.7424  0.5953
  107MOL    C7521487   5.671   1.615   5.174  0.1863  0.2653  0.0636
  107MOL    H7621488   5.736   1.564   4.887 -0.7109 -0.3232  0.3375
  107MOL    H7721489   5.580   1.641   4.905 -0.3345  0.7061  1.3696
  107MOL    H7821490   5.816   1.732   5.066 -0.1982 -1.1557  1.1570
  107MOL    H7921491   5.657   1.808   5.075 -2.4261 -0.4083  1.3592
  107MOL    H8021492   5.563   1.601   5.167  0.2850  0.7737 -3.1564
  107MOL    H8121493   5.683   1.662   5.272  0.4514 -0.7908  0.5421
  107MOL    O8221494   5.738   1.488   5.164  0.9443 -0.6915  0.1992
  107MOL    C8321495   5.686   1.392   5.254 -1.1558 -0.2546  0.9093
  107MOL    C8421496   5.771   1.271   5.241 -0.0079  0.8632 -0.2228
  107MOL    C8521497   5.911   1.282   5.303 -0.3596  0.5739  1.0506
  107MOL    H8621498   5.582   1.372   5.229 -0.7055 -0.9736 -0.4272
  107MOL    H8721499   5.688   1.427   5.357 -0.7277  0.3793  0.6886
  107MOL    H8821500   5.713   1.197   5.296  0.6772 -0.9951 -1.9281
  107MOL    H8921501   5.783   1.236   5.138 -3.6785  0.9732 -0.7694
  107MOL    H9021502   5.911   1.324   5.404 -1.0792  0.8528  0.9322
  107MOL    H9121503   5.963   1.344   5.230 -1.2832  0.1782  0.0484
  107MOL    O9221504   5.987   1.161   5.304 -0.1473  0.6712 -0.1476
  107MOL    C9321505   6.124   1.192   5.322  0.5195 -0.2934 -0.2379
  107MOL    C9421506   6.203   1.061   5.302 -0.4755 -0.2014 -0.1490
  107MOL    C9521507   6.360   1.065   5.288 -1.0222 -0.2136 -1.1286
  107MOL    H9621508   6.145   1.213   5.427 -1.1862 -2.9274  0.6731
  107MOL    H9721509   6.165   1.270   5.257 -0.1841  1.6014  1.5152
  107MOL    H9821510   6.178   1.003   5.390  1.0454  1.6829  1.5740
  107MOL    H9921511   6.154   1.009   5.220  1.0105  2.1041 -2.5838
  107MOL   H10021512   6.407   1.138   5.353 -0.7307 -1.9217  0.6443
  107MOL   H10121513   6.404   1.086   5.191  1.9973 -1.9904 -0.1973
  107MOL   O10221514   6.410   0.936   5.328  0.0488  0.3216  0.2393
  107MOL   C10321515   6.471   0.926   5.454 -0.6194  0.7360  0.2670
  107MOL   C10421516   6.447   0.797   5.526 -0.0959  0.2576 -0.0140
  107MOL   C10521517   6.535   0.776   5.649  0.1739 -0.6893 -0.3092
  107MOL   H10621518   6.446   1.015   5.511  1.3109  2.0395 -0.8724
  107MOL   H10721519   6.579   0.936   5.447 -0.5742  0.9345  1.2107
  107MOL   H10821520   6.343   0.805   5.560  0.1205  1.9342  0.2797
  107MOL   H10921521   6.448   0.717   5.452 -1.8675  0.7427 -0.5921
  107MOL   H11021522   6.505   0.677   5.683 -1.2593 -0.5053 -0.9818
  107MOL   H11121523   6.516   0.841   5.734  1.1185 -1.1698  0.2750
  107MOL   O11221524   6.675   0.776   5.621 -0.2254  0.0120 -0.7374
  107MOL   C11321525   6.712   0.682   5.521  0.5430 -0.7243 -0.0490
  107MOL   C11421526   6.858   0.652   5.529  0.1092  0.2102 -0.0026
  107MOL   C11521527   6.905   0.563   5.415 -0.4627 -0.2854 -0.8310
  107MOL   H11621528   6.686   0.718   5.422  2.7154  2.1628  0.3618
  107MOL   H11721529   6.656   0.588   5.528 -0.8209  0.0742 -0.1970
  107MOL   H11821530   6.912   0.746   5.518  1.1591 -0.3946 -0.0554
  107MOL   H11921531   6.871   0.605   5.627 -1.1535 -0.5943 -0.2155
  107MOL   H12021532   7.004   0.534   5.449 -0.8397 -0.8944 -0.2418
  107MOL   H12121533   6.903   0.613   5.318 -0.6788  0.9002 -0.2241
  107MOL   O12221534   6.826   0.441   5.402  0.0722  0.4267 -0.0166
  107MOL   C12321535   6.878   0.356   5.299  0.0322  0.0871 -0.0233
  107MOL   C12421536   6.807   0.222   5.312 -0.6447  0.4484  0.1388
  107MOL   C12521537   6.878   0.128   5.211 -0.4329  0.1146 -0.1234
  107MOL   H12621538   6.985   0.353   5.319 -0.2718  0.9056  1.8701
  107MOL   H12721539   6.865   0.397   5.198  0.0567 -1.8753 -0.8304
  107MOL   H12821540   6.818   0.165   5.404 -2.6463  0.1134  0.2030
  107MOL   H12921541   6.700   0.229   5.292 -1.0881  0.0255  2.2233
  107MOL   H13021542   6.983   0.123   5.240 -0.1539  2.8886 -0.5538
  107MOL   H13121543   6.881   0.166   5.109  1.7879  1.8281  0.5213
  107MOL   O13221544   6.814   0.003   5.214  0.4521 -0.8824 -0.4504
  107MOL   C13321545   6.895   7.689   5.161 -0.7972  0.1373  0.1656
  107MOL   C13421546   6.814   7.558   5.151 -0.1331 -0.1054  0.5461
  107MOL   C13521547   6.691   7.556   5.052  0.9012  0.1221  0.1364
  107MOL   H13621548   6.991   7.675   5.211 -0.8530 -4.8571 -0.8922
  107MOL   H13721549   6.934   7.721   5.064  3.9215 -0.5384  1.7026
  107MOL   H13821550   6.881   7.480   5.115 -1.0165 -1.0345  0.8785
  107MOL   H13921551   6.789   7.539   5.256  1.2858  3.0366  1.5172
  107MOL   H14021552   6.729   7.557   4.950  1.3685  1.1344  0.3169
  107MOL   H14121553   6.629   7.644   5.062  0.0042 -0.0945 -2.9328
  107MOL   O14221554   6.602   7.445   5.058 -0.0740  0.5189  0.1964
  107MOL   C14321555   6.522   7.443   5.179  0.2846  0.2754  0.1569
  107MOL   C14421556   6.418   7.339   5.157 -0.4895  0.0124  0.3766
  107MOL   C14521557   6.304   7.394   5.065 -0.6041  0.5468 -0.2922
  107MOL   H14621558   6.501   7.546   5.205 -0.3210  0.0725  0.4700
  107MOL   H14721559   6.587   7.407   5.259  3.0676  1.7854 -1.3326
  107MOL   H14821560   6.474   7.263   5.104  0.8934 -0.6818  2.7831
  107MOL   H14921561   6.365   7.309   5.248  0.2971 -2.2991  0.0889
  107MOL   H15021562   6.354   7.440   4.980  1.3473  1.9701  1.5623
  107MOL   H15121563   6.263   7.477   5.122 -1.1497 -0.2162  0.4417
  107MOL   O15221564   6.207   7.298   5.035  0.1861  0.3252 -0.4255
  107MOL   C15321565   6.090   7.352   4.980 -0.7173 -0.8747 -0.0864
  107MOL   C15421566   5.982   7.239   4.957 -0.4331 -0.0029 -0.2204
  107MOL   C15521567   5.836   7.296   4.970  0.1866  0.0139  0.7823
  107MOL   H15621568   6.118   7.386   4.881  3.9705  0.1014  1.4343
  107MOL   H15721569   6.047   7.428   5.045  0.1839 -0.1204 -0.3729
  107MOL   H15821570   5.999   7.184   4.864 -0.4060  0.1510 -0.3074
  107MOL   H15921571   5.996   7.163   5.034  2.4137 -1.8912 -2.4733
  107MOL   H16021572   5.813   7.368   4.892  0.8123  0.6749  1.2063
  107MOL   H16121573   5.811   7.345   5.064  0.1590  1.6646 -0.0809
  107MOL   O16221574   5.741   7.183   4.949  0.1440 -0.0318  0.3352
  107MOL   C16321575   5.626   7.189   5.026  0.7229 -0.3052  0.4149
  107MOL   C16421576   5.559   7.060   5.026  0.1048  0.7916 -0.4508
  107MOL   C16521577   5.426   7.056   5.092  0.1019  0.1399  0.2842
  107MOL   H16621578   5.562   7.267   4.986  1.1593  0.0723  0.4558
  107MOL   H16721579   5.650   7.217   5.129 -2.8734 -2.2094  1.8925
  107MOL   H16821580   5.548   7.031   4.921  1.6971 -2.0642  0.0919
  107MOL   H16921581   5.623   6.989   5.080 -0.5548  0.7502  0.2826
  107MOL   H17021582   5.364   7.122   5.034 -0.0726 -0.2552  0.0205
  107MOL   H17121583   5.442   7.095   5.193  0.4964  0.0437  0.2598
  107MOL   O17221584   5.369   6.932   5.102 -0.0403 -0.0030  0.8096
  107MOL   C17321585   5.251   6.943   5.178 -0.2507  0.4044 -0.7601
  107MOL   C17421586   5.193   6.806   5.193  0.9149  0.0185  0.2386
  107MOL   C17521587   5.042   6.806   5.230 -0.0729 -0.7693  0.5611
  107MOL   H17621588   5.181   6.989   5.107 -1.0861 -0.9282 -0.8239
  107MOL   H17721589   5.272   6.992   5.273  0.3106  0.7062 -1.0411
  107MOL   H17821590   5.211   6.745   5.105  0.4133  0.0072  0.1418
  107MOL   H17921591   5.254   6.746   5.262  2.3301  0.5543 -0.5230
  107MOL   H18021592   4.980   6.824   5.142  1.0243 -0.5811 -0.1825
  107MOL   H18121593   5.030   6.892   5.297 -2.2224 -1.6561  1.3413
  107MOL   O18221594   4.998   6.679   5.281 -0.1325 -0.3985 -0.1883
  107MOL   C18321595   4.863   6.681   5.312  0.1396  0.2870 -0.5032
  107MOL   C18421596   4.824   6.776   5.426  0.3146 -0.1663 -0.1784
  107MOL   C18521597   4.887   6.735   5.562  0.6788  0.6557  0.7598
  107MOL   H18621598   4.838   6.576   5.331 -0.0072 -0.0859 -2.5852
  107MOL   H18721599   4.799   6.706   5.227  1.4286  0.9510 -1.3053
  107MOL   H18821600   4.838   6.882   5.407  1.7981  0.0003  1.7687
  107MOL   H18921601   4.719   6.750   5.438  0.6030  0.0139  3.0063
  107MOL   H19021602   4.996   6.735   5.566  0.8081 -1.3251 -1.6525
  107MOL   H19121603   4.872   6.628   5.576 -2.3597  0.8706 -0.3982
  107MOL   O19221604   4.850   6.814   5.673 -0.4962 -0.8423 -0.1801
  107MOL   C19321605   4.867   6.749   5.799 -0.2065 -1.4238  0.1712
  107MOL   C19421606   4.869   6.861   5.898  0.2960 -0.6426  0.2487
  107MOL   C19521607   5.007   6.922   5.920  0.7321  0.6442 -0.5373
  107MOL   H19621608   4.956   6.687   5.811  1.0758 -0.3704 -3.0812
  107MOL   H19721609   4.782   6.680   5.804  1.1469 -2.9445  3.2721
  107MOL   H19821610   4.798   6.944   5.898 -0.1601 -1.0308  0.1356
  107MOL   H19921611   4.842   6.814   5.993 -1.3416  0.7127  0.4832
  107MOL   H20021612   5.087   6.847   5.913  0.3296  0.1122  0.4136
  107MOL   H20121613   5.023   6.976   6.013 -2.7715  2.1407 -0.7577
  107MOL   H20221614   5.042   6.989   5.841  0.9392  1.0659 -0.0912
  108MOL     O121615   6.620   4.046   3.446  0.0848  0.1141  0.3690
  108MOL     C221616   6.682   3.996   3.559 -0.3766  0.0021 -0.7418
  108MOL     C321617   6.701   4.109   3.666  0.0278 -0.1584  0.3349
  108MOL     C421618   6.761   4.068   3.803  0.1234  0.1866  0.2469
  108MOL     H521619   6.783   3.972   3.525  0.1023 -1.2672  1.4748
  108MOL     H621620   6.627   3.911   3.600  2.1124 -0.6812  1.3116
  108MOL     H721621   6.767   4.184   3.624 -0.4215  0.4913  0.7849
  108MOL     H821622   6.604   4.153   3.687 -0.5973 -1.2242 -0.2380
  108MOL     H921623   6.783   4.159   3.858  0.0680  0.1644  0.3055
  108MOL    H1021624   6.848   4.003   3.789 -1.0899 -1.6149  0.9596
  108MOL    H1121625   6.586   3.981   3.386  0.4360  0.5917 -0.3659
  108MOL    O1221626   6.670   3.983   3.873  0.2724 -0.1546 -0.4191
  108MOL    C1321627   6.719   3.926   3.993  0.6357 -0.5281  0.0584
  108MOL    C1421628   6.628   3.807   4.022 -0.2839 -0.1440  0.2323
  108MOL    C1521629   6.694   3.714   4.121 -0.4352  0.4768  0.5585
  108MOL    H1621630   6.735   3.995   4.076  1.9317 -0.7286 -0.0194
  108MOL    H1721631   6.820   3.897   3.963 -0.0457 -1.9102 -0.9194
  108MOL    H1821632   6.538   3.856   4.058  0.3517  1.0285  0.2522
  108MOL    H1921633   6.611   3.753   3.929 -0.9362  0.3212  0.0761
  108MOL    H2021634   6.778   3.667   4.070 -0.7944  1.7243 -1.2278
  108MOL    H2121635   6.628   3.630   4.142 -1.4062  0.9094 -0.7911
  108MOL    O2221636   6.724   3.769   4.245 -0.0479 -0.9462 -0.5598
  108MOL    C2321637   6.835   3.702   4.312  0.8174 -0.5493  0.5700
  108MOL    C2421638   6.966   3.786   4.299  0.2589  0.4506  0.2947
  108MOL    C2521639   7.089   3.726   4.369  0.5994  0.1934  0.6869
  108MOL    H2621640   6.848   3.604   4.265  0.2717 -1.1490  1.6426
  108MOL    H2721641   6.808   3.696   4.417 -0.0824  0.5383  0.4115
  108MOL    H2821642   6.979   3.814   4.195  1.0055  0.7718  0.4702
  108MOL    H2921643   6.940   3.878   4.351  1.8849 -0.6177  3.1361
  108MOL    H3021644   7.120   3.648   4.300 -1.9059  0.1161 -0.3834
  108MOL    H3121645   7.069   3.675   4.463 -0.0745  0.4393  0.6809
  108MOL    O3221646   7.198   3.824   4.390 -0.3327 -0.0301  0.0663
  108MOL    C3321647   7.316   3.772   4.455 -0.1739 -0.5717 -0.6276
  108MOL    C3421648   7.421   3.883   4.479 -0.1254 -0.5866 -0.1475
  108MOL    C3521649   7.454   3.958   4.352  0.5952 -0.5088 -0.1538
  108MOL    H3621650   7.356   3.694   4.391 -0.0809  0.2559 -1.5869
  108MOL    H3721651   7.295   3.724   4.550 -2.0240 -1.5999 -1.5169
  108MOL    H3821652   7.377   3.959   4.544  0.5194  0.0550 -0.4619
  108MOL    H3921653   7.510   3.845   4.529 -0.4096 -0.5898  0.3640
  108MOL    H4021654   7.489   4.060   4.369  1.4708 -0.5764 -1.4251
  108MOL    H4121655   7.371   3.955   4.282 -0.0045  0.4757  0.5092
  108MOL    O4221656   7.553   3.889   4.270  0.1331 -0.4404 -0.1397
  108MOL    C4321657   7.630   3.974   4.191  0.2630 -0.0047 -0.2938
  108MOL    C4421658   7.716   3.888   4.099 -0.1393  1.1189  0.8604
  108MOL    C4521659   0.009   3.978   4.002  0.6711 -0.2184 -0.6861
  108MOL    H4621660   7.682   4.045   4.255 -0.6952  2.1199 -1.7889
  108MOL    H4721661   7.577   4.039   4.121 -0.3320 -0.7459 -0.5397
  108MOL    H4821662   7.779   3.827   4.162  1.0903 -1.7011 -2.9026
  108MOL    H4921663   7.671   3.814   4.032  1.6532  1.1529 -0.4051
  108MOL    H5021664   0.093   4.031   4.049  1.8632 -1.7828 -1.0083
  108MOL    H5121665   7.752   4.063   3.951  1.6822 -0.4359 -1.9694
  108MOL    O5221666   0.063   3.902   3.897 -0.1549 -0.1303  0.6456
  108MOL    C5321667   0.139   3.976   3.798  0.5052 -0.3980  0.0958
  108MOL    C5421668   0.256   3.888   3.750 -0.4177  0.5448 -0.4094
  108MOL    C5521669   0.202   3.783   3.646 -0.0939 -0.2855  0.3586
  108MOL    H5621670   0.178   4.072   3.832  0.3538 -0.1723 -0.3681
  108MOL    H5721671   0.067   3.992   3.719  0.5461  1.8982  0.4851
  108MOL    H5821672   0.328   3.954   3.703 -0.5468  0.6873 -0.4069
  108MOL    H5921673   0.298   3.832   3.834  0.8869  1.9206 -0.1193
  108MOL    H6021674   0.137   3.829   3.571  1.0349 -0.5127 -0.7795
  108MOL    H6121675   0.137   3.710   3.694 -0.1283 -1.5143 -1.5082
  108MOL    O6221676   0.320   3.732   3.578 -0.1547  0.0765  0.1625
  108MOL    C6321677   0.277   3.647   3.477 -0.2908  0.2417 -0.2542
  108MOL    C6421678   0.394   3.563   3.427  0.5721  0.3158 -0.4137
  108MOL    C6521679   0.353   3.433   3.360  0.7259  0.4276 -0.1578
  108MOL    H6621680   0.237   3.703   3.392  1.2742 -0.1024 -1.2574
  108MOL    H6721681   0.198   3.587   3.521  0.6288 -1.0169 -0.3050
  108MOL    H6821682   0.447   3.630   3.358  1.1481 -0.7896 -1.0663
  108MOL    H6921683   0.455   3.533   3.512 -2.0231 -1.3100  0.9224
  108MOL    H7021684   0.267   3.386   3.406  1.0018  0.2611  0.1912
  108MOL    H7121685   0.438   3.366   3.352  0.5219 -0.0892  1.7303
  108MOL    O7221686   0.319   3.473   3.223  0.1082  0.3225 -0.1102
  108MOL    C7321687   0.275   3.363   3.135  0.4134 -0.3651  0.3807
  108MOL    C7421688   0.376   3.321   3.032  0.0044 -0.3329 -0.8983
  108MOL    C7521689   0.330   3.214   2.934  0.3360  0.6881 -0.0979
  108MOL    H7621690   0.183   3.381   3.079  0.7118 -0.3964 -0.1187
  108MOL    H7721691   0.247   3.278   3.197 -2.8095  1.0751  1.0095
  108MOL    H7821692   0.412   3.408   2.978  0.5442  2.0277  3.0339
  108MOL    H7921693   0.463   3.289   3.090  0.2043  1.9211  0.1248
  108MOL    H8021694   0.407   3.189   2.861  0.0006 -3.5401  0.9022
  108MOL    H8121695   0.251   3.248   2.867 -0.1769  0.9138  0.6289
  108MOL    O8221696   0.287   3.097   3.002  0.1061 -0.6940  0.0142
  108MOL    C8321697   0.236   2.988   2.926  0.2060 -0.3881  0.0226
  108MOL    C8421698   0.341   2.895   2.867 -0.1072  0.3802  0.8326
  108MOL    C8521699   0.294   2.782   2.772  0.4233  0.2604 -0.1721
  108MOL    H8621700   0.170   3.028   2.849 -1.5725  1.0462  2.2082
  108MOL    H8721701   0.163   2.936   2.987 -2.0136  0.1642 -2.0733
  108MOL    H8821702   0.426   2.948   2.823  1.6477 -1.7774  1.5576
  108MOL    H8921703   0.388   2.832   2.942 -0.0235 -2.1349 -1.2829
  108MOL    H9021704   0.379   2.717   2.750 -1.0870 -1.4756 -1.0124
  108MOL    H9121705   0.259   2.820   2.676  0.9329 -1.3740 -1.0265
  108MOL    O9221706   0.181   2.715   2.835  0.0535 -0.1927  0.5795
  108MOL    C9321707   0.058   2.735   2.771 -0.3848 -0.8291 -0.6862
  108MOL    C9421708   7.743   2.651   2.836  0.9003 -0.2264 -0.3336
  108MOL    C9521709   7.696   2.709   2.974  0.2824 -0.7580 -0.2071
  108MOL    H9621710   0.080   2.694   2.673  2.5774 -0.0245 -0.3986
  108MOL    H9721711   0.024   2.838   2.754 -0.4075 -0.9326 -1.2906
  108MOL    H9821712   7.652   2.640   2.776 -0.0025  1.0674  0.7557
  108MOL    H9921713   7.785   2.552   2.847  1.2167 -0.0828 -0.2390
  108MOL   H10021714   7.772   2.697   3.051 -1.2837 -0.2023  1.4832
  108MOL   H10121715   7.610   2.661   3.021 -2.0066 -0.1441 -3.5473
  108MOL   O10221716   7.667   2.846   2.963  0.0462  0.2194  0.6146
  108MOL   C10321717   7.631   2.908   3.083 -0.4133 -0.1873  0.1049
  108MOL   C10421718   7.671   3.056   3.071  0.6647  0.9086  0.1251
  108MOL   C10521719   7.627   3.139   3.187  0.0547 -0.3420  0.0494
  108MOL   H10621720   7.679   2.863   3.171 -3.0820 -0.6306  1.3996
  108MOL   H10721721   7.522   2.897   3.077 -0.7124  1.9668  1.2215
  108MOL   H10821722   7.780   3.053   3.061  0.8424  0.6664  1.9916
  108MOL   H10921723   7.631   3.103   2.981 -0.8510  0.5354  0.5889
  108MOL   H11021724   7.672   3.107   3.281 -2.3448 -2.2573  0.5890
  108MOL   H11121725   7.518   3.140   3.187  0.0202 -2.7045  0.4537
  108MOL   O11221726   7.681   3.277   3.169  0.4430  0.3041  0.0322
  108MOL   C11321727   7.598   3.366   3.247 -0.2197 -0.6539  0.1862
  108MOL   C11421728   7.649   3.505   3.211  0.5424  0.6479 -0.1078
  108MOL   C11521729   7.692   3.576   3.340  0.3395 -0.1451 -0.4694
  108MOL   H11621730   7.616   3.352   3.353 -2.4470  0.8620  0.8228
  108MOL   H11721731   7.493   3.339   3.238 -0.3713 -0.8968  2.3911
  108MOL   H11821732   7.733   3.500   3.141 -0.3413  0.6291 -1.1841
  108MOL   H11921733   7.576   3.568   3.161 -0.0332  1.1263  1.3204
  108MOL   H12021734   7.736   3.672   3.310  0.0482  0.4203  0.8673
  108MOL   H12121735   7.768   3.518   3.392 -0.8787 -0.5414  0.9233
  108MOL   O12221736   7.587   3.609   3.430 -0.2094  0.3021  0.0119
  108MOL   C12321737   7.622   3.706   3.534 -0.0420 -0.1768  0.9235
  108MOL   C12421738   7.489   3.719   3.611 -0.2217 -0.4154 -0.1006
  108MOL   C12521739   7.488   3.806   3.738  0.0362 -0.3140  0.3058
  108MOL   H12621740   7.652   3.803   3.494  0.2725 -1.0266 -0.9146
  108MOL   H12721741   7.707   3.663   3.588 -0.2731 -0.0249  1.4115
  108MOL   H12821742   7.415   3.760   3.543  0.8290 -1.4540 -1.9235
  108MOL   H12921743   7.471   3.614   3.633 -2.1263  0.0222  0.4588
  108MOL   H13021744   7.486   3.913   3.718  0.9255 -0.1439  1.0557
  108MOL   H13121745   7.570   3.785   3.806  0.6304  0.5648 -0.1199
  108MOL   O13221746   7.366   3.779   3.794 -0.1140 -0.8222  0.6225
  108MOL   C13321747   7.342   3.851   3.912 -0.0291  0.0956 -0.6589
  108MOL   C13421748   7.212   3.793   3.966  0.4279 -0.3680 -0.0449
  108MOL   C13521749   7.203   3.644   3.988  0.2229 -0.3030 -0.6450
  108MOL   H13621750   7.323   3.957   3.897  0.2260 -0.2658 -3.8652
  108MOL   H13721751   7.417   3.826   3.987 -0.3121  1.6278  0.1546
  108MOL   H13821752   7.193   3.838   4.064 -0.1904 -0.3908 -0.1548
  108MOL   H13921753   7.135   3.825   3.896 -0.7094 -0.7326  1.0083
  108MOL   H14021754   7.290   3.605   4.040  0.3279  1.2428  0.4010
  108MOL   H14121755   7.201   3.603   3.888 -2.4058 -0.3327 -0.6051
  108MOL   O14221756   7.075   3.608   4.045 -0.0585  0.3528  0.5135
  108MOL   C14321757   7.064   3.464   4.068  0.2854 -0.2139  0.1288
  108MOL   C14421758   7.160   3.408   4.177 -0.4000 -0.1270  0.4797
  108MOL   C14521759   7.152   3.256   4.168  0.0027  1.0512 -0.0718
  108MOL   H14621760   7.089   3.424   3.969  0.0427  0.1808 -0.0969
  108MOL   H14721761   6.964   3.434   4.099  0.4518  0.0019  0.8679
  108MOL   H14821762   7.259   3.449   4.157 -0.8232  0.9880  0.6326
  108MOL   H14921763   7.123   3.446   4.272 -0.5858  1.4859 -0.2133
  108MOL   H15021764   7.062   3.208   4.205 -0.3874  1.0124 -1.0668
  108MOL   H15121765   7.218   3.219   4.247 -2.1172 -0.1371  1.1801
  108MOL   O15221766   7.198   3.206   4.041 -0.0926 -0.2563  0.0682
  108MOL   C15321767   7.159   3.076   4.004 -0.2907  0.2580 -0.0110
  108MOL   C15421768   7.245   3.016   3.897 -0.3670  0.0764 -0.5567
  108MOL   C15521769   7.203   2.873   3.867 -0.2859  0.3157 -0.7831
  108MOL   H15621770   7.057   3.076   3.966  0.1807 -0.4142 -1.2875
  108MOL   H15721771   7.167   3.009   4.090 -2.3048  0.3663  0.2887
  108MOL   H15821772   7.254   3.079   3.808 -2.5035 -1.3627 -1.8311
  108MOL   H15921773   7.343   3.011   3.945 -0.6617  0.5272  0.1010
  108MOL   H16021774   7.211   2.828   3.966  1.0816  1.0184 -0.5594
  108MOL   H16121775   7.275   2.820   3.806  0.4763 -0.3891  0.6952
  108MOL   O16221776   7.072   2.865   3.812  0.1565  0.0459  0.5323
  108MOL   C16321777   7.023   2.732   3.794  0.1570 -0.2861  0.2874
  108MOL   C16421778   6.897   2.747   3.716 -0.2234  0.2233 -0.5172
  108MOL   C16521779   6.818   2.616   3.691  0.2090 -0.1056  0.8791
  108MOL   H16621780   6.994   2.686   3.889 -1.3445 -0.6873 -0.3655
  108MOL   H16721781   7.098   2.666   3.751  3.3345  1.7144  2.4767
  108MOL   H16821782   6.833   2.822   3.762 -0.7659 -0.7692  0.3652
  108MOL   H16921783   6.924   2.805   3.627 -0.6480  0.3599 -0.5568
  108MOL   H17021784   6.718   2.625   3.648  0.3753 -0.5485  0.3934
  108MOL   H17121785   6.798   2.571   3.788  1.8079 -0.7495  0.9310
  108MOL   O17221786   6.882   2.524   3.608  0.0152 -0.0227 -0.2289
  108MOL   C17321787   6.932   2.565   3.477 -0.3847 -0.3861  0.2429
  108MOL   C17421788   7.017   2.461   3.403  0.4427 -0.1721  0.3475
  108MOL   C17521789   6.934   2.325   3.405 -0.8147 -0.3959 -0.5912
  108MOL   H17621790   6.990   2.657   3.475 -1.4939  0.3976  2.4124
  108MOL   H17721791   6.843   2.585   3.417  0.2096 -0.9498 -0.8422
  108MOL   H17821792   7.036   2.492   3.300 -1.0377  0.6622  0.2998
  108MOL   H17921793   7.114   2.448   3.451 -0.2135  1.3622  2.1590
  108MOL   H18021794   6.831   2.345   3.374 -0.7841  1.2584  0.2995
  108MOL   H18121795   6.934   2.281   3.505  3.8848  0.7811  0.0281
  108MOL   O18221796   7.000   2.232   3.323 -0.1880 -0.5936  0.1237
  108MOL   C18321797   6.915   2.125   3.289 -0.4582  0.3989 -0.0307
  108MOL   C18421798   6.994   2.023   3.204  0.3521  0.4670  0.6540
  108MOL   C18521799   6.909   1.895   3.193  0.5421  0.2690  0.1471
  108MOL   H18621800   6.832   2.172   3.238  0.5715  3.3262  0.8940
  108MOL   H18721801   6.871   2.083   3.380  0.3760  0.9651  0.6472
  108MOL   H18821802   7.007   2.059   3.102 -0.8847 -1.7408 -0.3180
  108MOL   H18921803   7.080   2.000   3.267 -1.9169  0.2356  3.7986
  108MOL   H19021804   6.963   1.843   3.113  0.1741 -3.2876  2.1458
  108MOL   H19121805   6.810   1.909   3.150  0.7742  1.6822  0.0210
  108MOL   O19221806   6.914   1.820   3.312  0.7720 -0.0298  0.7554
  108MOL   C19321807   6.835   1.697   3.313  0.1036 -0.3959  0.5448
  108MOL   C19421808   6.849   1.629   3.453 -0.5114  0.3011  0.0106
  108MOL   C19521809   6.989   1.569   3.478 -0.6122 -0.6093  0.4774
  108MOL   H19621810   6.863   1.619   3.242 -2.6637 -0.0520 -0.9993
  108MOL   H19721811   6.729   1.713   3.292  0.6831  0.2010 -2.2200
  108MOL   H19821812   6.846   1.704   3.532  4.2115  0.3549  0.2631
  108MOL   H19921813   6.776   1.554   3.483  1.2932 -1.5701 -0.1934
  108MOL   H20021814   7.009   1.539   3.581  0.6988 -0.5217  0.2597
  108MOL   H20121815   7.062   1.648   3.456 -1.5276  0.6315  1.8219
  108MOL   H20221816   7.011   1.489   3.408  0.5655 -1.0607  1.3508
  109MOL     O121817   0.840   3.130   2.472 -0.1470  0.1576 -0.5149
  109MOL     C221818   0.973   3.114   2.447 -0.7477  0.2165 -0.3117
  109MOL     C321819   1.041   3.032   2.561  0.1524 -0.4981 -0.3140
  109MOL     C421820   1.193   3.019   2.526  0.2022 -0.4979  0.5387
  109MOL     H521821   1.029   3.208   2.446  1.2065 -0.9134 -0.0032
  109MOL     H621822   0.995   3.052   2.360  2.4026 -2.1829  2.0659
  109MOL     H721823   1.023   3.086   2.654 -0.2944 -2.9823  1.0894
  109MOL     H821824   0.996   2.934   2.581  0.7450 -0.4677  1.2761
  109MOL     H921825   1.252   2.978   2.607 -0.8330 -0.1685  1.4684
  109MOL    H1021826   1.227   3.121   2.505  0.7518 -0.2103  2.7770
  109MOL    H1121827   0.825   3.173   2.555  1.2227 -2.0686  0.9400
  109MOL    O1221828   1.214   2.936   2.414  0.0231  0.4253 -0.0674
  109MOL    C1321829   1.204   2.797   2.447 -0.0552  0.3262 -0.3678
  109MOL    C1421830   1.178   2.706   2.329  0.1340  0.4080 -0.5284
  109MOL    C1521831   1.190   2.561   2.374  0.6348  0.2813 -0.2592
  109MOL    H1621832   1.122   2.778   2.516  1.1466  0.6349  1.1767
  109MOL    H1721833   1.286   2.752   2.502 -0.4383  0.7761  0.5788
  109MOL    H1821834   1.086   2.731   2.276 -0.2056  0.4910  0.1026
  109MOL    H1921835   1.255   2.720   2.253  0.4634  1.1330 -0.0621
  109MOL    H2021836   1.126   2.535   2.458  2.0965 -1.8065  0.2379
  109MOL    H2121837   1.291   2.549   2.412  0.9214  2.1374 -0.3566
  109MOL    O2221838   1.154   2.474   2.266 -0.2208 -0.4610  0.2391
  109MOL    C2321839   1.187   2.331   2.289  0.3410  0.3299  0.5324
  109MOL    C2421840   1.153   2.258   2.154  0.4825 -0.3086  0.2521
  109MOL    C2521841   1.246   2.303   2.037  0.2039  0.1869  0.4778
  109MOL    H2621842   1.132   2.284   2.370 -0.8465  0.4483 -0.1814
  109MOL    H2721843   1.293   2.321   2.312  0.5280  1.1489  0.0675
  109MOL    H2821844   1.155   2.150   2.168 -3.9939 -0.4849  0.1046
  109MOL    H2921845   1.050   2.283   2.128  0.4797 -1.6864 -1.1303
  109MOL    H3021846   1.270   2.409   2.035 -1.3875  0.5523 -0.7521
  109MOL    H3121847   1.204   2.283   1.938 -0.7043 -3.3108  1.4903
  109MOL    O3221848   1.367   2.225   2.047 -0.6258 -0.0737 -0.1269
  109MOL    C3321849   1.465   2.254   1.942  0.7940  0.7942  1.0469
  109MOL    C3421850   1.575   2.145   1.955  0.0149  0.6524  0.5392
  109MOL    C3521851   1.616   2.091   1.824 -0.5132 -0.4630 -0.1787
  109MOL    H3621852   1.504   2.355   1.932  1.0225  0.4965 -1.5304
  109MOL    H3721853   1.405   2.238   1.852  1.2242 -0.5619  1.0008
  109MOL    H3821854   1.660   2.174   2.018 -0.0125 -1.3047  1.5249
  109MOL    H3921855   1.538   2.056   2.007 -1.8011  1.2803  0.3768
  109MOL    H4021856   1.657   2.167   1.757  0.6655 -0.3689  0.6266
  109MOL    H4121857   1.527   2.033   1.800 -1.6111  1.9374 -2.1293
  109MOL    O4221858   1.718   1.993   1.848  0.6878  0.1837  0.1644
  109MOL    C4321859   1.764   1.953   1.719 -0.8994 -0.3982 -0.3937
  109MOL    C4421860   1.819   1.811   1.739 -0.4342  0.3214  0.0269
  109MOL    C4521861   1.720   1.714   1.806  0.1439  0.2219 -0.6303
  109MOL    H4621862   1.843   2.021   1.687 -0.3515 -0.7284  0.2568
  109MOL    H4721863   1.686   1.950   1.642 -1.3721 -1.8236  0.1293
  109MOL    H4821864   1.846   1.776   1.639 -2.2002 -2.4893  0.4870
  109MOL    H4921865   1.913   1.805   1.794 -0.1652 -1.2887 -0.5736
  109MOL    H5021866   1.619   1.724   1.768  0.4240  1.8054 -0.9930
  109MOL    H5121867   1.705   1.743   1.909  2.0277  2.5230 -0.9640
  109MOL    O5221868   1.764   1.582   1.785  0.1977 -0.5735 -0.5238
  109MOL    C5321869   1.825   1.523   1.897 -0.0925  0.4988  0.5576
  109MOL    C5421870   1.895   1.386   1.849 -0.7401  0.2177  0.0797
  109MOL    C5521871   1.997   1.416   1.742  0.6100 -0.6522  0.0879
  109MOL    H5621872   1.747   1.503   1.971  1.3658  0.1159  2.0230
  109MOL    H5721873   1.899   1.599   1.924 -0.1972  2.2526 -3.7737
  109MOL    H5821874   1.942   1.337   1.934  0.2625  0.1906 -0.4886
  109MOL    H5921875   1.819   1.315   1.818 -2.1602  1.1053  1.4266
  109MOL    H6021876   2.082   1.464   1.791 -0.3121 -0.0750  1.1445
  109MOL    H6121877   1.956   1.479   1.663 -1.9622 -0.4911  1.4964
  109MOL    O6221878   2.026   1.290   1.678 -0.2657  0.5502  0.3852
  109MOL    C6321879   2.128   1.303   1.579  0.7164  0.2558  0.0372
  109MOL    C6421880   2.122   1.171   1.497  0.0086 -0.0383  0.1839
  109MOL    C6521881   2.225   1.136   1.387 -0.1105 -0.3224  0.3239
  109MOL    H6621882   2.220   1.330   1.631 -1.0879  3.5351  1.6817
  109MOL    H6721883   2.106   1.387   1.512  0.9293  0.5230  0.3013
  109MOL    H6821884   2.128   1.090   1.569 -1.2416 -0.8866 -0.6464
  109MOL    H6921885   2.017   1.166   1.470 -1.1414  1.4718  4.0008
  109MOL    H7021886   2.221   1.030   1.360 -0.6584 -0.2961  0.2886
  109MOL    H7121887   2.321   1.137   1.438  0.1950  1.4659 -0.2323
  109MOL    O7221888   2.210   1.234   1.279  0.0457 -0.0069 -0.2900
  109MOL    C7321889   2.091   1.225   1.196  0.0248  0.3221  0.4004
  109MOL    C7421890   2.103   1.308   1.063 -0.0750 -0.5772  0.2695
  109MOL    C7521891   1.983   1.297   0.976 -0.2282 -0.9283  0.4319
  109MOL    H7621892   1.992   1.254   1.231 -1.0587 -2.0268 -0.6052
  109MOL    H7721893   2.083   1.118   1.179 -1.4488  0.2116  1.6885
  109MOL    H7821894   2.120   1.415   1.078 -0.6622 -0.4337 -0.0656
  109MOL    H7921895   2.186   1.273   1.002 -2.1306 -1.7497 -1.9323
  109MOL    H8021896   1.980   1.200   0.925  1.6629 -0.5112 -0.5099
  109MOL    H8121897   1.990   1.378   0.903 -0.8596 -0.2483  1.1220
  109MOL    O8221898   1.860   1.318   1.052  0.2230  0.3022  0.1130
  109MOL    C8321899   1.742   1.303   0.973 -0.4122  0.4066  0.6258
  109MOL    C8421900   1.617   1.304   1.063 -0.2433 -0.0637 -0.7775
  109MOL    C8521901   1.478   1.310   0.996  0.0671 -0.0158  0.3074
  109MOL    H8621902   1.734   1.201   0.935 -0.5953  0.7742 -0.3183
  109MOL    H8721903   1.738   1.377   0.893  0.8593 -0.3143 -0.1222
  109MOL    H8821904   1.627   1.212   1.121 -0.0826  0.7693  0.5204
  109MOL    H8921905   1.629   1.389   1.130  0.9128 -1.2280  0.5338
  109MOL    H9021906   1.460   1.218   0.941  0.6471  0.7462 -1.1939
  109MOL    H9121907   1.479   1.389   0.921 -2.2103  0.4843  0.7449
  109MOL    O9221908   1.388   1.342   1.105 -0.5616  0.1044 -0.0120
  109MOL    C9321909   1.258   1.345   1.074 -0.1549 -0.0105 -0.0804
  109MOL    C9421910   1.168   1.379   1.197  0.6255  0.1164 -0.3815
  109MOL    C9521911   1.159   1.520   1.227  0.4961  0.0644 -0.5350
  109MOL    H9621912   1.236   1.243   1.040  1.4129 -0.4006  0.0313
  109MOL    H9721913   1.237   1.422   1.000  0.1360 -0.6137 -0.8026
  109MOL    H9821914   1.070   1.337   1.176  1.5910 -0.6817 -3.7416
  109MOL    H9921915   1.209   1.329   1.285  2.5199 -0.1828 -1.3909
  109MOL   H10021916   1.111   1.571   1.144  1.2666  1.4180 -0.1691
  109MOL   H10121917   1.258   1.565   1.235 -0.1093  1.3712 -0.2392
  109MOL   O10221918   1.088   1.539   1.352  0.3391  0.1268  0.2177
  109MOL   C10321919   1.062   1.675   1.379 -0.5498  0.2435  0.2428
  109MOL   C10421920   1.059   1.686   1.532 -0.2732  0.4653 -0.3865
  109MOL   C10521921   1.059   1.832   1.575  0.0619 -0.5404  0.3514
  109MOL   H10621922   0.972   1.707   1.327 -1.1447  0.2503  1.2674
  109MOL   H10721923   1.136   1.739   1.332 -3.4110  1.6885 -2.5004
  109MOL   H10821924   0.978   1.626   1.573  1.1954 -1.4347 -0.1874
  109MOL   H10921925   1.150   1.645   1.575  1.1029  1.9500 -1.8046
  109MOL   H11021926   0.974   1.879   1.525 -0.0904 -1.9107 -0.6898
  109MOL   H11121927   1.144   1.885   1.534 -0.7952  0.1485 -0.5538
  109MOL   O11221928   1.051   1.835   1.718  1.2145  0.2892 -0.1907
  109MOL   C11321929   1.103   1.956   1.771 -0.1808  0.2907 -0.2317
  109MOL   C11421930   1.079   1.964   1.920  0.4138 -0.3643 -0.3080
  109MOL   C11521931   0.921   1.968   1.955 -0.2818 -0.3729  0.5024
  109MOL   H11621932   1.066   2.042   1.716 -2.4448  0.1232  0.9529
  109MOL   H11721933   1.210   1.963   1.753 -0.2202  0.7142 -0.2932
  109MOL   H11821934   1.121   1.883   1.979  0.0541 -0.5764 -0.3384
  109MOL   H11921935   1.134   2.049   1.961 -1.2617  0.2652  0.6891
  109MOL   H12021936   0.865   1.881   1.921 -1.0819  0.7689 -1.1867
  109MOL   H12121937   0.879   2.064   1.923  2.9332  1.1431  0.5714
  109MOL   O12221938   0.923   1.958   2.097 -0.4725  0.7293  0.2037
  109MOL   C12321939   0.811   2.019   2.158 -0.0592 -0.0174 -0.3471
  109MOL   C12421940   0.800   1.986   2.311 -0.1178 -0.6510  0.3444
  109MOL   C12521941   0.882   2.084   2.392 -0.2084 -0.2558 -0.0005
  109MOL   H12621942   0.712   2.003   2.116 -0.5073 -5.0390  2.1730
  109MOL   H12721943   0.827   2.125   2.144  1.5437 -0.2212 -0.1064
  109MOL   H12821944   0.697   1.983   2.345 -0.5685 -0.4026 -0.9734
  109MOL   H12921945   0.846   1.888   2.330 -0.5141 -1.0951 -0.9462
  109MOL   H13021946   0.957   2.132   2.329  0.2162 -0.2362  0.5134
  109MOL   H13121947   0.926   2.028   2.474 -1.3891 -1.8054 -0.4032
  109MOL   O13221948   0.793   2.182   2.452 -0.7741 -0.0383  0.3541
  109MOL   C13321949   0.865   2.301   2.487 -0.4062  0.2416 -0.0157
  109MOL   C13421950   0.786   2.378   2.587  0.1829 -0.5734 -0.2403
  109MOL   C13521951   0.662   2.445   2.523 -0.9276 -0.3723 -0.5230
  109MOL   H13621952   0.883   2.362   2.399  1.5546 -0.4770 -0.1384
  109MOL   H13721953   0.966   2.280   2.523  0.2062 -0.6210 -2.1461
  109MOL   H13821954   0.748   2.311   2.664 -2.0381  1.5900  0.6280
  109MOL   H13921955   0.841   2.457   2.638  0.1967 -0.8059  0.1142
  109MOL   H14021956   0.583   2.372   2.503 -1.8047  0.6797 -1.0001
  109MOL   H14121957   0.688   2.490   2.427  2.8647  0.4259  0.7984
  109MOL   O14221958   0.613   2.546   2.613  0.3905 -0.0568  0.0280
  109MOL   C14321959   0.630   2.679   2.576  0.0827  0.6141  0.2380
  109MOL   C14421960   0.772   2.720   2.595  0.5646  0.7465 -0.3726
  109MOL   C14521961   0.819   2.733   2.742 -0.2308 -0.5930 -0.0068
  109MOL   H14621962   0.574   2.731   2.654 -0.9954 -2.6878  1.7127
  109MOL   H14721963   0.588   2.694   2.476 -1.2220 -0.7863  0.5547
  109MOL   H14821964   0.840   2.654   2.541  0.0095 -0.3601  0.2569
  109MOL   H14921965   0.784   2.817   2.547  1.1053 -0.3118 -2.4293
  109MOL   H15021966   0.781   2.656   2.809 -0.1070 -1.2427 -0.6827
  109MOL   H15121967   0.793   2.829   2.787 -0.8284 -1.7368  2.1315
  109MOL   O15221968   0.959   2.738   2.721 -0.3617 -0.2394  0.2949
  109MOL   C15321969   1.038   2.722   2.836  0.2005 -0.0994 -0.2262
  109MOL   C15421970   1.179   2.691   2.774  0.2923 -0.4642 -0.8469
  109MOL   C15521971   1.280   2.637   2.879 -0.5760 -0.9899 -0.7805
  109MOL   H15621972   0.994   2.643   2.896 -0.0047  1.8175  2.2233
  109MOL   H15721973   1.037   2.814   2.893  1.9110 -0.8519  1.0499
  109MOL   H15821974   1.152   2.612   2.704 -2.1687  0.1849 -0.6858
  109MOL   H15921975   1.225   2.768   2.712 -0.7488 -0.1773 -1.2720
  109MOL   H16021976   1.252   2.540   2.919 -1.7526 -1.1108 -1.8845
  109MOL   H16121977   1.278   2.713   2.957 -1.6257 -0.7965 -0.9865
  109MOL   O16221978   1.406   2.653   2.819  0.4584  0.1041 -0.2406
  109MOL   C16321979   1.508   2.666   2.921 -0.0722  0.0827  0.3563
  109MOL   C16421980   1.607   2.764   2.860 -0.4015 -0.4104  0.1590
  109MOL   C16521981   1.741   2.765   2.939  0.2166 -0.6042  0.0693
  109MOL   H16621982   1.551   2.571   2.953 -0.3260 -0.8902 -2.0713
  109MOL   H16721983   1.466   2.703   3.015 -0.1268  0.9135  0.0096
  109MOL   H16821984   1.625   2.737   2.756 -0.1482 -0.9435  0.3384
  109MOL   H16921985   1.567   2.865   2.866 -0.7497 -0.4684 -1.0825
  109MOL   H17021986   1.792   2.668   2.937 -1.1766 -1.3463  0.1446
  109MOL   H17121987   1.732   2.789   3.045 -2.0900  0.9288 -0.4430
  109MOL   O17221988   1.823   2.864   2.883 -0.3184  0.0004 -0.3249
  109MOL   C17321989   1.953   2.889   2.938  0.5487  0.8259  0.3610
  109MOL   C17421990   2.058   2.894   2.830 -0.2843 -0.2555 -0.3175
  109MOL   C17521991   2.196   2.938   2.878  0.2639  0.3912 -0.0258
  109MOL   H17621992   1.970   2.812   3.014 -0.0868 -0.4404 -0.7483
  109MOL   H17721993   1.966   2.981   2.995  2.3963  0.4587  0.5729
  109MOL   H17821994   2.069   2.793   2.790  2.0472  0.5226 -1.7550
  109MOL   H17921995   2.033   2.962   2.748 -1.5003  0.4339  0.5996
  109MOL   H18021996   2.216   2.865   2.957 -1.8750  0.1783  0.3300
  109MOL   H18121997   2.194   3.038   2.922 -3.9676 -0.0317  0.9365
  109MOL   O18221998   2.282   2.946   2.761 -0.9833  0.6583  0.1430
  109MOL   C18321999   2.371   2.832   2.757 -0.0474 -0.4064 -0.7093
  109MOL   C18422000   2.503   2.858   2.830  0.1256  0.5732  0.0313
  109MOL   C18522001   2.578   2.978   2.776  0.1887 -0.0987  0.2368
  109MOL   H18622002   2.383   2.805   2.652  0.3389  1.0391 -1.0441
  109MOL   H18722003   2.315   2.742   2.784  0.5097 -0.6272 -0.2796
  109MOL   H18822004   2.483   2.873   2.936 -0.8837  0.8123 -0.1885
  109MOL   H18922005   2.573   2.775   2.831 -0.7198 -0.2078 -2.7397
  109MOL   H19022006   2.511   3.064   2.768  0.2044 -0.2962 -2.3837
  109MOL   H19122007   2.630   2.956   2.683 -0.0936 -1.3406  0.3688
  109MOL   O19222008   2.685   3.003   2.861 -0.3207 -0.0532  0.0894
  109MOL   C19322009   2.746   3.127   2.839 -0.1630 -0.1730 -0.4133
  109MOL   C19422010   2.865   3.131   2.944  0.1719  0.0372 -0.1069
  109MOL   C19522011   2.828   3.112   3.091  0.3831 -0.2730  0.7682
  109MOL   H19622012   2.680   3.213   2.850  0.5885  0.1982  1.2703
  109MOL   H19722013   2.789   3.127   2.739  3.5190  1.6260  1.0858
  109MOL   H19822014   2.930   3.048   2.918  0.3114  0.0024  0.3588
  109MOL   H19922015   2.926   3.219   2.926  1.8841 -1.0169  0.4555
  109MOL   H20022016   2.786   3.201   3.138  0.2992  1.1115 -1.8832
  109MOL   H20122017   2.920   3.081   3.141  0.2851 -3.5034 -0.8874
  109MOL   H20222018   2.747   3.039   3.102  0.9694 -1.5559 -2.7600
  110MOL     O122019   4.994   2.564   6.147 -0.6406  0.0113  0.1776
  110MOL     C222020   4.943   2.687   6.178  0.3441 -0.0597 -0.2899
  110MOL     C322021   4.893   2.696   6.324  0.6305  0.3169 -0.5475
  110MOL     C422022   4.856   2.835   6.372 -0.0986  0.1501 -0.3212
  110MOL     H522023   4.858   2.703   6.112  0.7931 -0.2896 -0.9284
  110MOL     H622024   5.013   2.767   6.157 -1.5015  2.0758  1.4383
  110MOL     H722025   4.805   2.632   6.332 -0.7668  2.2081 -0.3665
  110MOL     H822026   4.978   2.665   6.386  0.5207 -1.6141 -1.3269
  110MOL     H922027   4.924   2.913   6.338 -1.1591  0.4201 -1.8799
  110MOL    H1022028   4.860   2.830   6.481  0.1083 -1.0194 -0.3814
  110MOL    H1122029   5.024   2.570   6.058 -0.8227  0.3509  0.1387
  110MOL    O1222030   4.721   2.850   6.342  0.5528 -0.3391 -0.0065
  110MOL    C1322031   4.672   2.982   6.340  0.1958 -0.5833  0.0059
  110MOL    C1422032   4.525   2.983   6.291  0.1247  0.6208  0.3347
  110MOL    C1522033   4.425   2.921   6.391  0.4834  0.5207 -0.1833
  110MOL    H1622034   4.736   3.045   6.278  0.1692 -1.1057 -0.5614
  110MOL    H1722035   4.666   3.016   6.443 -0.0514 -0.2148 -0.1317
  110MOL    H1822036   4.501   3.089   6.282 -0.6623  0.8181  3.8611
  110MOL    H1922037   4.512   2.949   6.188  1.8647  4.2667 -1.1828
  110MOL    H2022038   4.432   2.970   6.488  0.1445  0.7061 -0.2498
  110MOL    H2122039   4.450   2.815   6.389 -0.8563  0.2007 -0.4920
  110MOL    O2222040   4.286   2.930   6.351 -0.3609 -0.2653 -0.0529
  110MOL    C2322041   4.201   2.881   6.451 -0.1652 -0.0484  0.6146
  110MOL    C2422042   4.058   2.846   6.399  0.2242 -0.3937 -0.0526
  110MOL    C2522043   4.058   2.712   6.323 -0.1465  0.4205 -0.6541
  110MOL    H2622044   4.197   2.966   6.520  1.0572 -1.3696  2.3659
  110MOL    H2722045   4.236   2.800   6.515 -1.5851 -0.4779  0.8494
  110MOL    H2822046   3.992   2.843   6.485  0.5559 -0.2591  0.2071
  110MOL    H2922047   4.035   2.926   6.329 -0.2544 -1.2468 -0.8938
  110MOL    H3022048   4.063   2.626   6.389  0.8761  2.2002  1.6668
  110MOL    H3122049   4.148   2.702   6.263  0.9272 -1.4387  1.2271
  110MOL    O3222050   3.958   2.698   6.226  0.4947 -0.0601  0.3641
  110MOL    C3322051   3.975   2.578   6.144  0.3645 -0.2751 -0.0886
  110MOL    C3422052   3.892   2.586   6.014  0.1205 -0.5009  0.4935
  110MOL    C3522053   3.914   2.474   5.915 -0.4236  0.6697 -0.0958
  110MOL    H3622054   3.971   2.488   6.205  0.9717 -2.2348 -2.8690
  110MOL    H3722055   4.078   2.573   6.111  0.5912 -0.4761  0.6599
  110MOL    H3822056   3.786   2.591   6.039 -0.0328  0.6600 -0.3893
  110MOL    H3922057   3.927   2.671   5.956  0.5169 -0.0183  1.4263
  110MOL    H4022058   3.902   2.378   5.965 -0.5142 -0.0401 -1.4576
  110MOL    H4122059   4.018   2.481   5.883  0.1632 -0.5625  1.4826
  110MOL    O4222060   3.814   2.488   5.812  0.3635 -0.4890  0.3490
  110MOL    C4322061   3.820   2.382   5.714 -0.0665 -0.3220 -0.1710
  110MOL    C4422062   3.716   2.390   5.601 -0.6094  0.0653  0.3054
  110MOL    C4522063   3.752   2.488   5.483  0.0344 -0.5040 -0.2689
  110MOL    H4622064   3.805   2.292   5.773  0.5013  0.0854  0.6100
  110MOL    H4722065   3.915   2.372   5.661  1.1303  0.2677  1.8147
  110MOL    H4822066   3.706   2.295   5.549  3.0092 -0.6002  0.7195
  110MOL    H4922067   3.621   2.421   5.646 -1.1379  0.7505 -1.2461
  110MOL    H5022068   3.855   2.460   5.459 -0.6060 -2.7535 -0.5464
  110MOL    H5122069   3.758   2.591   5.518  2.1459 -1.3521  2.0474
  110MOL    O5222070   3.671   2.469   5.368  0.2625 -0.2369 -0.2716
  110MOL    C5322071   3.677   2.574   5.273 -0.3074  0.6029 -0.0137
  110MOL    C5422072   3.804   2.592   5.184  0.1632  0.3291 -0.7941
  110MOL    C5522073   3.771   2.684   5.060 -0.2672 -0.0304 -0.0387
  110MOL    H5622074   3.670   2.668   5.329  2.3980  0.3404  0.8476
  110MOL    H5722075   3.590   2.565   5.208 -0.7507 -0.0234  0.6566
  110MOL    H5822076   3.891   2.616   5.245 -0.6687  0.2157  0.4552
  110MOL    H5922077   3.819   2.496   5.136 -0.5432 -0.1383 -0.0955
  110MOL    H6022078   3.700   2.633   4.995 -2.9600  3.1458  0.2999
  110MOL    H6122079   3.872   2.695   5.018 -0.4344  2.2619  0.0887
  110MOL    O6222080   3.714   2.814   5.096  0.2087 -0.0563  0.0212
  110MOL    C6322081   3.764   2.904   4.997  0.2301 -0.1875  0.7475
  110MOL    C6422082   3.696   3.039   5.017 -0.0978  0.4173  0.0720
  110MOL    C6522083   3.540   3.031   5.012  0.0753  0.3439  0.1994
  110MOL    H6622084   3.743   2.864   4.898  1.7769  0.8652 -0.0347
  110MOL    H6722085   3.869   2.931   4.997  0.3195 -0.5177  1.9443
  110MOL    H6822086   3.725   3.091   5.108  2.5518 -1.4828  0.3731
  110MOL    H6922087   3.729   3.109   4.940  1.9277  1.3272  1.7238
  110MOL    H7022088   3.505   2.971   5.096  0.0979  0.1931  0.1023
  110MOL    H7122089   3.509   2.985   4.919 -1.0037  2.0324 -0.2909
  110MOL    O7222090   3.492   3.163   5.032  0.3910 -0.4681  0.0656
  110MOL    C7322091   3.355   3.167   5.056  0.4391 -0.1562 -0.5574
  110MOL    C7422092   3.327   3.311   5.061 -0.5797 -0.0026  0.1963
  110MOL    C7522093   3.172   3.339   5.044  0.1027 -0.0562  0.5723
  110MOL    H7622094   3.329   3.113   5.147  1.0674 -2.4625 -1.6925
  110MOL    H7722095   3.301   3.125   4.971  0.2237 -1.5339  0.2502
  110MOL    H7822096   3.353   3.349   5.159 -2.5974  1.3302  0.2363
  110MOL    H7922097   3.378   3.372   4.986  1.4034 -1.2947  0.4510
  110MOL    H8022098   3.150   3.445   5.051 -1.3632 -0.3625  0.6991
  110MOL    H8122099   3.113   3.308   5.130 -2.2587  2.1431 -0.1914
  110MOL    O8222100   3.140   3.296   4.911  0.4802  0.1392 -0.2160
  110MOL    C8322101   3.004   3.301   4.893  0.6555 -0.0462 -0.0053
  110MOL    C8422102   2.963   3.285   4.752 -0.1750 -0.4102  0.1346
  110MOL    C8522103   3.053   3.385   4.663  0.3209  0.8356 -0.1110
  110MOL    H8622104   2.962   3.393   4.933 -0.2052 -0.8154  0.8758
  110MOL    H8722105   2.960   3.225   4.957  1.3150 -0.2964  0.1521
  110MOL    H8822106   2.992   3.185   4.720 -1.1878 -0.3494 -1.0184
  110MOL    H8922107   2.856   3.287   4.731 -0.1034  0.8111 -0.1843
  110MOL    H9022108   3.159   3.388   4.686  0.6159 -1.8743 -0.9018
  110MOL    H9122109   3.012   3.483   4.686 -0.6757  0.2493  0.6660
  110MOL    O9222110   3.034   3.362   4.528  0.1017 -0.2602 -0.4712
  110MOL    C9322111   3.134   3.440   4.457 -0.0438 -0.0801  0.4095
  110MOL    C9422112   3.078   3.465   4.319 -0.0401  0.2872 -0.4189
  110MOL    C9522113   3.000   3.591   4.322 -0.8181 -0.6218 -0.6957
  110MOL    H9622114   3.226   3.382   4.447 -0.0090  0.0652 -0.1424
  110MOL    H9722115   3.141   3.537   4.505 -2.3823  0.0850  0.4433
  110MOL    H9822116   3.154   3.472   4.242 -0.9522  0.0056 -1.3527
  110MOL    H9922117   3.013   3.385   4.284  0.3288 -0.6783  1.0514
  110MOL   H10022118   3.051   3.675   4.370  3.9163 -3.4467 -0.5091
  110MOL   H10122119   2.910   3.569   4.381 -1.3617 -0.7324 -1.5571
  110MOL   O10222120   2.971   3.622   4.191  0.1739 -0.4135 -0.0238
  110MOL   C10322121   2.878   3.730   4.194  0.0408  0.1691 -0.4898
  110MOL   C10422122   2.856   3.762   4.043 -0.8681  0.1870  0.4378
  110MOL   C10522123   2.973   3.834   3.969  0.3457 -0.7132 -0.3713
  110MOL   H10622124   2.925   3.815   4.242 -0.1425 -0.4163  0.7383
  110MOL   H10722125   2.786   3.705   4.247 -0.5077  2.8782 -0.0892
  110MOL   H10822126   2.835   3.667   3.994 -2.2148  0.5598  0.2774
  110MOL   H10922127   2.762   3.817   4.036 -0.4986  1.0762  2.1240
  110MOL   H11022128   3.066   3.803   4.015  0.7411 -0.9341 -1.3125
  110MOL   H11122129   2.962   3.938   3.997 -3.0520 -1.0352 -0.2317
  110MOL   O11222130   2.966   3.807   3.826 -0.1952  0.0172  0.5105
  110MOL   C11322131   3.038   3.896   3.743 -0.0062  0.5214  0.4117
  110MOL   C11422132   3.013   3.859   3.594 -0.7219  0.0482 -0.1477
  110MOL   C11522133   2.872   3.831   3.559 -0.1032 -0.1804  0.7273
  110MOL   H11622134   3.144   3.898   3.766  0.1701  2.2633 -0.4536
  110MOL   H11722135   3.001   3.998   3.757 -1.6038 -0.1242  1.0203
  110MOL   H11822136   3.067   3.924   3.526 -0.8704 -0.6780 -0.9626
  110MOL   H11922137   3.066   3.766   3.575 -0.0430  0.9787 -2.9440
  110MOL   H12022138   2.808   3.909   3.599 -0.2046  0.4429 -0.6221
  110MOL   H12122139   2.847   3.736   3.606  1.9174 -2.2591 -2.2075
  110MOL   O12222140   2.863   3.808   3.420 -0.0382 -0.3702  0.6456
  110MOL   C12322141   2.731   3.835   3.379 -0.0032 -0.5779 -0.0237
  110MOL   C12422142   2.704   3.784   3.233  0.6811 -0.0052  0.2728
  110MOL   C12522143   2.567   3.823   3.183  0.4120  0.2838 -0.0967
  110MOL   H12622144   2.724   3.943   3.392  0.6269 -0.3878 -1.2121
  110MOL   H12722145   2.654   3.781   3.433  0.6575 -1.8191 -0.3128
  110MOL   H12822146   2.782   3.828   3.172  0.5841 -0.1943  0.0149
  110MOL   H12922147   2.718   3.676   3.235 -0.9164 -0.2260  0.4822
  110MOL   H13022148   2.545   3.929   3.195  1.4703  0.6227 -1.0510
  110MOL   H13122149   2.496   3.762   3.239  1.5917 -0.8913  0.1358
  110MOL   O13222150   2.547   3.783   3.048  0.1051  0.4509  0.7029
  110MOL   C13322151   2.415   3.798   3.002 -0.4006 -1.0218  0.2441
  110MOL   C13422152   2.426   3.794   2.844  0.3199 -0.0229  0.0871
  110MOL   C13522153   2.287   3.816   2.774 -0.7322  0.2645  0.1887
  110MOL   H13622154   2.363   3.887   3.038  0.7665 -0.3400  0.2440
  110MOL   H13722155   2.359   3.708   3.028 -0.4490 -1.5447 -1.6633
  110MOL   H13822156   2.498   3.871   2.815 -1.8070  3.1031  2.7848
  110MOL   H13922157   2.479   3.702   2.819 -1.6008 -1.0108 -0.4469
  110MOL   H14022158   2.213   3.749   2.819 -0.5700 -0.2826 -0.3547
  110MOL   H14122159   2.288   3.803   2.666  2.5225  3.3106 -0.2099
  110MOL   O14222160   2.245   3.948   2.797  0.3911 -0.0218 -0.0410
  110MOL   C14322161   2.106   3.964   2.750 -0.6472 -0.6442 -0.5745
  110MOL   C14422162   2.062   4.107   2.771 -0.2984 -0.6839 -0.0142
  110MOL   C14522163   2.142   4.205   2.680  0.1986 -0.6920  0.0998
  110MOL   H14622164   2.033   3.902   2.802 -0.9595  0.7614  0.7089
  110MOL   H14722165   2.099   3.937   2.645 -1.6612 -0.9844 -0.4193
  110MOL   H14822166   1.958   4.105   2.737  0.6151  1.4007 -3.1206
  110MOL   H14922167   2.069   4.151   2.871 -0.2079 -1.1111  0.1695
  110MOL   H15022168   2.152   4.162   2.580  0.5551 -1.7353  0.5817
  110MOL   H15122169   2.241   4.216   2.725 -0.3956  1.4867  0.9688
  110MOL   O15222170   2.075   4.328   2.653 -0.2331  0.1127 -0.3594
  110MOL   C15322171   2.156   4.424   2.575  0.1042  0.1785 -0.2932
  110MOL   C15422172   2.281   4.474   2.646 -0.2152 -0.5249  0.1186
  110MOL   C15522173   2.367   4.583   2.569  0.4607  0.3131 -0.0650
  110MOL   H15622174   2.093   4.512   2.560 -0.0692  0.5250  2.2306
  110MOL   H15722175   2.166   4.374   2.479  1.1979 -0.9735  0.4011
  110MOL   H15822176   2.251   4.525   2.737 -1.1293  1.9360 -1.5152
  110MOL   H15922177   2.352   4.396   2.673 -0.6823 -0.9418  0.1452
  110MOL   H16022178   2.326   4.683   2.577  0.1170  0.0665  1.5208
  110MOL   H16122179   2.369   4.569   2.461  1.1926  1.6920 -0.2402
  110MOL   O16222180   2.502   4.587   2.616  0.0543 -0.3221 -0.2668
  110MOL   C16322181   2.527   4.630   2.747  0.0278  0.0186 -0.3219
  110MOL   C16422182   2.678   4.624   2.772  0.3408 -0.2818  0.2318
  110MOL   C16522183   2.712   4.649   2.921  0.8443 -0.4829  0.1026
  110MOL   H16622184   2.487   4.555   2.815 -1.2113  1.7563  0.9174
  110MOL   H16722185   2.488   4.725   2.782 -0.4832 -0.0928 -0.5885
  110MOL   H16822186   2.711   4.525   2.741  0.0831 -0.2324 -0.2040
  110MOL   H16922187   2.724   4.697   2.705  0.1420 -0.0995  0.2921
  110MOL   H17022188   2.685   4.569   2.990 -1.8809  0.4385  0.1991
  110MOL   H17122189   2.640   4.723   2.956 -0.7754 -2.3109  0.7423
  110MOL   O17222190   2.846   4.695   2.932  0.8972 -0.2236  0.2650
  110MOL   C17322191   2.876   4.720   3.064  0.5208  0.0138  0.2791
  110MOL   C17422192   3.019   4.769   3.084 -0.4093 -0.2096  0.6390
  110MOL   C17522193   3.054   4.774   3.231  0.6459 -0.3865 -0.2770
  110MOL   H17622194   2.862   4.638   3.134  2.0911  1.4540  2.3598
  110MOL   H17722195   2.810   4.798   3.102  1.8830  0.6850  1.3249
  110MOL   H17822196   3.080   4.703   3.024  1.0032  1.1196  0.5892
  110MOL   H17922197   3.022   4.866   3.035  1.5489  0.2757  1.6699
  110MOL   H18022198   2.968   4.816   3.283  0.7246 -0.3214 -0.1982
  110MOL   H18122199   3.137   4.844   3.242 -2.3514  3.1425  1.1166
  110MOL   O18222200   3.103   4.645   3.268  0.2141  0.4383 -0.4789
  110MOL   C18322201   3.132   4.639   3.408 -1.0324  0.5276  0.2179
  110MOL   C18422202   3.212   4.515   3.456 -0.0532 -0.0412  0.1408
  110MOL   C18522203   3.237   4.513   3.616  0.4320 -0.1582  0.2632
  110MOL   H18622204   3.039   4.656   3.464 -2.0536  0.7936 -1.5165
  110MOL   H18722205   3.188   4.729   3.436 -2.1320  0.9621  1.1050
  110MOL   H18822206   3.163   4.423   3.423 -0.1130  0.4841 -1.2644
  110MOL   H18922207   3.307   4.507   3.404  0.5990 -1.3949  1.4958
  110MOL   H19022208   3.148   4.528   3.677  0.1595 -2.0918  0.3673
  110MOL   H19122209   3.314   4.586   3.640 -0.3990  1.2534 -1.2477
  110MOL   O19222210   3.279   4.387   3.653 -0.8783  0.1471 -0.0517
  110MOL   C19322211   3.328   4.386   3.784  0.5871 -0.6463 -0.0546
  110MOL   C19422212   3.291   4.250   3.852 -0.4243  0.2413 -0.1912
  110MOL   C19522213   3.366   4.133   3.783  0.7152 -0.7248  0.3752
  110MOL   H19622214   3.295   4.471   3.844 -2.9073 -2.4906  0.7251
  110MOL   H19722215   3.436   4.404   3.779  0.2071  1.6258 -0.6281
  110MOL   H19822216   3.322   4.248   3.956  0.3493  0.1782 -0.4193
  110MOL   H19922217   3.187   4.219   3.849 -0.6935  1.0066  1.2360
  110MOL   H20022218   3.312   4.039   3.792  0.6112 -0.5394  1.8167
  110MOL   H20122219   3.471   4.124   3.813  0.4083 -0.3694  1.5863
  110MOL   H20222220   3.365   4.132   3.674  1.7716  0.9640  0.3150
  111MOL     O122221   7.277   2.246   2.122 -0.0674 -0.4117  0.3850
  111MOL     C222222   7.412   2.239   2.165  0.3343 -0.6359  0.5170
  111MOL     C322223   7.502   2.238   2.034 -0.1923 -0.2440 -0.5437
  111MOL     C422224   7.649   2.226   2.065 -0.2935 -0.3489 -0.6791
  111MOL     H522225   7.442   2.155   2.228 -0.8972 -0.6893  1.0376
  111MOL     H622226   7.436   2.325   2.228 -0.9650  0.4372 -0.4094
  111MOL     H722227   7.488   2.161   1.958  2.2860  0.8829 -2.2205
  111MOL     H822228   7.503   2.333   1.981  3.9957  0.7125  1.0258
  111MOL     H922229   7.706   2.217   1.972  1.7414  2.1982  0.2790
  111MOL    H1022230   7.677   2.136   2.119 -0.8719 -0.0906  0.0521
  111MOL    H1122231   7.253   2.317   2.066 -4.2213  0.2759  2.8393
  111MOL    O1222232   7.681   2.347   2.137  0.2269  0.0211  0.3691
  111MOL    C1322233   0.018   2.334   2.200  0.3420 -0.0758 -0.1062
  111MOL    C1422234   0.044   2.460   2.287  0.2246  0.3893  0.3609
  111MOL    C1522235   0.138   2.451   2.409 -0.1282  0.2520 -0.7214
  111MOL    H1622236   0.095   2.321   2.124  0.8374 -2.2407  0.7173
  111MOL    H1722237   0.014   2.253   2.273 -2.0462  1.0329  1.0669
  111MOL    H1822238   0.080   2.536   2.218  2.7212 -0.6176  0.5041
  111MOL    H1922239   7.742   2.500   2.334  1.4113  0.8757  2.3210
  111MOL    H2022240   0.141   2.541   2.469  2.1744 -1.7176  2.2735
  111MOL    H2122241   0.243   2.424   2.392 -0.9392 -2.1835 -2.1171
  111MOL    O2222242   0.096   2.343   2.489 -0.6872 -1.0126 -0.3704
  111MOL    C2322243   0.174   2.307   2.601 -0.1877 -0.4995  0.5421
  111MOL    C2422244   0.136   2.174   2.669  0.6345  0.5017  0.2520
  111MOL    C2522245   0.243   2.124   2.767  0.4659 -0.1420  0.1366
  111MOL    H2622246   0.171   2.390   2.672 -1.7511 -1.8220  2.0852
  111MOL    H2722247   0.277   2.299   2.568  0.2143 -0.0616  1.6696
  111MOL    H2822248   0.039   2.168   2.718  1.7754 -1.3314  2.3990
  111MOL    H2922249   0.132   2.097   2.593  1.7885  0.0200  0.6771
  111MOL    H3022250   0.236   2.170   2.865 -1.4011  1.2136 -0.6068
  111MOL    H3122251   0.341   2.151   2.726  0.1795 -1.3177 -1.3710
  111MOL    O3222252   0.250   1.984   2.778  0.2151  0.3181  0.0695
  111MOL    C3322253   0.138   1.927   2.838 -0.0378  0.0163  0.2707
  111MOL    C3422254   0.163   1.768   2.844  0.7174 -0.5903  0.3852
  111MOL    C3522255   0.056   1.701   2.929  0.8114  0.4854 -0.5096
  111MOL    H3622256   0.047   1.946   2.781  1.2244 -0.1938 -1.8590
  111MOL    H3722257   0.111   1.960   2.938 -1.7374 -1.0574  0.1890
  111MOL    H3822258   0.155   1.729   2.743 -0.5575  0.3318  0.1166
  111MOL    H3922259   0.258   1.741   2.891  0.7931 -0.7901  0.1178
  111MOL    H4022260   7.750   1.706   2.876  1.1972  1.2042 -1.1313
  111MOL    H4122261   0.044   1.755   3.023 -0.7797 -0.2820 -0.2595
  111MOL    O4222262   0.108   1.571   2.957  0.0892  0.1540 -0.4468
  111MOL    C4322263   0.001   1.482   2.993 -0.7423 -0.0121 -0.4672
  111MOL    C4422264   0.041   1.330   2.988 -0.0019  0.3595  0.4006
  111MOL    C4522265   7.701   1.244   3.002  0.4893  0.0871  0.2279
  111MOL    H4622266   7.711   1.493   2.917 -0.2160  0.6489 -0.9216
  111MOL    H4722267   7.758   1.506   3.094  0.6247  0.3511 -0.1196
  111MOL    H4822268   0.084   1.299   2.893 -3.4382  0.3549 -1.2452
  111MOL    H4922269   0.100   1.312   3.078 -0.3099  0.1052  0.5546
  111MOL    H5022270   7.625   1.292   3.064 -0.3334  0.0910 -0.7761
  111MOL    H5122271   7.730   1.149   3.047 -0.9468  0.4083  1.8963
  111MOL    O5222272   7.645   1.234   2.866 -0.4324  0.3470 -0.5266
  111MOL    C5322273   7.532   1.154   2.871  0.8549 -0.2039 -0.6930
  111MOL    C5422274   7.469   1.150   2.734  0.1595 -0.7772  0.1256
  111MOL    C5522275   7.574   1.125   2.626 -0.3176  0.4966  0.4782
  111MOL    H5622276   7.457   1.192   2.940  0.7147 -1.4327 -0.1516
  111MOL    H5722277   7.556   1.056   2.913  0.6101 -0.1548 -0.4375
  111MOL    H5822278   7.387   1.078   2.735 -0.8793  0.3580 -0.6391
  111MOL    H5922279   7.426   1.247   2.710 -0.3847 -0.9959  0.2042
  111MOL    H6022280   7.638   1.041   2.654 -0.8357 -0.3330 -0.7625
  111MOL    H6122281   7.646   1.206   2.614  0.8962 -0.0436  3.5465
  111MOL    O6222282   7.503   1.107   2.500  0.0404  0.9423 -0.2180
  111MOL    C6322283   7.587   1.091   2.389 -0.0245  0.5759 -0.2463
  111MOL    C6422284   7.501   1.054   2.270 -0.0624  0.2410  0.5341
  111MOL    C6522285   7.575   0.987   2.160 -0.7442  0.2671 -0.8844
  111MOL    H6622286   7.659   1.017   2.425 -0.4757  1.2681  2.1624
  111MOL    H6722287   7.652   1.177   2.375  0.2445  0.2510 -1.0405
  111MOL    H6822288   7.428   0.985   2.313  1.0183 -1.0368  0.3253
  111MOL    H6922289   7.439   1.137   2.234 -1.4729  0.2858  2.9737
  111MOL    H7022290   7.510   0.968   2.075 -2.4524  0.2770  0.4075
  111MOL    H7122291   7.607   0.894   2.207 -2.2560  1.0038  1.7089
  111MOL    O7222292   7.691   1.051   2.105  0.1319 -0.0256 -0.2302
  111MOL    C7322293   7.647   1.175   2.037 -0.6713  0.0261  0.0994
  111MOL    C7422294   7.767   1.261   1.983 -0.1667 -0.4864 -0.7396
  111MOL    C7522295   0.054   1.325   2.097  0.3858 -0.0609  0.2624
  111MOL    H7622296   7.589   1.235   2.108  0.5600  0.8061  0.4552
  111MOL    H7722297   7.583   1.147   1.953 -0.4207 -1.9515  0.5481
  111MOL    H7822298   0.048   1.192   1.934  0.7470  1.3214 -2.0545
  111MOL    H7922299   7.735   1.324   1.900 -3.9511 -0.0066  0.9763
  111MOL    H8022300   0.094   1.251   2.165  1.9388 -0.2075 -0.8017
  111MOL    H8122301   7.782   1.400   2.149  2.2446  2.1907 -0.7382
  111MOL    O8222302   0.159   1.390   2.036  0.1033  0.4337 -0.3043
  111MOL    C8322303   0.260   1.436   2.126 -0.1411  0.1069  0.1212
  111MOL    C8422304   0.370   1.323   2.140 -0.7012 -1.0005  1.0674
  111MOL    C8522305   0.392   1.281   2.283  0.9492  0.6460  0.4098
  111MOL    H8622306   0.224   1.472   2.223  0.1718  0.1198  0.2344
  111MOL    H8722307   0.305   1.523   2.078 -2.4032  0.0119 -2.2444
  111MOL    H8822308   0.357   1.240   2.071 -0.9910 -0.3562  0.3333
  111MOL    H8922309   0.461   1.367   2.099 -3.5361  3.7117 -0.6640
  111MOL    H9022310   0.307   1.218   2.311 -0.3875  1.2314 -2.1797
  111MOL    H9122311   0.395   1.366   2.351 -0.1289  1.1942 -0.2085
  111MOL    O9222312   0.509   1.205   2.286 -0.4100  0.7182 -0.2353
  111MOL    C9322313   0.558   1.182   2.413  0.2169  0.5922  0.6086
  111MOL    C9422314   0.698   1.126   2.397  0.5827  0.6523  0.4667
  111MOL    C9522315   0.783   1.089   2.519 -0.1367  0.0673  0.4514
  111MOL    H9622316   0.491   1.109   2.459  0.9543 -0.2044  0.4205
  111MOL    H9722317   0.551   1.269   2.480  0.8923  1.6059 -0.6209
  111MOL    H9822318   0.687   1.049   2.320  0.0471  0.9604  0.2365
  111MOL    H9922319   0.750   1.206   2.343  1.0658  1.1421  1.6448
  111MOL   H10022320   0.823   1.175   2.572 -1.3279 -0.4840  2.3013
  111MOL   H10122321   0.872   1.036   2.483  1.1125  2.0636  0.5156
  111MOL   O10222322   0.715   0.996   2.603 -0.1273  0.1656  0.3263
  111MOL   C10322323   0.786   0.982   2.731 -0.1984 -0.4589  0.4447
  111MOL   C10422324   0.749   0.846   2.796  0.1358 -0.0871 -0.0860
  111MOL   C10522325   0.774   0.823   2.949 -0.2377 -0.0811 -0.0161
  111MOL   H10622326   0.762   1.062   2.801  0.1549  0.9756 -1.0330
  111MOL   H10722327   0.892   0.972   2.706  0.2674 -2.1475  2.9112
  111MOL   H10822328   0.642   0.837   2.777  0.4201 -2.4630 -0.6962
  111MOL   H10922329   0.802   0.775   2.734 -0.0594 -0.9009  0.6663
  111MOL   H11022330   0.747   0.905   3.016  1.0355 -0.2097  0.6868
  111MOL   H11122331   0.883   0.823   2.945 -0.1718  3.4784 -0.0174
  111MOL   O11222332   0.733   0.692   2.989 -0.1973  0.3832 -0.5305
  111MOL   C11322333   0.756   0.656   3.126  0.2935 -0.0609  0.0807
  111MOL   C11422334   0.693   0.521   3.142 -0.1765 -0.0071 -0.1195
  111MOL   C11522335   0.693   0.483   3.295 -0.0305  0.1896 -0.4995
  111MOL   H11622336   0.713   0.738   3.183  2.2405  0.5106  0.7609
  111MOL   H11722337   0.861   0.639   3.147  0.2206 -1.1473 -0.3636
  111MOL   H11822338   0.590   0.537   3.111 -0.0657  0.4676 -0.2509
  111MOL   H11922339   0.747   0.445   3.087 -0.4551 -1.2686  1.3119
  111MOL   H12022340   0.632   0.550   3.355 -0.8999  0.0903 -1.2508
  111MOL   H12122341   0.791   0.505   3.337 -1.0587  2.5181  0.7365
  111MOL   O12222342   0.660   0.350   3.311 -0.2204  0.7413 -0.2283
  111MOL   C12322343   0.637   0.316   3.444  0.3143  0.4700  0.6254
  111MOL   C12422344   0.589   0.173   3.427 -0.3728  0.1634 -0.1450
  111MOL   C12522345   0.518   0.109   3.549  0.5726  0.4157  0.2724
  111MOL   H12622346   0.551   0.377   3.470 -0.8437 -0.3768 -1.1184
  111MOL   H12722347   0.715   0.330   3.518 -0.8647 -0.7936  2.1379
  111MOL   H12822348   0.528   0.153   3.339  1.4391 -0.2715 -1.3346
  111MOL   H12922349   0.683   0.124   3.400 -0.2225  0.0494  0.5798
  111MOL   H13022350   0.419   0.153   3.554  0.3472 -0.0396 -0.1623
  111MOL   H13122351   0.564   0.140   3.643  0.2765  0.9104  0.2525
  111MOL   O13222352   0.528   7.760   3.547  0.0212  0.0727 -0.1818
  111MOL   C13322353   0.449   7.703   3.655  0.0903 -0.2879  0.1717
  111MOL   C13422354   0.543   7.706   3.778 -0.1042  0.2533 -0.0048
  111MOL   C13522355   0.466   7.650   3.901  0.8933  0.1752  0.5998
  111MOL   H13622356   0.429   7.601   3.620 -4.2661  1.3500 -2.5011
  111MOL   H13722357   0.353   7.750   3.674 -0.0531 -0.4791 -0.0806
  111MOL   H13822358   0.625   7.641   3.749 -0.7257 -0.2857 -0.5850
  111MOL   H13922359   0.575   0.018   3.807  1.8301 -0.2203 -0.4515
  111MOL   H14022360   0.479   7.542   3.891 -3.0720 -0.2682 -0.2086
  111MOL   H14122361   0.358   7.663   3.896  0.9867  1.6770  1.8392
  111MOL   O14222362   0.516   7.685   4.029 -0.5897  0.1589  0.1852
  111MOL   C14322363   0.457   7.608   4.134 -0.5815  0.2742 -0.2844
  111MOL   C14422364   0.408   7.694   4.255 -0.0850 -0.4031  0.2255
  111MOL   C14522365   0.277   7.766   4.229  0.0573  0.1650 -0.1819
  111MOL   H14622366   0.537   7.547   4.176 -0.4943  0.2690 -0.4567
  111MOL   H14722367   0.373   7.542   4.112  0.3619 -0.9746 -0.2372
  111MOL   H14822368   0.398   7.627   4.341 -2.9484 -0.3464 -0.0124
  111MOL   H14922369   0.480   7.768   4.291 -0.9502  0.2393  0.6709
  111MOL   H15022370   0.272   0.042   4.140 -0.4490  1.6577  0.8944
  111MOL   H15122371   0.261   0.044   4.315 -0.5767 -1.6052  1.0886
  111MOL   O15222372   0.170   7.673   4.219  0.1727  0.3419 -0.2307
  111MOL   C15322373   0.045   7.741   4.207 -0.0054 -0.4749  0.0284
  111MOL   C15422374   7.711   7.645   4.179  0.3591 -0.2135  0.1012
  111MOL   C15522375   7.699   7.531   4.272  0.3394  0.2693  0.2960
  111MOL   H15622376   0.050   0.023   4.124  2.6695  0.6989  1.1335
  111MOL   H15722377   0.021   0.010   4.296  0.4760 -0.2599  0.0187
  111MOL   H15822378   7.620   7.704   4.188  2.0995  2.1141  3.5705
  111MOL   H15922379   7.717   7.600   4.080  0.0797  2.4337 -1.1732
  111MOL   H16022380   7.681   7.576   4.370 -1.6371  0.0746  0.0400
  111MOL   H16122381   0.005   7.477   4.278  0.9937  1.1880 -1.2519
  111MOL   O16222382   7.592   7.445   4.220 -0.1477 -0.2907  0.3502
  111MOL   C16322383   7.580   7.334   4.301 -0.2069 -0.4125  0.6968
  111MOL   C16422384   7.483   7.228   4.232  0.1115  1.0694 -0.2415
  111MOL   C16522385   7.336   7.268   4.222  0.1105  0.4120 -0.2714
  111MOL   H16622386   7.539   7.367   4.396  0.8324  0.8423  0.7216
  111MOL   H16722387   7.682   7.300   4.317  1.1547  3.8994  1.8653
  111MOL   H16822388   7.526   7.183   4.143  0.3945 -0.6551  0.7376
  111MOL   H16922389   7.488   7.138   4.293  1.9024  0.8587 -0.6713
  111MOL   H17022390   7.329   7.351   4.151  1.3479  1.5665  0.9154
  111MOL   H17122391   7.296   7.294   4.320 -2.2496  0.4800 -1.2085
  111MOL   O17222392   7.248   7.166   4.162 -0.1378 -0.4176  0.2643
  111MOL   C17322393   7.109   7.205   4.162 -0.5346 -0.3566  0.0172
  111MOL   C17422394   7.015   7.089   4.109  0.1396  0.2087 -0.0729
  111MOL   C17522395   6.867   7.136   4.123 -0.0116 -0.3623  0.3080
  111MOL   H17622396   7.088   7.291   4.099 -2.0292 -0.5293  0.2768
  111MOL   H17722397   7.090   7.229   4.267 -0.4147  2.3605 -0.5539
  111MOL   H17822398   7.042   7.088   4.003  0.8667 -1.1249  0.1141
  111MOL   H17922399   7.030   6.987   4.143 -1.5472  0.7032  2.2839
  111MOL   H18022400   6.846   7.209   4.046 -1.3519  1.3312  2.2244
  111MOL   H18122401   6.849   7.183   4.220  1.6332  1.0669 -0.0779
  111MOL   O18222402   6.758   7.037   4.110  0.0965  0.3693  0.3416
  111MOL   C18322403   6.745   6.977   3.989  0.1566  0.1234  0.7132
  111MOL   C18422404   6.732   7.056   3.860  0.0160  0.2035  0.3777
  111MOL   C18522405   6.607   7.140   3.866 -0.2241 -0.1984 -0.8348
  111MOL   H18622406   6.658   6.912   4.003 -1.9305  2.4704 -0.8589
  111MOL   H18722407   6.822   6.901   3.981  1.1124  1.0624  0.7785
  111MOL   H18822408   6.817   7.118   3.834  0.6158 -1.7285 -2.5003
  111MOL   H18922409   6.719   6.995   3.771  0.2935  0.9624 -0.1883
  111MOL   H19022410   6.604   7.198   3.959  1.0498 -3.6631  1.4564
  111MOL   H19122411   6.521   7.074   3.874  0.1871 -0.4376  2.1753
  111MOL   O19222412   6.589   7.218   3.747  0.4133  1.1916  0.2470
  111MOL   C19322413   6.661   7.341   3.752  0.3109  0.0360  0.4343
  111MOL   C19422414   6.640   7.414   3.620  0.0664  0.1326  0.1589
  111MOL   C19522415   6.721   7.340   3.523 -0.0885  0.0410 -0.2302
  111MOL   H19622416   6.766   7.328   3.778  0.3804 -1.1986 -0.4032
  111MOL   H19722417   6.615   7.405   3.827 -0.9599 -0.3851  0.0411
  111MOL   H19822418   6.533   7.415   3.600 -0.0258  0.3691  0.6407
  111MOL   H19922419   6.674   7.518   3.630  0.9079 -0.2307  1.2393
  111MOL   H20022420   6.823   7.337   3.561 -0.0102 -2.1235 -0.5387
  111MOL   H20122421   6.722   7.407   3.437 -0.6380  1.3207  0.7532
  111MOL   H20222422   6.690   7.237   3.505 -0.7746 -0.2192  2.2334
  112MOL     O122423   1.626   3.040   6.092  0.6452 -0.0279 -0.6906
  112MOL     C222424   1.658   3.183   6.087  0.0658 -0.2755  0.1858
  112MOL     C322425   1.807   3.188   6.112  0.1229  0.9149 -0.1118
  112MOL     C422426   1.867   3.333   6.142  0.0894  0.0587  0.0963
  112MOL     H522427   1.597   3.228   6.165 -0.3070 -0.3782 -0.0474
  112MOL     H622428   1.630   3.222   5.989 -0.3907 -0.9062  0.0638
  112MOL     H722429   1.839   3.128   6.197  1.0159  0.4806 -0.7517
  112MOL     H822430   1.864   3.129   6.041 -0.8512 -0.4544  0.2276
  112MOL     H922431   1.804   3.375   6.221 -0.7882 -0.5434 -0.2687
  112MOL    H1022432   1.867   3.396   6.053 -0.5787 -2.3147 -1.6344
  112MOL    H1122433   1.641   3.008   6.179 -1.4106 -0.0012 -0.3089
  112MOL    O1222434   2.006   3.334   6.189  0.3970 -0.5197  0.3663
  112MOL    C1322435   2.048   3.464   6.239  0.5629  1.1502  0.3012
  112MOL    C1422436   2.084   3.437   6.394  0.8205  0.2859 -0.8739
  112MOL    C1522437   2.062   3.562   6.483 -0.3244  0.3548  0.1289
  112MOL    H1622438   1.961   3.528   6.230 -0.0902  0.2681  0.2445
  112MOL    H1722439   2.138   3.509   6.197  0.4027  0.1944 -1.0843
  112MOL    H1822440   2.000   3.372   6.417  2.9713 -1.8173  1.3318
  112MOL    H1922441   2.178   3.388   6.418 -0.4228 -0.7135  2.1535
  112MOL    H2022442   2.039   3.540   6.587  0.7542  0.1074  0.3170
  112MOL    H2122443   1.977   3.627   6.459 -0.5465  1.4711  3.6811
  112MOL    O2222444   2.181   3.644   6.469 -0.0370 -0.1575  0.1466
  112MOL    C2322445   2.207   3.730   6.575  0.4823 -0.3642  0.3745
  112MOL    C2422446   2.320   3.821   6.526 -0.6709 -0.1489 -1.3617
  112MOL    C2522447   2.348   3.941   6.623 -0.3969 -0.2517  0.0867
  112MOL    H2622448   2.249   3.677   6.661  1.6792  2.2563  1.4644
  112MOL    H2722449   2.118   3.787   6.599  2.0668  1.0832  3.0478
  112MOL    H2822450   2.412   3.763   6.517 -1.0192 -0.6766 -1.5407
  112MOL    H2922451   2.297   3.870   6.431  0.5968  0.8498 -1.1558
  112MOL    H3022452   2.389   3.910   6.719  0.3817 -1.2348 -0.5551
  112MOL    H3122453   2.263   4.005   6.645 -0.1159  0.0626  0.2572
  112MOL    O3222454   2.450   4.014   6.549 -0.0959  0.2588 -0.3441
  112MOL    C3322455   2.526   4.117   6.620  0.1003  0.1625  0.1837
  112MOL    C3422456   2.453   4.243   6.664 -0.2977 -0.1479  0.4479
  112MOL    C3522457   2.497   4.296   6.804  0.3218 -0.4137  0.8566
  112MOL    H3622458   2.610   4.139   6.554  1.2167  0.0437  1.5359
  112MOL    H3722459   2.573   4.065   6.704  0.1668 -0.8538 -0.4835
  112MOL    H3822460   2.466   4.322   6.590  1.4525 -1.1121 -0.2797
  112MOL    H3922461   2.345   4.227   6.674 -0.8890  2.4972 -1.2104
  112MOL    H4022462   2.482   4.210   6.868  0.8683 -1.5844 -0.5492
  112MOL    H4122463   2.434   4.379   6.835 -0.4321 -0.6637  0.0492
  112MOL    O4222464   2.637   4.340   6.785 -0.1845 -0.2803 -0.2612
  112MOL    C4322465   2.677   4.415   6.901 -0.1476  0.5475 -0.2584
  112MOL    C4422466   2.804   4.490   6.880  0.3258  0.1437  0.0099
  112MOL    C4522467   2.867   4.532   7.010 -0.0612 -0.2435  0.3873
  112MOL    H4622468   2.688   4.347   6.985  0.9357  0.7974 -0.1810
  112MOL    H4722469   2.601   4.493   6.912 -0.7272  0.1932 -1.6278
  112MOL    H4822470   2.871   4.423   6.826  0.8510 -0.5089  1.4402
  112MOL    H4922471   2.795   4.578   6.816  0.9860 -1.1884 -1.9640
  112MOL    H5022472   2.881   4.441   7.068 -2.4337  0.0530  1.4895
  112MOL    H5122473   2.810   4.600   7.074  1.7659  0.0037  1.8029
  112MOL    O5222474   2.991   4.604   7.003 -0.3652 -0.1506  0.0983
  112MOL    C5322475   3.071   4.619   7.124  0.4694 -0.7140  0.1572
  112MOL    C5422476   3.211   4.661   7.089 -0.2730  0.4880  0.0985
  112MOL    C5522477   3.297   4.670   7.208 -0.4896 -0.3450 -0.8534
  112MOL    H5622478   3.065   4.524   7.178 -1.0724 -1.2601 -0.9242
  112MOL    H5722479   3.031   4.687   7.199 -1.1369 -0.2774 -1.0633
  112MOL    H5822480   3.262   4.577   7.041 -0.7459  1.1503 -1.5825
  112MOL    H5922481   3.206   4.754   7.032  0.1314  0.7400  0.4742
  112MOL    H6022482   3.307   4.576   7.262  1.7809  0.8835  0.9389
  112MOL    H6122483   3.254   4.747   7.273 -1.1759  0.6486 -2.4634
  112MOL    O6222484   3.432   4.706   7.196 -0.3804 -0.0020  0.7540
  112MOL    C6322485   3.437   4.833   7.135 -0.5411  0.9349  0.1544
  112MOL    C6422486   3.588   4.882   7.135 -0.4966  0.8167 -0.4839
  112MOL    C6522487   3.667   4.800   7.035 -0.3580  0.8505  0.1170
  112MOL    H6622488   3.375   4.904   7.189  0.2897  0.8840  1.2232
  112MOL    H6722489   3.411   4.831   7.030  2.2308  0.2214 -0.5601
  112MOL    H6822490   3.600   4.986   7.103  0.1155  0.3730 -1.7457
  112MOL    H6922491   3.625   4.888   7.237 -0.5789  0.5134 -0.4366
  112MOL    H7022492   3.628   4.822   6.936 -3.9140 -2.8839  0.5922
  112MOL    H7122493   3.657   4.695   7.062 -2.0279  0.6602 -1.1884
  112MOL    O7222494   3.802   4.847   7.030  0.7645 -0.4698 -0.2815
  112MOL    C7322495   3.874   4.772   6.937  0.3890  0.9262  0.4034
  112MOL    C7422496   4.027   4.783   6.977 -0.1886 -0.3579  0.2263
  112MOL    C7522497   4.104   4.689   6.880  0.2613  0.1196 -0.0382
  112MOL    H7622498   3.841   4.796   6.835  1.0863 -2.0022 -0.5475
  112MOL    H7722499   3.861   4.666   6.954  2.9786  0.7914  1.6956
  112MOL    H7822500   4.048   4.890   6.981  3.7935 -1.1063  1.2694
  112MOL    H7922501   4.031   4.747   7.079  0.0775 -0.1842  0.2766
  112MOL    H8022502   4.102   4.734   6.780 -0.2868 -2.2466 -1.1187
  112MOL    H8122503   4.041   4.603   6.859 -0.1168  0.2343  0.6313
  112MOL    O8222504   4.248   4.662   6.911  0.5440 -0.5949  0.6696
  112MOL    C8322505   4.310   4.575   6.826  0.2401 -0.9986 -0.2232
  112MOL    C8422506   4.460   4.598   6.831 -0.5724  0.1983  0.1104
  112MOL    C8522507   4.537   4.497   6.745  0.4172  0.2012  0.8465
  112MOL    H8622508   4.259   4.580   6.730 -1.7921 -0.8376  0.8194
  112MOL    H8722509   4.291   4.473   6.857 -0.8978 -1.1167 -1.2737
  112MOL    H8822510   4.480   4.693   6.782  0.6048 -0.9640 -1.7415
  112MOL    H8922511   4.494   4.586   6.934  1.3228 -2.6202 -0.7886
  112MOL    H9022512   4.503   4.504   6.642 -1.2879 -2.2517  1.2166
  112MOL    H9122513   4.514   4.399   6.787 -0.5223 -1.4339 -3.2954
  112MOL    O9222514   4.673   4.518   6.766 -0.5696 -0.5170  0.2579
  112MOL    C9322515   4.753   4.431   6.690 -0.0015 -0.7499  0.2652
  112MOL    C9422516   4.897   4.454   6.735 -0.8089 -0.1163  0.0211
  112MOL    C9522517   4.987   4.365   6.655  0.3427 -0.8797 -0.5974
  112MOL    H9622518   4.742   4.443   6.582 -0.1103  0.5334  0.4014
  112MOL    H9722519   4.729   4.328   6.713 -0.3894 -0.8892 -0.7494
  112MOL    H9822520   4.918   4.560   6.725 -1.8261  0.2042  1.0973
  112MOL    H9922521   4.903   4.431   6.842  0.4093 -0.5208 -0.1315
  112MOL   H10022522   4.978   4.399   6.552 -1.3071 -0.3722 -0.2990
  112MOL   H10122523   4.954   4.261   6.662 -2.1176 -0.0325  0.7902
  112MOL   O10222524   5.121   4.393   6.697  0.1932  0.1187 -0.1225
  112MOL   C10322525   5.210   4.291   6.650  0.7187  0.4007 -0.5289
  112MOL   C10422526   5.358   4.316   6.681  0.7722  0.9271  0.0103
  112MOL   C10522527   5.438   4.197   6.638  0.0344 -0.0474 -0.0336
  112MOL   H10622528   5.200   4.301   6.542 -0.6529  1.0799 -0.3538
  112MOL   H10722529   5.187   4.190   6.683  0.0193  0.4348 -0.9053
  112MOL   H10822530   5.393   4.412   6.644 -1.0613  1.6981  0.2220
  112MOL   H10922531   5.381   4.325   6.787  1.0376  0.1400  0.0257
  112MOL   H11022532   5.411   4.103   6.686  1.3463  0.0354  0.8911
  112MOL   H11122533   5.541   4.213   6.668  0.8839 -1.4753 -2.0188
  112MOL   O11222534   5.435   4.187   6.494 -0.0005  0.1597 -0.2678
  112MOL   C11322535   5.500   4.072   6.433  0.7653 -0.5581  0.2335
  112MOL   C11422536   5.448   4.058   6.286 -0.2192  0.6001  0.6349
  112MOL   C11522537   5.533   3.955   6.205  0.2947  0.2558  0.0999
  112MOL   H11622538   5.456   3.985   6.483 -2.3134  2.2177  2.5888
  112MOL   H11722539   5.608   4.077   6.448  0.4837  1.0691  1.9306
  112MOL   H11822540   5.344   4.027   6.280 -0.6771  1.7226  2.4657
  112MOL   H11922541   5.450   4.153   6.233  1.5346 -0.7344 -1.7892
  112MOL   H12022542   5.502   3.961   6.100  2.6118 -1.2435 -0.7259
  112MOL   H12122543   5.503   3.857   6.242  0.8598  0.4284  1.0293
  112MOL   O12222544   5.674   3.984   6.227 -0.2410 -0.0052 -0.0470
  112MOL   C12322545   5.764   3.896   6.168 -0.0733  0.4136 -0.2176
  112MOL   C12422546   5.772   3.759   6.232  0.1154  0.1868 -0.3299
  112MOL   C12522547   5.832   3.762   6.369  0.2602  0.1842  0.1698
  112MOL   H12622548   5.854   3.954   6.187  0.2694 -0.4082  0.7640
  112MOL   H12722549   5.760   3.896   6.059 -0.1883 -0.9788 -0.2224
  112MOL   H12822550   5.674   3.713   6.239  0.9185 -1.6217 -0.7070
  112MOL   H12922551   5.842   3.696   6.177  0.7415  0.4000  0.2064
  112MOL   H13022552   5.940   3.773   6.376  0.4562 -2.1792  1.3215
  112MOL   H13122553   5.818   3.659   6.402 -0.3003  0.4888  0.9160
  112MOL   O13222554   5.758   3.844   6.464  0.1721 -0.8014  0.0112
  112MOL   C13322555   5.822   3.857   6.587  0.7209  0.1227  0.1221
  112MOL   C13422556   5.752   3.950   6.687  0.3057  0.2903 -0.5533
  112MOL   C13522557   5.809   3.947   6.827  0.6045  0.5895  0.4481
  112MOL   H13622558   5.925   3.890   6.581  0.4541  0.9494  0.0428
  112MOL   H13722559   5.839   3.755   6.622  0.5486 -0.1607 -0.6050
  112MOL   H13822560   5.744   4.054   6.657 -2.2660 -0.5380 -3.0067
  112MOL   H13922561   5.648   3.918   6.697 -0.6438  2.6142 -2.3917
  112MOL   H14022562   5.905   3.998   6.826  0.8795  0.0595  0.1216
  112MOL   H14122563   5.815   3.854   6.883 -0.1465  3.1135  4.9520
  112MOL   O14222564   5.718   4.027   6.907 -0.1329  0.2379  0.2989
  112MOL   C14322565   5.778   4.060   7.034  0.5376 -0.3593  0.2941
  112MOL   C14422566   5.693   4.184   7.087  1.3058  0.1346 -0.5034
  112MOL   C14522567   5.692   4.310   7.007 -0.2181 -0.3090  0.6764
  112MOL   H14622568   5.885   4.083   7.032  0.4045  0.2343  0.0582
  112MOL   H14722569   5.771   3.970   7.095 -2.2009  0.4913  1.3016
  112MOL   H14822570   5.592   4.143   7.074  1.9006 -1.2847 -0.7294
  112MOL   H14922571   5.704   4.215   7.191 -1.2118  1.7168 -0.6485
  112MOL   H15022572   5.673   4.273   6.906  0.2995  1.8605 -0.2472
  112MOL   H15122573   5.788   4.361   7.003 -0.9985  1.2292  0.8814
  112MOL   O15222574   5.576   4.395   7.039  0.6156  0.1340  0.2119
  112MOL   C15322575   5.571   4.498   6.953  0.6196 -0.2618  0.0164
  112MOL   C15422576   5.435   4.576   6.981  0.0779 -0.0611  0.4186
  112MOL   C15522577   5.384   4.687   6.890  0.3048  0.4467  0.2959
  112MOL   H15622578   5.561   4.462   6.850 -4.0128 -0.0994  0.2991
  112MOL   H15722579   5.658   4.561   6.970  0.2512 -0.2972  2.1039
  112MOL   H15822580   5.362   4.495   6.978 -0.5274  0.5402 -1.3532
  112MOL   H15922581   5.442   4.616   7.082 -1.1148  0.7325  0.1869
  112MOL   H16022582   5.360   4.658   6.788 -2.4523 -0.2764  1.1086
  112MOL   H16122583   5.468   4.752   6.866  1.5025 -0.2774  2.3322
  112MOL   O16222584   5.279   4.780   6.943  0.3834 -0.4898 -0.1693
  112MOL   C16322585   5.158   4.709   6.960  0.1366  0.0062 -0.4036
  112MOL   C16422586   5.049   4.802   7.005  0.6408  0.2993 -0.2119
  112MOL   C16522587   4.907   4.750   7.026  0.0448 -0.4124  0.0506
  112MOL   H16622588   5.160   4.630   7.035 -1.1349  0.1182 -0.2235
  112MOL   H16722589   5.137   4.672   6.860 -0.2774  2.3588 -1.2179
  112MOL   H16822590   5.086   4.850   7.095 -1.1658  0.3411  0.5322
  112MOL   H16922591   5.057   4.875   6.924 -2.0567  1.1223  0.2121
  112MOL   H17022592   4.905   4.684   7.112  1.6088 -0.1738  0.2985
  112MOL   H17122593   4.865   4.695   6.942  1.0812  0.8730 -1.3442
  112MOL   O17222594   4.804   4.849   7.042  0.6993  0.2770  0.3189
  112MOL   C17322595   4.667   4.805   7.051  0.2335 -0.6129  0.4044
  112MOL   C17422596   4.636   4.740   7.176  0.0500  0.6424 -0.1852
  112MOL   C17522597   4.485   4.734   7.212  0.3566  0.6879  0.3526
  112MOL   H17622598   4.640   4.740   6.968  0.4554 -0.8471  0.5140
  112MOL   H17722599   4.619   4.902   7.037 -0.7421 -1.3636 -1.6122
  112MOL   H17822600   4.701   4.653   7.187  0.3689  0.4698 -2.8688
  112MOL   H17922601   4.676   4.800   7.258  1.2121 -1.6654  0.9538
  112MOL   H18022602   4.435   4.671   7.139  2.1272  0.6883 -0.8763
  112MOL   H18122603   4.445   4.834   7.196 -0.6493  0.3484  0.6787
  112MOL   O18222604   4.477   4.694   7.344  0.4403  0.5796  0.4791
  112MOL   C18322605   4.344   4.704   7.396  0.2076 -0.5374  0.4726
  112MOL   C18422606   4.339   4.612   7.527 -0.7282  0.7935  0.1618
  112MOL   C18522607   4.207   4.620   7.592  0.7624  0.4894 -0.4391
  112MOL   H18622608   4.272   4.674   7.319  1.0041 -3.2142  0.6983
  112MOL   H18722609   4.317   4.807   7.419 -2.2492 -1.2788  1.1253
  112MOL   H18822610   4.359   4.507   7.507 -0.5255  1.0906 -1.2899
  112MOL   H18922611   4.421   4.644   7.591 -0.0777  0.6074 -0.5653
  112MOL   H19022612   4.129   4.583   7.526 -1.1955  2.4219  0.7407
  112MOL   H19122613   4.192   4.724   7.619 -0.3490  0.5313 -1.1848
  112MOL   O19222614   4.208   4.544   7.703 -0.6452  0.7070  0.4726
  112MOL   C19322615   4.072   4.518   7.750 -0.0335  0.4808 -0.7033
  112MOL   C19422616   4.083   4.450   0.102  0.5876 -1.1801 -0.1281
  112MOL   C19522617   3.957   4.408   0.164  0.5207  1.0054  0.3657
  112MOL   H19622618   4.023   4.443   7.688 -0.3171  2.0112 -2.3798
  112MOL   H19722619   4.003   4.602   7.747  1.1740  1.5314  0.7546
  112MOL   H19822620   4.153   4.367   0.096  1.9552 -0.1972  1.8840
  112MOL   H19922621   4.138   4.516   0.169 -0.9940  0.2717 -0.2088
  112MOL   H20022622   3.902   4.321   0.128  0.6824  0.4449  1.4549
  112MOL   H20122623   3.874   4.479   0.166 -0.1135  0.2788 -0.0327
  112MOL   H20222624   3.969   4.389   0.271  0.2417 -2.0826 -0.1127
  113MOL     O122625   0.033   2.044   4.832  0.2939 -0.0074  0.1215
  113MOL     C222626   0.088   1.918   4.819  0.1613  0.5819 -0.2869
  113MOL     C322627   7.770   1.808   4.775 -0.2446 -1.0040  0.3138
  113MOL     C422628   0.036   1.667   4.781  0.2841  0.9362 -0.2349
  113MOL     H522629   0.130   1.887   4.915 -3.0623  3.1912  2.0913
  113MOL     H622630   0.173   1.917   4.751 -0.1315 -0.2565 -0.6398
  113MOL     H722631   7.681   1.817   4.837  0.5184  2.8434  1.0021
  113MOL     H822632   7.728   1.818   4.675 -1.4119 -1.4905  0.7473
  113MOL     H922633   0.102   1.650   4.866  0.0365  0.2126 -0.1808
  113MOL    H1022634   0.101   1.653   4.695 -0.9362  0.5254 -1.1053
  113MOL    H1122635   7.744   2.053   4.886  0.3385 -2.7074  0.7274
  113MOL    O1222636   7.718   1.573   4.777  0.9893 -0.6186 -0.8310
  113MOL    C1322637   7.768   1.446   4.785  0.5968  0.1016 -0.7407
  113MOL    C1422638   0.059   1.401   4.662  0.7933  0.2236 -0.1385
  113MOL    C1522639   0.201   1.373   4.693  0.6344  0.7730  0.0058
  113MOL    H1622640   7.678   1.383   4.789 -0.3530  1.4281 -0.8764
  113MOL    H1722641   0.035   1.429   4.877  2.3173  0.3519 -1.7191
  113MOL    H1822642   0.011   1.310   4.627 -0.3651  0.7999 -0.0750
  113MOL    H1922643   0.068   1.473   4.582 -2.2382 -1.8267 -2.4259
  113MOL    H2022644   0.245   1.466   4.729 -0.0865  1.5428 -1.0662
  113MOL    H2122645   0.248   1.343   4.599  1.0448 -0.1734  0.5050
  113MOL    O2222646   0.211   1.268   4.788  0.5778 -0.3848 -0.4628
  113MOL    C2322647   0.337   1.250   4.848  0.2496 -0.1942 -0.2925
  113MOL    C2422648   0.322   1.146   4.961 -0.4292  0.3105  0.3791
  113MOL    C2522649   0.238   1.198   5.077 -0.3426  0.6707 -0.5747
  113MOL    H2622650   0.360   1.346   4.895  0.3767  0.7368 -2.2223
  113MOL    H2722651   0.414   1.222   4.777  1.1102  1.0198  0.1363
  113MOL    H2822652   0.278   1.050   4.933  0.8860 -0.7663  1.9090
  113MOL    H2922653   0.420   1.127   5.005  0.8109  2.5530 -1.3264
  113MOL    H3022654   0.138   1.186   5.034 -0.8222 -0.1914  0.7398
  113MOL    H3122655   0.237   1.301   5.113  1.7230  1.1588 -1.8586
  113MOL    O3222656   0.239   1.101   5.194 -0.0839 -0.0384 -0.1880
  113MOL    C3322657   0.349   1.140   5.277 -0.5541 -0.0309  0.7204
  113MOL    C3422658   0.379   1.034   5.384 -0.1952 -0.0871  0.0071
  113MOL    C3522659   0.479   1.082   5.498 -0.3929  0.0820 -0.3962
  113MOL    H3622660   0.329   1.238   5.320 -2.2372  0.1962 -0.5079
  113MOL    H3722661   0.431   1.168   5.212 -1.2452 -1.2389 -0.7175
  113MOL    H3822662   0.288   1.003   5.436  0.5410  1.0002  1.9788
  113MOL    H3922663   0.418   0.944   5.337  0.0206  0.0233 -0.0226
  113MOL    H4022664   0.432   1.169   5.543  0.7094  1.1011 -1.1714
  113MOL    H4122665   0.569   1.117   5.447  1.5257 -2.0534  1.4261
  113MOL    O4222666   0.500   0.980   5.600  0.3234 -0.2273  0.0220
  113MOL    C4322667   0.583   1.019   5.704 -0.0302  0.5498 -0.6025
  113MOL    C4422668   0.622   0.905   5.797  0.4872 -0.1587  0.7624
  113MOL    C4522669   0.699   0.962   5.924 -0.0971  0.8347 -0.3998
  113MOL    H4622670   0.522   1.093   5.757 -1.3930 -2.3852  2.1158
  113MOL    H4722671   0.674   1.068   5.668  0.9830 -1.2475 -0.5451
  113MOL    H4822672   0.533   0.854   5.834  0.4441  1.0892  2.4448
  113MOL    H4922673   0.688   0.831   5.753  1.2076  0.3485  0.9774
  113MOL    H5022674   0.635   1.032   5.980 -0.6811  0.5179 -0.6713
  113MOL    H5122675   0.789   1.015   5.895  1.0065 -1.6814 -1.5913
  113MOL    O5222676   0.735   0.850   6.004 -0.1530  0.1041  0.5429
  113MOL    C5322677   0.814   0.870   6.126 -0.0535  0.3645 -0.4478
  113MOL    C5422678   0.847   0.733   6.187 -0.3771  0.2091  0.4593
  113MOL    C5522679   0.975   0.729   6.265  0.2589  0.4443  0.3693
  113MOL    H5622680   0.758   0.937   6.191 -0.5498  0.6844 -1.2010
  113MOL    H5722681   0.907   0.920   6.098  1.0198  0.0303  2.3313
  113MOL    H5822682   0.768   0.691   6.248  0.7243 -0.7976  1.2092
  113MOL    H5922683   0.852   0.663   6.104 -2.7479 -0.8130  1.1560
  113MOL    H6022684   0.986   0.638   6.325 -2.0224  0.5509  0.9888
  113MOL    H6122685   0.971   0.805   6.343  1.3802  0.7299  0.1624
  113MOL    O6222686   1.083   0.753   6.175 -0.2145 -0.9566  0.2445
  113MOL    C6322687   1.211   0.744   6.230 -0.5014  0.7888 -0.6357
  113MOL    C6422688   1.241   0.886   6.291 -0.3505 -0.3444  0.0786
  113MOL    C6522689   1.394   0.912   6.316  0.6743 -0.1283 -0.8703
  113MOL    H6622690   1.280   0.723   6.149  0.9234  0.8333  0.5584
  113MOL    H6722691   1.206   0.663   6.303 -0.7246  1.5218  0.1650
  113MOL    H6822692   1.199   0.965   6.229 -1.1008  1.3777  2.6865
  113MOL    H6922693   1.190   0.898   6.387  1.7672  0.5644  1.1202
  113MOL    H7022694   1.456   0.895   6.228  0.9525 -0.4471 -0.6150
  113MOL    H7122695   1.419   0.849   6.401 -2.9967 -2.3625 -1.3653
  113MOL    O7222696   1.417   1.048   6.347 -0.9483 -0.0323 -0.0600
  113MOL    C7322697   1.555   1.093   6.354  0.2610 -0.1845 -0.0384
  113MOL    C7422698   1.638   1.023   6.466 -0.1314  0.7439 -0.0444
  113MOL    C7522699   1.793   1.046   6.454  0.2291 -1.1432 -0.4521
  113MOL    H7622700   1.558   1.201   6.371  2.1496 -0.1257 -0.7150
  113MOL    H7722701   1.591   1.088   6.251  2.6081  0.6183  0.7283
  113MOL    H7822702   1.613   1.061   6.565 -0.3327 -0.2091  0.2708
  113MOL    H7922703   1.626   0.915   6.473 -2.6437  0.9735 -0.5096
  113MOL    H8022704   1.816   1.146   6.492  2.3544 -0.9889 -2.1184
  113MOL    H8122705   1.837   1.032   6.356  1.9824  0.0457  0.1449
  113MOL    O8222706   1.858   0.947   6.542  0.1301 -0.4045  0.6310
  113MOL    C8322707   1.993   0.968   6.571 -0.1861  0.6873 -0.0937
  113MOL    C8422708   2.045   0.870   6.686 -0.0966  0.4763 -0.5697
  113MOL    C8522709   2.191   0.887   6.719 -0.1803 -0.1151 -0.1646
  113MOL    H8622710   2.020   1.072   6.590  0.8951  0.3099  0.4692
  113MOL    H8722711   2.054   0.941   6.484 -2.2905  2.7439 -2.2778
  113MOL    H8822712   1.986   0.868   6.777  3.0291  0.1006  1.5448
  113MOL    H8922713   2.032   0.772   6.640 -3.1030 -0.3952  1.9770
  113MOL    H9022714   2.185   0.978   6.778 -0.2760 -0.0838 -0.2245
  113MOL    H9122715   2.252   0.886   6.629  1.0745 -1.7185  0.6524
  113MOL    O9222716   2.229   0.773   6.797 -0.7538 -0.1796  0.2710
  113MOL    C9322717   2.370   0.759   6.800 -0.5298 -0.0037  0.9331
  113MOL    C9422718   2.404   0.652   6.900  0.0170  0.3455  0.1137
  113MOL    C9522719   2.403   0.696   7.050  0.0711 -0.3356 -0.0402
  113MOL    H9622720   2.422   0.849   6.834 -0.3332 -0.0218  0.6802
  113MOL    H9722721   2.395   0.732   6.697 -1.2276  1.0752  0.4621
  113MOL    H9822722   2.337   0.570   6.875 -3.0574  2.4505  1.1917
  113MOL    H9922723   2.500   0.620   6.859 -0.4952  1.0130 -1.6426
  113MOL   H10022724   2.309   0.747   7.073  0.7468  0.5995  0.6640
  113MOL   H10122725   2.481   0.767   7.077  0.9737 -2.0746  2.0951
  113MOL   O10222726   2.382   0.591   7.139  0.2354 -0.3232  0.1940
  113MOL   C10322727   2.497   0.514   7.153  0.0980  0.6448 -0.0739
  113MOL   C10422728   2.469   0.411   7.269 -0.2099 -0.2424 -0.2398
  113MOL   C10522729   2.559   0.289   7.283  0.3381  0.1326 -0.8630
  113MOL   H10622730   2.582   0.577   7.180  0.5815  0.2312 -0.6179
  113MOL   H10722731   2.526   0.465   7.061  2.2510  1.1938  0.2733
  113MOL   H10822732   2.477   0.462   7.365  0.3182  3.6304 -2.2592
  113MOL   H10922733   2.368   0.374   7.254 -0.1147 -0.0918 -1.2546
  113MOL   H11022734   2.552   0.243   7.382 -1.1124 -1.7744 -1.8326
  113MOL   H11122735   2.663   0.314   7.262  0.2829  0.1569 -1.1088
  113MOL   O11222736   2.535   0.180   7.202  0.2309  0.4583 -0.1979
  113MOL   C11322737   2.628   0.075   7.212  0.0556  0.7146 -0.3471
  113MOL   C11422738   2.630   7.759   7.095  0.6370 -0.3555  0.6549
  113MOL   C11522739   2.679   0.033   6.969  0.5064  0.4167 -0.0516
  113MOL   H11622740   2.596   0.021   7.301  1.1838  0.5111 -0.0626
  113MOL   H11722741   2.730   0.112   7.220  0.2711  0.3575 -1.3626
  113MOL   H11822742   2.702   7.683   7.126  1.9633  1.4493  2.1212
  113MOL   H11922743   2.531   7.716   7.085  1.0602 -1.3532  0.6752
  113MOL   H12022744   2.777   0.072   6.997  2.0219 -1.1763 -2.9690
  113MOL   H12122745   2.610   0.111   6.937 -1.5605 -0.6789  1.5935
  113MOL   O12222746   2.708   7.722   6.873  0.2682 -0.0916 -0.5841
  113MOL   C12322747   2.785   7.767   6.756  0.2288 -0.3631 -0.6410
  113MOL   C12422748   2.813   7.635   6.669  0.2087 -0.0087  0.6883
  113MOL   C12522749   2.861   7.674   6.529 -0.8929 -0.3936 -0.2072
  113MOL   H12622750   2.881   0.018   6.791 -0.1963 -0.9457  1.2900
  113MOL   H12722751   2.729   0.051   6.698  0.0603  1.0859  1.2511
  113MOL   H12822752   2.890   7.577   6.720 -0.1363  1.5313  3.0423
  113MOL   H12922753   2.721   7.577   6.661  0.5167 -0.3600 -0.4220
  113MOL   H13022754   2.961   7.716   6.526  0.1441 -2.7320  0.4362
  113MOL   H13122755   2.791   7.747   6.488  0.7687  2.2786  1.5850
  113MOL   O13222756   2.875   7.552   6.457 -0.2132 -0.2245 -0.2720
  113MOL   C13322757   2.898   7.565   6.320  0.2806  0.1019 -0.0780
  113MOL   C13422758   2.831   7.439   6.264  0.0117 -0.1639 -0.1990
  113MOL   C13522759   2.854   7.427   6.114  0.4302 -0.2062  0.7272
  113MOL   H13622760   3.004   7.557   6.295  0.1317 -0.7231 -0.4594
  113MOL   H13722761   2.861   7.661   6.284 -0.6572 -0.2188  0.0170
  113MOL   H13822762   2.866   7.354   6.321 -1.8154 -0.9311 -0.1808
  113MOL   H13922763   2.722   7.435   6.274 -0.4009  0.8576 -3.5142
  113MOL   H14022764   2.952   7.458   6.075  0.5462 -0.6665  0.6495
  113MOL   H14122765   2.780   7.490   6.064  1.2817  1.6517  1.7514
  113MOL   O14222766   2.834   7.287   6.087  0.3692  0.0083 -0.1203
  113MOL   C14322767   2.821   7.245   5.949 -0.2767  0.0452  0.7380
  113MOL   C14422768   2.964   7.196   5.904  0.0810  0.4153 -1.0402
  113MOL   C14522769   2.960   7.154   5.760 -0.6791  0.4420  0.5723
  113MOL   H14622770   2.784   7.327   5.888  0.6350 -0.3306 -0.3473
  113MOL   H14722771   2.741   7.172   5.941 -1.3167  1.2671 -0.1184
  113MOL   H14822772   3.046   7.266   5.921 -0.2639  0.8802 -1.2980
  113MOL   H14922773   2.990   7.111   5.967 -0.1997  2.3264  1.8035
  113MOL   H15022774   2.915   7.240   5.712 -1.3631 -0.4813 -0.4681
  113MOL   H15122775   2.892   7.069   5.748 -0.3743  0.1315  1.0260
  113MOL   O15222776   3.087   7.128   5.707 -0.3085  0.3845  0.5362
  113MOL   C15322777   3.078   7.095   5.570  0.2009 -0.4801 -0.1225
  113MOL   C15422778   3.225   7.101   5.528  0.1616  0.3146  0.3760
  113MOL   C15522779   3.258   7.069   5.384 -0.1511  0.8947  0.4499
  113MOL   H15622780   3.014   7.168   5.521 -0.6866  0.0281  1.7420
  113MOL   H15722781   3.040   6.995   5.552  0.9162 -0.9328  0.7742
  113MOL   H15822782   3.260   7.199   5.561 -0.1999  0.3577  0.6299
  113MOL   H15922783   3.281   7.029   5.589 -0.5586 -0.2972  0.3184
  113MOL   H16022784   3.191   7.111   5.309  0.6319 -1.0206 -1.3655
  113MOL   H16122785   3.253   6.962   5.369 -0.3905  0.9831 -0.1430
  113MOL   O16222786   3.390   7.119   5.351 -0.5214  0.1845 -0.2792
  113MOL   C16322787   3.450   7.057   5.241 -0.0876  0.3715 -0.2049
  113MOL   C16422788   3.499   6.917   5.275 -0.4367  0.1657 -0.5443
  113MOL   C16522789   3.569   6.844   5.159 -0.7978 -0.8238  0.3677
  113MOL   H16622790   3.529   7.119   5.199  2.3651 -3.0207 -0.8541
  113MOL   H16722791   3.373   7.042   5.165 -1.4381 -0.2342  1.2580
  113MOL   H16822792   3.575   6.927   5.353 -0.5452 -0.5933 -0.3340
  113MOL   H16922793   3.418   6.850   5.304  2.5554 -2.9532  1.0724
  113MOL   H17022794   3.667   6.889   5.141 -0.5943 -0.4527  2.2762
  113MOL   H17122795   3.519   6.853   5.063 -0.2471  0.5803  0.2070
  113MOL   O17222796   3.577   6.705   5.194 -0.1008 -0.2757 -0.1867
  113MOL   C17322797   3.631   6.630   5.087  0.3437 -0.0516  0.4200
  113MOL   C17422798   3.603   6.480   5.114 -0.1105  0.6534 -0.3038
  113MOL   C17522799   3.670   6.384   5.016 -0.1492 -0.2974 -1.2071
  113MOL   H17622800   3.739   6.647   5.085  0.5988 -1.6801 -0.7156
  113MOL   H17722801   3.600   6.647   4.984 -3.0946  1.3851  1.6365
  113MOL   H17822802   3.640   6.461   5.215  1.7383 -1.7714 -1.4011
  113MOL   H17922803   3.497   6.454   5.117 -0.0647  0.4322 -0.5913
  113MOL   H18022804   3.651   6.283   5.052  1.3377  0.0217  0.5389
  113MOL   H18122805   3.777   6.402   5.023 -0.3835  2.4112 -3.7621
  113MOL   O18222806   3.614   6.376   4.883 -0.7274  0.2152 -0.2153
  113MOL   C18322807   3.667   6.271   4.796 -0.0041  0.6311  0.0635
  113MOL   C18422808   3.606   6.292   4.659 -0.0064  0.0445  0.9155
  113MOL   C18522809   3.660   6.202   4.541  0.6582  0.1695 -0.8989
  113MOL   H18622810   3.652   6.176   4.846  0.1034  0.7825  0.3859
  113MOL   H18722811   3.775   6.286   4.793  0.2333 -0.3067  2.8328
  113MOL   H18822812   3.498   6.283   4.671  0.0596  0.5065  1.8700
  113MOL   H18922813   3.622   6.391   4.616 -0.8324 -1.1453 -2.3009
  113MOL   H19022814   3.635   6.096   4.551  1.0548  0.2586  1.2472
  113MOL   H19122815   3.769   6.195   4.530  0.6920 -0.4920 -0.2053
  113MOL   O19222816   3.597   6.251   4.427 -0.2526 -0.0783  0.5814
  113MOL   C19322817   3.646   6.201   4.302 -0.4077 -0.9508 -0.3245
  113MOL   C19422818   3.547   6.244   4.201  0.2431  0.0664  0.5495
  113MOL   C19522819   3.421   6.151   4.190  0.4116 -0.4586  0.6841
  113MOL   H19622820   3.654   6.092   4.313 -1.5683 -0.9615  0.4357
  113MOL   H19722821   3.747   6.242   4.291 -1.2351  1.1952 -0.1226
  113MOL   H19822822   3.515   6.347   4.218 -0.3153 -0.1915  1.0798
  113MOL   H19922823   3.601   6.232   4.107  2.7952 -0.4361  2.0700
  113MOL   H20022824   3.449   6.066   4.128  1.4314  0.6633 -0.4021
  113MOL   H20122825   3.346   6.211   4.137  1.9003 -0.8483 -1.9458
  113MOL   H20222826   3.380   6.110   4.282 -0.4809  0.5101  0.7333
  114MOL     O122827   6.800   2.938   1.282  0.2101  0.1923 -0.0511
  114MOL     C222828   6.883   3.040   1.315  0.2485  0.0995 -0.0173
  114MOL     C322829   6.798   3.152   1.372 -0.0635  0.5058  0.0326
  114MOL     C422830   6.875   3.285   1.391 -0.4722 -0.0007  0.7378
  114MOL     H522831   6.934   3.066   1.222 -0.4275  0.1413 -0.3805
  114MOL     H622832   6.962   3.002   1.379  2.4890  2.9878 -0.9249
  114MOL     H722833   6.717   3.166   1.300  0.8313  1.1842 -0.8538
  114MOL     H822834   6.755   3.123   1.468 -0.5117 -1.9001 -0.8430
  114MOL     H922835   6.890   3.329   1.292  0.6325 -2.3539 -0.1734
  114MOL    H1022836   6.979   3.282   1.426 -0.1890 -2.6267 -0.1991
  114MOL    H1122837   6.806   2.879   1.355  1.1789  2.5694  1.8644
  114MOL    O1222838   6.813   3.377   1.481 -0.5365 -0.4812  0.7619
  114MOL    C1322839   6.860   3.514   1.471  0.7223 -0.2496  0.4089
  114MOL    C1422840   6.780   3.596   1.581  0.1426  0.0523 -0.0928
  114MOL    C1522841   6.861   3.657   1.693  0.3593 -0.1555  1.0362
  114MOL    H1622842   6.843   3.566   1.377  0.5436  2.4614  1.8613
  114MOL    H1722843   6.967   3.519   1.490  0.6487  1.3737  0.4806
  114MOL    H1822844   6.711   3.670   1.539  0.1042  1.6483  2.6936
  114MOL    H1922845   6.713   3.523   1.625  0.2434 -0.1206 -0.2235
  114MOL    H2022846   6.928   3.730   1.646  2.1707 -2.0655  0.5856
  114MOL    H2122847   6.918   3.577   1.740  0.0366 -1.1904 -0.3364
  114MOL    O2222848   6.762   3.717   1.769 -0.7351 -0.1691 -0.0751
  114MOL    C2322849   6.824   3.791   1.871 -0.2197  0.3469 -0.3241
  114MOL    C2422850   6.718   3.863   1.950  0.4893  0.1544  0.0832
  114MOL    C2522851   6.771   3.951   2.069  0.1661  0.5879 -0.3428
  114MOL    H2622852   6.897   3.863   1.836  0.5378  0.0491  0.6428
  114MOL    H2722853   6.880   3.717   1.928  0.8366  1.1509 -0.3105
  114MOL    H2822854   6.661   3.925   1.881  0.1235 -0.0172  0.2290
  114MOL    H2922855   6.658   3.789   2.003  0.4757 -0.6943 -1.1050
  114MOL    H3022856   6.847   4.020   2.032 -0.9908  1.2725 -1.4912
  114MOL    H3122857   6.820   3.886   2.142  0.8081  0.6431 -0.7224
  114MOL    O3222858   6.664   4.010   2.138 -0.2526 -0.0769  0.2358
  114MOL    C3322859   6.711   4.076   2.250  0.0296 -0.5166 -0.2752
  114MOL    C3422860   6.593   4.119   2.339  0.5564 -0.0604  0.1530
  114MOL    C3522861   6.479   4.194   2.263  0.0533 -0.0531  0.2491
  114MOL    H3622862   6.759   4.168   2.216  1.1202 -1.3427 -0.9760
  114MOL    H3722863   6.775   4.016   2.314  0.8336 -0.1582 -0.7332
  114MOL    H3822864   6.555   4.033   2.395  0.7767 -1.0137 -1.1281
  114MOL    H3922865   6.620   4.191   2.416 -0.3230  2.0250 -1.4304
  114MOL    H4022866   6.421   4.124   2.202 -2.4159  0.2888  2.1396
  114MOL    H4122867   6.524   4.268   2.198  1.1159 -0.1736  0.8424
  114MOL    O4222868   6.408   4.258   2.367 -0.4863 -0.1620  0.7405
  114MOL    C4322869   6.288   4.313   2.310 -0.2737  0.1784 -0.2187
  114MOL    C4422870   6.213   4.392   2.422  0.2676 -0.1910  0.4726
  114MOL    C4522871   6.054   4.409   2.412 -0.4379  0.8374 -0.5969
  114MOL    H4622872   6.227   4.231   2.273  0.3252 -0.2682 -0.2192
  114MOL    H4722873   6.320   4.383   2.233  1.1393 -0.1202  0.0768
  114MOL    H4822874   6.229   4.337   2.515  1.5599 -1.3930 -0.4363
  114MOL    H4922875   6.256   4.491   2.437  2.9710 -0.9617 -1.7894
  114MOL    H5022876   6.015   4.409   2.514  1.4170  1.3647  0.1338
  114MOL    H5122877   6.011   4.322   2.362  0.0002  0.6421 -0.6348
  114MOL    O5222878   6.019   4.531   2.341 -0.1887  0.2573 -0.2137
  114MOL    C5322879   6.006   4.646   2.425 -0.2613  0.3968 -0.3817
  114MOL    C5422880   5.961   4.762   2.335  0.3274  0.2596 -0.1181
  114MOL    C5522881   6.061   4.821   2.235 -0.1965  0.3966  0.6943
  114MOL    H5622882   6.101   4.671   2.472 -0.4786 -0.9346  0.8443
  114MOL    H5722883   5.934   4.615   2.502  1.2364 -1.3854  0.3575
  114MOL    H5822884   5.874   4.720   2.284 -1.4270  0.3370  2.7254
  114MOL    H5922885   5.914   4.852   2.375 -2.3353  0.2871 -3.0799
  114MOL    H6022886   6.122   4.744   2.188 -2.0116  0.0912 -1.2456
  114MOL    H6122887   6.129   4.889   2.286  2.4073  0.2807 -2.4917
  114MOL    O6222888   5.994   4.899   2.136  0.5598 -0.1484 -0.2797
  114MOL    C6322889   6.067   5.017   2.116 -0.0072  0.8499 -0.6078
  114MOL    C6422890   6.008   5.090   1.993  0.3946 -0.5071  0.0348
  114MOL    C6522891   6.079   5.210   1.943 -0.2371 -0.0312 -0.5071
  114MOL    H6622892   6.172   5.002   2.094  0.5137  3.5409 -0.1522
  114MOL    H6722893   6.057   5.092   2.195 -0.6007 -0.1735  0.3006
  114MOL    H6822894   6.003   5.008   1.920 -2.0671  1.4930 -2.1286
  114MOL    H6922895   5.903   5.117   2.003  0.4812 -0.4714  0.8424
  114MOL    H7022896   6.187   5.194   1.944 -0.0641  1.0836 -0.2346
  114MOL    H7122897   6.063   5.300   2.003  0.4395  0.3957 -0.9494
  114MOL    O7222898   6.040   5.235   1.807  0.2329 -0.2797 -0.4384
  114MOL    C7322899   6.142   5.256   1.711 -0.0439 -0.0832 -0.2477
  114MOL    C7422900   6.056   5.275   1.579 -0.6354 -0.4037  0.0062
  114MOL    C7522901   6.160   5.336   1.471 -0.2686 -1.0903 -0.0803
  114MOL    H7622902   6.202   5.165   1.709  2.1036  1.2710  0.6017
  114MOL    H7722903   6.193   5.347   1.744  2.5023 -1.3711 -0.6025
  114MOL    H7822904   6.014   5.183   1.539 -2.2312  0.7652 -1.0314
  114MOL    H7922905   5.976   5.346   1.598 -1.4276 -0.7122 -2.0884
  114MOL    H8022906   6.201   5.422   1.524 -1.2041 -0.3055 -0.6200
  114MOL    H8122907   6.100   5.361   1.383 -0.7978 -2.2158 -0.0446
  114MOL    O8222908   6.264   5.249   1.426  0.3018  0.0248 -0.6970
  114MOL    C8322909   6.336   5.296   1.313 -0.5870 -0.3715 -0.4052
  114MOL    C8422910   6.432   5.183   1.262  0.3422  0.1699 -1.1447
  114MOL    C8522911   6.488   5.224   1.124 -0.4722  0.2176 -0.6367
  114MOL    H8622912   6.387   5.390   1.334 -2.6268  0.8726 -0.8872
  114MOL    H8722913   6.269   5.325   1.233 -1.9053 -1.2769  0.3507
  114MOL    H8822914   6.513   5.167   1.334  2.0261 -0.2028 -3.0875
  114MOL    H8922915   6.380   5.087   1.263  0.3513  0.1554  1.4572
  114MOL    H9022916   6.410   5.254   1.055 -0.4120  0.8027 -0.4558
  114MOL    H9122917   6.532   5.134   1.081 -2.0131 -0.0039 -1.7675
  114MOL    O9222918   6.586   5.322   1.127  0.4879 -0.6544 -0.1064
  114MOL    C9322919   6.631   5.366   0.999 -0.5366  0.2954 -1.5349
  114MOL    C9422920   6.697   5.501   1.004  0.1477 -0.3781  0.4275
  114MOL    C9522921   6.765   5.547   0.868  0.0879  0.3206 -1.3681
  114MOL    H9622922   6.551   5.378   0.926 -0.9770  0.5358 -1.0117
  114MOL    H9722923   6.701   5.288   0.969  1.4913  1.0083  1.0927
  114MOL    H9822924   6.633   5.586   1.025  1.9651  1.6411 -1.8534
  114MOL    H9922925   6.760   5.490   1.092  1.4367 -2.4604 -0.7152
  114MOL   H10022926   6.689   5.574   0.794 -0.7746  1.3635 -0.1287
  114MOL   H10122927   6.823   5.467   0.822  0.3139 -0.0057 -0.5267
  114MOL   O10222928   6.844   5.658   0.903 -0.1128  0.1891  0.0734
  114MOL   C10322929   6.800   5.791   0.894 -0.6315 -0.3237  0.1719
  114MOL   C10422930   6.904   5.898   0.936  0.0361  0.0095 -0.3782
  114MOL   C10522931   6.837   6.027   0.975 -0.6069 -0.3202 -0.0499
  114MOL   H10622932   6.707   5.810   0.948  0.5835  2.9905  1.2361
  114MOL   H10722933   6.765   5.811   0.792 -0.6250  1.2450  0.4612
  114MOL   H10822934   6.944   5.855   1.028 -1.5223  1.2265  0.9039
  114MOL   H10922935   6.988   5.921   0.871 -1.2846  1.1458 -1.7285
  114MOL   H11022936   6.773   6.008   1.062 -1.3943 -1.5219 -0.8766
  114MOL   H11122937   6.773   6.052   0.891  0.7136  4.1548  0.1476
  114MOL   O11222938   6.936   6.126   1.018  0.0729 -0.5295 -0.2929
  114MOL   C11322939   7.014   6.192   0.913  0.2259  0.1068 -0.4665
  114MOL   C11422940   7.091   6.318   0.956  0.2473  0.0904  0.1777
  114MOL   C11522941   7.209   6.352   0.867 -0.3925 -0.4897 -0.5827
  114MOL   H11622942   6.949   6.205   0.827  0.1415 -1.6837 -0.7001
  114MOL   H11722943   7.085   6.114   0.884  1.7109  1.6212 -0.9143
  114MOL   H11822944   7.031   6.406   0.980 -0.1242 -0.3655  0.9350
  114MOL   H11922945   7.118   6.290   1.058  2.7917  2.2441  0.1415
  114MOL   H12022946   7.174   6.375   0.767 -2.4784  0.4425  0.3390
  114MOL   H12122947   7.274   6.266   0.851 -0.2996 -0.0435 -2.7546
  114MOL   O12222948   7.283   6.460   0.915  0.0850  0.1409 -0.0593
  114MOL   C12322949   7.361   6.534   0.815 -0.0767 -0.2979  0.4585
  114MOL   C12422950   7.468   6.444   0.761  0.3409 -0.4424  0.3757
  114MOL   C12522951   7.583   6.544   0.708 -0.3138 -0.7666  0.0535
  114MOL   H12622952   7.407   6.621   0.862  3.0356 -1.1929 -0.8452
  114MOL   H12722953   7.293   6.569   0.737  1.1460  0.3673 -0.3188
  114MOL   H12822954   7.509   6.382   0.841  1.0676  0.9735  1.1010
  114MOL   H12922955   7.423   6.387   0.679 -0.8406 -4.6647  3.7504
  114MOL   H13022956   7.673   6.494   0.672  0.8429  1.6645 -0.5502
  114MOL   H13122957   7.623   6.618   0.778 -0.0777  0.0758 -0.9625
  114MOL   O13222958   7.533   6.612   0.591  0.1599 -0.5738 -0.3553
  114MOL   C13322959   7.628   6.694   0.528 -0.1471  0.0064 -0.3851
  114MOL   C13422960   7.547   6.801   0.445 -0.3139  0.9167 -0.1422
  114MOL   C13522961   7.639   6.908   0.381 -0.6764  0.1148  0.0937
  114MOL   H13622962   7.697   6.625   0.479  1.5416  1.3075  0.1024
  114MOL   H13722963   7.688   6.741   0.606 -1.6003 -2.3879  2.2808
  114MOL   H13822964   7.488   6.749   0.368  1.2479 -0.4634 -0.4224
  114MOL   H13922965   7.470   6.835   0.514 -0.5937 -1.5588  0.7927
  114MOL   H14022966   7.588   6.977   0.314  0.7026  0.8381 -0.2195
  114MOL   H14122967   7.702   6.843   0.320 -0.2940  0.7780 -0.2264
  114MOL   O14222968   7.714   6.974   0.483  0.2225 -0.1540  0.5042
  114MOL   C14322969   0.013   7.070   0.421 -0.6993  0.2894 -0.7027
  114MOL   C14422970   0.096   7.131   0.537  0.5101 -0.1316  1.0702
  114MOL   C14522971   0.208   7.234   0.485  0.3553 -0.5872 -0.2474
  114MOL   H14622972   7.753   7.153   0.370 -1.0729  1.4102  1.4599
  114MOL   H14722973   0.064   7.019   0.339  1.1532  1.5107 -0.3424
  114MOL   H14822974   0.029   7.190   0.599 -0.4213 -1.8416  1.6991
  114MOL   H14922975   0.156   7.057   0.590  0.9751 -0.3086  0.3081
  114MOL   H15022976   0.151   7.323   0.457  2.2804  0.2436 -1.6282
  114MOL   H15122977   0.265   7.185   0.407  1.8726 -0.3577  0.6903
  114MOL   O15222978   0.282   7.275   0.597  0.2875 -0.1750 -0.0825
  114MOL   C15322979   0.391   7.363   0.557 -0.3655  0.1311  0.0951
  114MOL   C15422980   0.453   7.419   0.686  0.3898 -0.0953  0.2562
  114MOL   C15522981   0.352   7.516   0.756 -1.1711  0.4611 -0.1626
  114MOL   H15622982   0.359   7.453   0.504 -1.0173 -1.1171 -1.6593
  114MOL   H15722983   0.464   7.301   0.506  1.0329  1.2250  0.7315
  114MOL   H15822984   0.477   7.337   0.754 -0.3714 -1.1127 -0.6723
  114MOL   H15922985   0.544   7.469   0.656  0.0827  0.4097  0.1656
  114MOL   H16022986   0.254   7.469   0.765 -1.6544  1.3474 -0.6935
  114MOL   H16122987   0.334   7.605   0.696 -1.5475  1.0748  0.8359
  114MOL   O16222988   0.395   7.568   0.880  0.4425  0.1948 -0.3229
  114MOL   C16322989   0.521   7.634   0.879 -0.5840  0.0583  0.2999
  114MOL   C16422990   0.534   7.711   1.007  0.3251 -0.2703  0.3915
  114MOL   C16522991   0.508   7.635   1.135 -0.9309 -0.0847 -0.5130
  114MOL   H16622992   0.524   7.703   0.794  0.7899  1.5294  1.4976
  114MOL   H16722993   0.608   7.568   0.870 -0.9717 -0.4906  0.5730
  114MOL   H16822994   0.638   7.745   1.006 -0.0341  0.8392 -0.7265
  114MOL   H16922995   0.476   0.015   1.008 -0.6277 -0.8694  1.2818
  114MOL   H17022996   0.578   7.553   1.147 -2.3469 -1.3782 -0.8587
  114MOL   H17122997   0.409   7.588   1.134  0.4205 -3.1883  2.2748
  114MOL   O17222998   0.524   7.719   1.255  0.1045 -0.2973 -0.0012
  114MOL   C17322999   0.514   7.644   1.372  0.2356  0.2459 -0.8074
  114MOL   C17423000   0.522   7.730   1.498  0.2086 -0.0901 -0.7951
  114MOL   C17523001   0.490   7.661   1.629  0.3268 -0.6531 -0.4437
  114MOL   H17623002   0.600   7.577   1.381  1.8784  2.3831  0.1150
  114MOL   H17723003   0.424   7.584   1.369  0.5032 -0.0482 -3.4900
  114MOL   H17823004   0.610   0.005   1.505  1.3024 -1.6505 -0.2656
  114MOL   H17923005   0.438   0.011   1.487  0.5621  0.4867  0.0596
  114MOL   H18023006   0.548   7.569   1.637 -0.5543 -1.2154 -0.4861
  114MOL   H18123007   0.385   7.634   1.636  0.7863 -2.3076  0.2221
  114MOL   O18223008   0.518   7.750   1.738 -0.4885 -0.3014  0.0705
  114MOL   C18323009   0.456   7.715   1.865  0.5409 -0.1527 -0.4051
  114MOL   C18423010   0.467   0.044   1.962  0.0037 -0.1032  0.3901
  114MOL   C18523011   0.431   0.009   2.108 -0.1809 -0.2809  0.9061
  114MOL   H18623012   0.504   7.626   1.906 -0.9346 -1.1005 -0.7113
  114MOL   H18723013   0.348   7.706   1.857  0.2054  1.2495  1.8832
  114MOL   H18823014   0.572   0.071   1.955  0.7304 -2.3445  2.1084
  114MOL   H18923015   0.396   0.122   1.936  1.1434  1.1465  0.9650
  114MOL   H19023016   0.503   7.727   2.148 -0.0085 -0.0263  1.0406
  114MOL   H19123017   0.334   7.746   2.101 -0.2132 -0.1233  0.0375
  114MOL   O19223018   0.417   0.129   2.177 -0.2904  1.0925 -0.5444
  114MOL   C19323019   0.343   0.108   2.291  0.4343  0.3088  0.3878
  114MOL   C19423020   0.352   0.228   2.383  0.1470 -0.5628 -0.5447
  114MOL   C19523021   0.495   0.244   2.446 -0.3015  0.5397 -0.1895
  114MOL   H19623022   0.360   0.016   2.347 -1.8932  0.3695  1.2532
  114MOL   H19723023   0.238   0.097   2.264  0.6523 -0.8100 -0.0539
  114MOL   H19823024   0.320   0.320   2.334  3.5262  0.5088 -0.8966
  114MOL   H19923025   0.282   0.214   2.465  0.0635 -1.5892 -0.7926
  114MOL   H20023026   0.527   0.159   2.507  0.5682  1.0921  0.1383
  114MOL   H20123027   0.495   0.334   2.507  0.0610 -0.1542  0.8544
  114MOL   H20223028   0.566   0.260   2.365 -1.3212  1.3470 -0.9328
  115MOL     O123029   7.756   2.087   5.682 -0.5934 -0.3018 -0.3447
  115MOL     C223030   7.767   2.036   5.819 -0.6001  0.0801  0.3296
  115MOL     C323031   0.113   1.975   5.841  0.0427  0.0514 -0.6250
  115MOL     C423032   0.143   1.927   5.985 -0.6535 -0.0738  0.1737
  115MOL     H523033   7.691   1.960   5.832 -0.4513 -0.0068  0.6810
  115MOL     H623034   7.752   2.116   5.891 -1.8617 -1.1879  1.5082
  115MOL     H723035   0.129   1.893   5.771  0.1736  1.1740 -1.9160
  115MOL     H823036   0.190   2.043   5.806  1.2016 -1.2790 -0.6858
  115MOL     H923037   0.160   2.007   6.057  1.9845  0.0059 -0.4667
  115MOL    H1023038   0.242   1.882   5.978  0.3586  2.1065 -0.0749
  115MOL    H1123039   7.704   2.166   5.681  1.0236  0.7733 -0.6329
  115MOL    O1223040   0.050   1.829   6.022  0.4394  0.6127  0.4537
  115MOL    C1323041   0.093   1.757   6.140  0.0250 -0.8933 -0.4386
  115MOL    C1423042   0.010   1.633   6.178  0.6336  0.5164 -0.2357
  115MOL    C1523043   0.057   1.558   6.306 -0.0404 -0.2618 -1.3322
  115MOL    H1623044   0.084   1.821   6.228  2.8949 -0.1507 -0.6430
  115MOL    H1723045   0.193   1.714   6.131  0.9694  0.8228  1.4369
  115MOL    H1823046   7.695   1.662   6.201  0.3853 -1.3677  1.1230
  115MOL    H1923047   0.007   1.567   6.091  0.3124 -0.0653  0.2136
  115MOL    H2023048   0.031   1.608   6.400 -0.6225 -1.3498 -0.8993
  115MOL    H2123049   0.163   1.541   6.326 -0.3757  1.0899  1.9810
  115MOL    O2223050   7.780   1.436   6.303 -0.3490  0.3468  0.2855
  115MOL    C2323051   0.061   1.313   6.328 -0.6180 -0.2566  0.1259
  115MOL    C2423052   7.753   1.192   6.298 -0.5262  0.2472  0.5128
  115MOL    C2523053   7.691   1.191   6.162  0.1312  0.2201  0.0799
  115MOL    H2623054   0.099   1.317   6.430 -1.5491 -1.1525  0.5208
  115MOL    H2723055   0.145   1.305   6.259 -0.8803  2.0910 -0.4843
  115MOL    H2823056   0.017   1.096   6.292  1.2473  1.1477  1.2766
  115MOL    H2923057   7.675   1.176   6.373 -0.9952 -2.5821 -0.4979
  115MOL    H3023058   7.770   1.218   6.091  2.1840 -0.9123  1.8904
  115MOL    H3123059   7.617   1.270   6.154 -0.4674 -0.6657 -4.4004
  115MOL    O3223060   7.622   1.065   6.129 -0.1318 -0.2876 -0.0025
  115MOL    C3323061   7.583   1.066   5.994  0.0734 -0.1673 -0.1939
  115MOL    C3423062   7.502   0.941   5.967  0.1258 -0.6763 -0.1647
  115MOL    C3523063   7.454   0.942   5.812 -0.5026  0.1098  0.5281
  115MOL    H3623064   7.679   1.064   5.943  2.3621  0.9520  3.8148
  115MOL    H3723065   7.519   1.149   5.967 -0.8472 -0.3314  1.4267
  115MOL    H3823066   7.570   0.860   5.992  0.1577 -0.4207  0.5972
  115MOL    H3923067   7.412   0.952   6.029  0.1953  0.9499 -0.3329
  115MOL    H4023068   7.538   0.963   5.745 -0.9045  1.4989  0.4357
  115MOL    H4123069   7.373   1.009   5.782  0.7407  1.7031  0.6045
  115MOL    O4223070   7.428   0.800   5.788 -0.5714  0.0968 -0.4173
  115MOL    C4323071   7.417   0.770   5.647  0.3606  0.2447 -0.2600
  115MOL    C4423072   7.374   0.618   5.647  0.0669 -0.3195  0.6017
  115MOL    C4523073   7.354   0.554   5.509 -0.0326  0.7044  0.2337
  115MOL    H4623074   7.511   0.783   5.593  1.0449 -0.5306  0.7256
  115MOL    H4723075   7.336   0.830   5.606  0.4960  1.0480  0.6350
  115MOL    H4823076   7.450   0.559   5.699 -1.5244 -2.0508  1.0273
  115MOL    H4923077   7.282   0.609   5.705  0.6209  0.5318  1.6214
  115MOL    H5023078   7.451   0.566   5.460 -0.2722 -0.3988 -0.5302
  115MOL    H5123079   7.275   0.602   5.451 -1.0942  0.7076  1.6575
  115MOL    O5223080   7.331   0.415   5.514 -0.2959  0.7221  0.2130
  115MOL    C5323081   7.317   0.372   5.385  0.0381 -0.0376  0.0485
  115MOL    C5423082   7.352   0.220   5.386  0.1923  0.0603  0.0758
  115MOL    C5523083   7.364   0.152   5.249  0.1347 -0.4461  0.8897
  115MOL    H5623084   7.380   0.429   5.317  0.1071 -0.4899 -0.2650
  115MOL    H5723085   7.215   0.385   5.349 -0.7463 -1.9995  1.4887
  115MOL    H5823086   7.447   0.205   5.437  0.0500 -1.5875 -0.1211
  115MOL    H5923087   7.286   0.160   5.447  2.2249 -1.9254  0.3873
  115MOL    H6023088   7.424   0.063   5.262  0.2832 -0.0927  2.8636
  115MOL    H6123089   7.424   0.216   5.184  0.6000 -2.0964 -0.3074
  115MOL    O6223090   7.236   0.125   5.188 -0.1496 -0.3210  0.2167
  115MOL    C6323091   7.227   0.090   5.053 -0.4802 -0.0416 -0.3520
  115MOL    C6423092   7.217   0.220   4.968 -0.3390  0.4807 -0.5750
  115MOL    C6523093   7.200   0.192   4.819  0.1175  0.2039 -0.2244
  115MOL    H6623094   7.140   0.028   5.032 -1.7467  1.3189  0.7791
  115MOL    H6723095   7.317   0.033   5.030  1.4475  2.0940  1.6180
  115MOL    H6823096   7.129   0.274   5.003  0.1268 -0.1764  1.6823
  115MOL    H6923097   7.308   0.275   4.991 -1.2498  0.7708  2.5587
  115MOL    H7023098   7.263   0.108   4.791  0.6309  0.6078 -0.2753
  115MOL    H7123099   7.231   0.274   4.755 -1.8694  1.6613  0.6270
  115MOL    O7223100   7.059   0.158   4.806  0.0546 -0.1557 -0.4658
  115MOL    C7323101   7.012   0.145   4.673 -1.0994  0.6064  1.1567
  115MOL    C7423102   6.875   0.082   4.663 -0.4202  0.3823 -0.7966
  115MOL    C7523103   6.841   7.767   4.770 -0.0326 -0.2371 -0.5007
  115MOL    H7623104   7.080   0.072   4.631 -1.5319  0.4961  0.6402
  115MOL    H7723105   7.022   0.235   4.612  2.5356 -0.1173  0.6018
  115MOL    H7823106   6.803   0.164   4.673 -0.5277  0.0381  1.4641
  115MOL    H7923107   6.864   0.041   4.563 -1.7846 -0.5908 -0.2544
  115MOL    H8023108   6.853   0.017   4.872 -0.6297 -0.1129 -0.4729
  115MOL    H8123109   6.896   7.676   4.748  0.1079 -0.2298 -0.1796
  115MOL    O8223110   6.699   7.738   4.767  1.0380  0.5591  1.0318
  115MOL    C8323111   6.613   0.037   4.834 -0.9406  0.1207 -0.1315
  115MOL    C8423112   6.471   7.755   4.836  0.5473 -0.5882  0.1976
  115MOL    C8523113   6.379   0.019   4.947 -0.1207 -0.4247 -0.5314
  115MOL    H8623114   6.610   0.134   4.784 -0.2531  0.6227  0.7745
  115MOL    H8723115   6.655   0.049   4.934 -0.4235  2.9624 -0.6324
  115MOL    H8823116   6.411   7.770   4.747 -5.0116 -3.5096  3.2084
  115MOL    H8923117   6.477   7.646   4.826 -1.1632 -0.8224  1.5785
  115MOL    H9023118   6.379   0.128   4.944 -3.3173 -0.4175 -2.9153
  115MOL    H9123119   6.415   7.785   5.048  2.1286 -0.3579 -1.2943
  115MOL    O9223120   6.250   7.764   4.932  0.4655  0.3059 -0.4436
  115MOL    C9323121   6.177   7.768   5.051  0.1366 -0.0449  0.0883
  115MOL    C9423122   6.038   7.719   5.007 -0.0244 -0.4542 -0.5959
  115MOL    C9523123   5.924   7.713   5.106  0.1144  0.1722 -0.2573
  115MOL    H9623124   6.172   0.072   5.108 -0.8471 -1.0322  1.6310
  115MOL    H9723125   6.213   7.690   5.118  0.6114 -0.2420 -0.3963
  115MOL    H9823126   6.001   0.001   4.932 -0.9661 -1.6712 -1.3009
  115MOL    H9923127   6.052   7.625   4.953  0.3228 -1.8504  1.8630
  115MOL   H10023128   5.901   0.029   5.130 -0.4613 -0.0160  0.0195
  115MOL   H10123129   5.957   7.673   5.202  0.9331 -3.1589 -1.8513
  115MOL   O10223130   5.805   7.652   5.051 -0.0059 -0.2236  0.1848
  115MOL   C10323131   5.698   7.651   5.138 -0.5030 -0.4022  0.1661
  115MOL   C10423132   5.578   7.599   5.058 -0.1328  0.2782 -0.2468
  115MOL   C10523133   5.451   7.636   5.132  0.1575 -0.3751 -0.6596
  115MOL   H10623134   5.677   7.747   5.186  0.9428 -0.6303  1.2638
  115MOL   H10723135   5.712   7.589   5.226 -1.0797 -2.1606 -0.9571
  115MOL   H10823136   5.577   7.637   4.956  0.7453  0.5065 -0.1741
  115MOL   H10923137   5.586   7.490   5.057 -1.3530  0.1862 -0.8170
  115MOL   H11023138   5.447   7.744   5.142  1.5772 -0.5656  2.4000
  115MOL   H11123139   5.449   7.595   5.233  0.2567  2.6759  0.6162
  115MOL   O11223140   5.347   7.571   5.056 -0.6364  0.0284  0.6272
  115MOL   C11323141   5.215   7.574   5.115 -0.4089  0.0557 -0.1628
  115MOL   C11423142   5.128   7.468   5.044 -0.0486  0.4967  0.6378
  115MOL   C11523143   4.988   7.434   5.099 -0.1536 -0.3250  0.0824
  115MOL   H11623144   5.177   7.676   5.110 -0.5185  0.0340  0.2124
  115MOL   H11723145   5.231   7.550   5.220  1.5672  2.5511  0.1590
  115MOL   H11823146   5.122   7.493   4.938  0.7712 -2.7585 -0.2276
  115MOL   H11923147   5.192   7.379   5.039 -1.1004 -0.2324  0.0533
  115MOL   H12023148   4.939   7.529   5.122  0.1781 -0.1293 -0.0142
  115MOL   H12123149   5.002   7.395   5.200  0.8127 -1.2163 -0.3829
  115MOL   O12223150   4.905   7.375   5.001  0.1540 -0.1181  0.0872
  115MOL   C12323151   4.788   7.305   5.043 -0.4084 -0.6147  0.3180
  115MOL   C12423152   4.706   7.267   4.918 -0.5341  0.0815  0.1162
  115MOL   C12523153   4.578   7.199   4.963  0.2399  0.8593  0.5701
  115MOL   H12623154   4.717   7.364   5.100  0.4365  1.4664 -0.7298
  115MOL   H12723155   4.821   7.221   5.104  0.8199  0.4454  1.1341
  115MOL   H12823156   4.697   7.361   4.863  3.2937  1.1231  1.0718
  115MOL   H12923157   4.771   7.206   4.856 -1.3051  2.8904 -3.6288
  115MOL   H13023158   4.520   7.172   4.875  0.3398  1.6410  0.2546
  115MOL   H13123159   4.514   7.261   5.026 -2.6487 -0.1106 -1.3566
  115MOL   O13223160   4.608   7.076   5.027  0.2000 -0.2918 -0.3860
  115MOL   C13323161   4.496   7.000   5.076  0.1746 -0.2025  0.3076
  115MOL   C13423162   4.518   6.937   5.212 -0.2280  0.0425  0.1171
  115MOL   C13523163   4.377   6.907   5.274 -0.5615  0.3555  0.2005
  115MOL   H13623164   4.481   6.914   5.010  0.6807 -0.5194  0.5953
  115MOL   H13723165   4.414   7.071   5.077 -0.2829 -0.7106 -0.4230
  115MOL   H13823166   4.580   6.847   5.213 -0.4894 -0.1669 -1.4771
  115MOL   H13923167   4.568   7.009   5.277  0.3620  0.3480 -0.6696
  115MOL   H14023168   4.331   6.831   5.211 -1.1040  0.1939  0.7939
  115MOL   H14123169   4.307   6.989   5.288  0.0114  0.2680  4.1333
  115MOL   O14223170   4.407   6.842   5.398  0.4110 -0.7024 -0.2452
  115MOL   C14323171   4.430   6.913   5.513 -0.4937  0.6079 -0.8247
  115MOL   C14423172   4.442   6.803   5.628  1.0982 -0.4186 -0.1116
  115MOL   C14523173   4.462   6.883   5.760 -0.3149  0.5367 -0.0565
  115MOL   H14623174   4.335   6.963   5.532 -0.0743  1.0540  0.1398
  115MOL   H14723175   4.518   6.976   5.499  0.1642  0.1550  1.1163
  115MOL   H14823176   4.358   6.733   5.624  0.5445  0.3579 -2.9942
  115MOL   H14923177   4.541   6.758   5.614  2.0532  1.4137  0.5322
  115MOL   H15023178   4.374   6.944   5.781 -1.0137 -0.7733  0.9135
  115MOL   H15123179   4.548   6.949   5.747 -1.7923  2.0226 -2.7734
  115MOL   O15223180   4.467   6.792   5.869 -0.1605 -0.3856  0.6714
  115MOL   C15323181   4.481   6.853   5.997  0.8643 -0.2130 -0.3790
  115MOL   C15423182   4.460   6.734   6.092  0.4543  0.1414 -0.5753
  115MOL   C15523183   4.533   6.767   6.225 -0.1846 -0.3919  0.2539
  115MOL   H15623184   4.402   6.927   6.012  1.8476  1.3901 -2.7615
  115MOL   H15723185   4.579   6.899   6.013  0.5449  0.0840  0.7551
  115MOL   H15823186   4.356   6.712   6.117 -0.1095  0.6433 -2.3917
  115MOL   H15923187   4.507   6.646   6.050 -3.1725 -1.8864 -0.5828
  115MOL   H16023188   4.640   6.755   6.206 -0.2463  0.7752 -0.9460
  115MOL   H16123189   4.500   6.689   6.293 -2.7994 -1.9070 -2.6045
  115MOL   O16223190   4.493   6.900   6.265 -0.0268 -0.3173 -0.0651
  115MOL   C16323191   4.514   6.927   6.401 -0.5322 -0.5035 -0.0456
  115MOL   C16423192   4.488   7.080   6.424 -0.2290 -0.0108 -0.1749
  115MOL   C16523193   4.472   7.116   6.569 -0.0514  0.2432  0.1118
  115MOL   H16623194   4.618   6.901   6.418 -0.1124  0.5988 -0.8909
  115MOL   H16723195   4.455   6.860   6.464  2.4281 -2.4801  0.7283
  115MOL   H16823196   4.562   7.141   6.372  0.4038 -0.7675 -0.1691
  115MOL   H16923197   4.392   7.108   6.381  0.9265  3.2786 -0.7502
  115MOL   H17023198   4.388   7.061   6.611  1.6837  0.3515  3.9357
  115MOL   H17123199   4.442   7.221   6.575 -0.3192  0.3127 -2.1652
  115MOL   O17223200   4.587   7.107   6.642 -0.1084 -0.0465  0.3287
  115MOL   C17323201   4.561   7.116   6.784  0.7366 -0.0175 -0.4204
  115MOL   C17423202   4.518   7.001   6.860  0.3495  0.7950  0.2849
  115MOL   C17523203   4.632   6.901   6.882 -0.0221 -0.0723  0.2560
  115MOL   H17623204   4.482   7.190   6.797  2.9020  1.9149  2.7537
  115MOL   H17723205   4.651   7.163   6.824  1.3483 -1.1312 -0.4636
  115MOL   H17823206   4.456   7.018   6.949 -0.2414 -0.0974  0.0499
  115MOL   H17923207   4.437   6.947   6.811  0.5886 -1.6674  2.4642
  115MOL   H18023208   4.704   6.962   6.935 -0.4837 -0.6390  1.5619
  115MOL   H18123209   4.682   6.875   6.789  1.6619  1.5415  0.6970
  115MOL   O18223210   4.581   6.799   6.965 -0.0087  0.1837  0.7918
  115MOL   C18323211   4.523   6.686   6.902  0.0194 -0.2224  0.0943
  115MOL   C18423212   4.490   6.583   7.011 -0.3304  0.1599  0.7193
  115MOL   C18523213   4.385   6.480   6.979 -0.5457  0.2778  0.0988
  115MOL   H18623214   4.597   6.639   6.837 -0.8702  0.1390 -1.2015
  115MOL   H18723215   4.440   6.713   6.836  0.4569  0.0614 -0.3441
  115MOL   H18823216   4.585   6.536   7.034 -0.1926 -0.9857 -1.9773
  115MOL   H18923217   4.475   6.630   7.108  2.5631  1.3964  0.6164
  115MOL   H19023218   4.422   6.412   6.902  4.3094  2.0552  0.6867
  115MOL   H19123219   4.290   6.523   6.948 -0.7263  0.6141  1.1269
  115MOL   O19223220   4.385   6.398   7.090 -0.0539 -0.0172  0.7219
  115MOL   C19323221   4.290   6.294   7.085  0.5490  0.0923  0.5527
  115MOL   C19423222   4.315   6.186   7.193 -0.5129 -0.3767  0.0713
  115MOL   C19523223   4.228   6.066   7.183 -0.2985  0.4432  0.2721
  115MOL   H19623224   4.318   6.236   6.997  0.5840 -0.7109  1.0925
  115MOL   H19723225   4.187   6.328   7.068  0.5527 -0.1066  0.1021
  115MOL   H19823226   4.419   6.159   7.174 -0.9799 -1.3698 -1.1932
  115MOL   H19923227   4.304   6.225   7.294  0.8263 -0.7746  0.3869
  115MOL   H20023228   4.131   6.098   7.220 -1.0127 -3.1442  1.6641
  115MOL   H20123229   4.259   5.976   7.236  0.0781 -0.4736 -1.4670
  115MOL   H20223230   4.197   6.032   7.084 -2.3584  1.1211  0.6458
  116MOL     O123231   2.249   2.508   7.741  0.5635 -0.3797  0.2449
  116MOL     C223232   2.221   2.559   0.087  0.3767  0.1859  0.1512
  116MOL     C323233   2.350   2.550   0.172  0.6254 -0.4868 -0.2329
  116MOL     C423234   2.325   2.610   0.304 -0.2020  0.3008  0.3050
  116MOL     H523235   2.138   2.501   0.127  0.9285 -0.0821  0.9204
  116MOL     H623236   2.191   2.662   0.074 -1.1379 -0.1363  1.0781
  116MOL     H723237   2.380   2.446   0.187 -1.8317 -0.9693  1.7502
  116MOL     H823238   2.426   2.607   0.118  0.5480 -0.8841 -0.7689
  116MOL     H923239   2.244   2.561   0.359  0.3569 -0.8483  0.1204
  116MOL    H1023240   2.307   2.718   0.302  2.2640  0.7092 -0.7476
  116MOL    H1123241   2.263   2.583   7.686  1.3856  0.1207  1.1116
  116MOL    O1223242   2.426   2.594   0.400 -0.1517  0.3957  0.5923
  116MOL    C1323243   2.546   2.666   0.363  0.3337  0.3409  0.4072
  116MOL    C1423244   2.656   2.638   0.470 -0.3281 -0.0717 -0.6467
  116MOL    C1523245   2.710   2.499   0.476 -0.4467 -0.3933  0.2783
  116MOL    H1623246   2.524   2.772   0.370  0.3667  0.3022  1.0579
  116MOL    H1723247   2.593   2.647   0.266  0.7650  4.2635 -0.2243
  116MOL    H1823248   2.740   2.707   0.462  0.8148 -1.0739  2.1654
  116MOL    H1923249   2.613   2.663   0.567  1.7097 -1.9705  0.7992
  116MOL    H2023250   2.756   2.462   0.385  0.5047  2.1174 -0.3014
  116MOL    H2123251   2.622   2.435   0.491  0.9248 -1.5685  3.8587
  116MOL    O2223252   2.812   2.489   0.578  0.7092 -0.2605 -0.0354
  116MOL    C2323253   2.848   2.345   0.586  0.0631  0.0318  1.0796
  116MOL    C2423254   2.968   2.353   0.682  0.2100  0.2112  1.3879
  116MOL    C2523255   3.022   2.207   0.706  0.7290  1.0605  0.3990
  116MOL    H2623256   2.881   2.312   0.488 -0.8246 -0.7084  1.0336
  116MOL    H2723257   2.763   2.286   0.619 -0.4179  0.3615  0.4319
  116MOL    H2823258   3.053   2.418   0.659 -0.3072  2.4148  5.1606
  116MOL    H2923259   2.928   2.382   0.780  0.2286 -2.7477  2.3282
  116MOL    H3023260   3.044   2.161   0.609 -2.6068  0.3186 -0.0663
  116MOL    H3123261   2.933   2.152   0.738  0.1985 -0.0293 -2.7550
  116MOL    O3223262   3.139   2.195   0.788 -0.1133 -0.2831  0.2120
  116MOL    C3323263   3.109   2.155   0.922 -0.5505  0.0508  0.3164
  116MOL    C3423264   3.234   2.145   1.008 -0.1700 -0.4893 -0.0037
  116MOL    C3523265   3.294   2.284   1.020 -1.1921  0.1717  0.3747
  116MOL    H3623266   3.051   2.063   0.933  0.4039 -0.3954  1.6549
  116MOL    H3723267   3.049   2.228   0.975 -3.9459 -0.7286 -2.2017
  116MOL    H3823268   3.227   2.115   1.112  0.2290 -1.0542 -0.1380
  116MOL    H3923269   3.305   2.079   0.959  0.0593 -0.6453  0.5370
  116MOL    H4023270   3.217   2.358   1.046 -0.2222  1.2895  0.1105
  116MOL    H4123271   3.341   2.327   0.932  0.5881 -0.9093  0.7684
  116MOL    O4223272   3.384   2.288   1.125  0.6286  0.0065 -0.7211
  116MOL    C4323273   3.507   2.222   1.103  0.3681  0.1725  0.0279
  116MOL    C4423274   3.612   2.265   1.205 -0.0175 -0.0471 -0.1917
  116MOL    C4523275   3.750   2.205   1.203 -0.7145  0.8413  0.2741
  116MOL    H4623276   3.545   2.249   1.004 -1.1522 -3.1293 -1.5496
  116MOL    H4723277   3.500   2.113   1.099  0.0111  0.2133 -0.4880
  116MOL    H4823278   3.628   2.372   1.196  0.3778 -0.0188  0.8068
  116MOL    H4923279   3.564   2.257   1.302  1.8771  0.2632  0.7940
  116MOL    H5023280   3.794   2.228   1.105 -0.3457 -0.4520  0.1161
  116MOL    H5123281   3.742   2.097   1.220 -2.1895  0.8514 -0.2811
  116MOL    O5223282   3.823   2.270   1.307  0.2508  0.4717  0.0656
  116MOL    C5323283   3.945   2.202   1.339 -0.4784  0.1724 -0.0828
  116MOL    C5423284   4.013   2.266   1.459  0.3968 -0.4712  0.0592
  116MOL    C5523285   4.047   2.417   1.438 -0.9992 -0.1343 -0.0566
  116MOL    H5623286   4.019   2.214   1.259  1.4070 -2.1514  1.2386
  116MOL    H5723287   3.926   2.096   1.355 -1.8481  0.5151  0.6027
  116MOL    H5823288   3.949   2.252   1.546  0.1307  0.7279  0.0678
  116MOL    H5923289   4.110   2.219   1.474  0.8460  0.0408 -1.1915
  116MOL    H6023290   3.949   2.463   1.451 -0.7622 -0.2565  2.4910
  116MOL    H6123291   4.085   2.445   1.340  1.3635  1.3503  1.2493
  116MOL    O6223292   4.137   2.470   1.543  0.1689 -0.2090 -0.6228
  116MOL    C6323293   4.135   2.612   1.547  0.2104  1.4817 -0.5348
  116MOL    C6423294   4.027   2.656   1.649  0.3407  0.0154  0.2642
  116MOL    C6523295   4.080   2.644   1.789 -0.3752 -0.3511 -0.1888
  116MOL    H6623296   4.117   2.668   1.455  0.4492  1.0311 -0.8576
  116MOL    H6723297   4.231   2.639   1.589  0.5062 -0.0912 -0.1390
  116MOL    H6823298   4.006   2.761   1.632 -1.4080 -0.3055  0.2949
  116MOL    H6923299   3.931   2.604   1.642  0.6338 -0.4109 -0.7270
  116MOL    H7023300   4.161   2.714   1.805  0.0907 -0.0685 -3.4562
  116MOL    H7123301   4.106   2.543   1.821 -1.1622 -0.4357  0.2187
  116MOL    O7223302   3.988   2.683   1.891  0.1821 -0.6599  0.1627
  116MOL    C7323303   3.873   2.592   1.903 -0.5125  0.3975  0.2827
  116MOL    C7423304   3.776   2.654   2.007  0.3551  0.0435  0.8183
  116MOL    C7523305   3.646   2.573   2.032 -0.1092  0.4875 -0.0111
  116MOL    H7623306   3.907   2.492   1.926 -1.2921  0.7990  3.4693
  116MOL    H7723307   3.813   2.601   1.813 -0.2802 -0.2205  0.0659
  116MOL    H7823308   3.828   2.656   2.102  2.9045 -0.4206 -0.5064
  116MOL    H7923309   3.746   2.758   1.998  1.8850  0.4476  0.3145
  116MOL    H8023310   3.673   2.469   2.050  0.3025  0.5287 -0.3898
  116MOL    H8123311   3.580   2.590   1.947  2.0563  2.3259 -1.3950
  116MOL    O8223312   3.587   2.610   2.155  0.2018 -0.1474 -0.2542
  116MOL    C8323313   3.538   2.741   2.154 -0.1530  0.7081 -0.5022
  116MOL    C8423314   3.425   2.739   2.258  0.0716 -0.2780 -0.5384
  116MOL    C8523315   3.345   2.869   2.250 -0.4654 -0.0393 -0.8981
  116MOL    H8623316   3.500   2.772   2.057 -1.4951  0.5449 -0.0521
  116MOL    H8723317   3.618   2.811   2.177 -0.6551  1.4179 -0.8974
  116MOL    H8823318   3.355   2.656   2.249 -0.8426  0.5506 -1.1622
  116MOL    H8923319   3.484   2.732   2.349  0.2382  2.1744 -0.4297
  116MOL    H9023320   3.297   2.892   2.155 -2.6609 -3.0169 -0.5480
  116MOL    H9123321   3.414   2.954   2.250 -0.3217 -0.1202  0.9212
  116MOL    O9223322   3.238   2.877   2.346  0.5355  0.2671 -1.0622
  116MOL    C9323323   3.283   2.907   2.477  0.1254  0.3224  0.2333
  116MOL    C9423324   3.167   2.921   2.574  0.4560  0.3275  0.5783
  116MOL    C9523325   3.213   2.974   2.712  0.0998 -0.4574  0.5475
  116MOL    H9623326   3.341   2.999   2.475  0.3710  0.1695  0.3350
  116MOL    H9723327   3.353   2.829   2.507  0.2506  0.9151  1.5637
  116MOL    H9823328   3.100   2.993   2.526  1.5467  0.5664 -0.6007
  116MOL    H9923329   3.106   2.831   2.581 -0.1350  0.6197 -0.6581
  116MOL   H10023330   3.302   2.914   2.730  0.0851 -0.4973  0.4840
  116MOL   H10123331   3.130   2.967   2.784 -0.0140  0.8432  0.5575
  116MOL   O10223332   3.261   3.104   2.707  0.0283 -0.5347 -0.4170
  116MOL   C10323333   3.279   3.172   2.836  0.0364 -0.0803  0.0927
  116MOL   C10423334   3.413   3.123   2.903 -0.1935  0.0066 -0.0872
  116MOL   C10523335   3.461   3.226   3.011 -0.5201  0.1114  0.1443
  116MOL   H10623336   3.190   3.172   2.899  0.1005  5.1848  0.4609
  116MOL   H10723337   3.301   3.279   2.827  1.0110 -0.3856 -1.3611
  116MOL   H10823338   3.397   3.027   2.953  0.6264 -0.5039 -0.8011
  116MOL   H10923339   3.495   3.123   2.832  0.3696  0.6713  0.5556
  116MOL   H11023340   3.529   3.180   3.083 -0.2383 -0.4089 -0.4509
  116MOL   H11123341   3.378   3.268   3.067  0.3293  1.7601  0.2201
  116MOL   O11223342   3.539   3.329   2.947 -0.3765  0.0350 -0.4327
  116MOL   C11323343   3.546   3.454   3.018 -0.2986  0.3059 -0.3344
  116MOL   C11423344   3.635   3.561   2.951 -0.0104  0.5189  0.2887
  116MOL   C11523345   3.630   3.706   3.017  0.0916  0.2127 -0.8976
  116MOL   H11623346   3.578   3.433   3.120 -1.0379 -0.7882 -0.3154
  116MOL   H11723347   3.444   3.493   3.017  0.3196  2.0016  0.7072
  116MOL   H11823348   3.738   3.532   2.928  0.2632  1.2322  0.6122
  116MOL   H11923349   3.596   3.574   2.850  0.2770  0.6642  0.1968
  116MOL   H12023350   3.538   3.761   3.000 -0.4934 -0.6653 -0.6089
  116MOL   H12123351   3.711   3.761   2.970  0.6347  1.1332  1.0342
  116MOL   O12223352   3.653   3.691   3.163 -0.4432  0.6894 -0.4492
  116MOL   C12323353   3.682   3.813   3.234  0.5985  0.6616 -0.2523
  116MOL   C12423354   3.698   3.795   3.382  0.2239  0.1551 -0.4648
  116MOL   C12523355   3.575   3.758   3.461 -0.3482  0.0850 -0.2881
  116MOL   H12623356   3.601   3.884   3.216  2.2269  2.3045 -1.3953
  116MOL   H12723357   3.770   3.864   3.194  2.0410 -0.5762  1.2758
  116MOL   H12823358   3.783   3.732   3.410  0.0057  0.7818  1.6998
  116MOL   H12923359   3.733   3.886   3.429 -1.2762  0.5144 -0.0289
  116MOL   H13023360   3.539   3.657   3.441 -1.6757  0.1125  1.7480
  116MOL   H13123361   3.491   3.827   3.453 -1.8550 -1.7014 -0.3958
  116MOL   O13223362   3.604   3.770   3.605 -0.2518 -0.1366 -0.3091
  116MOL   C13323363   3.506   3.730   3.693  0.5802 -0.5090 -0.2585
  116MOL   C13423364   3.525   3.770   3.838 -0.6226  0.2183 -0.3235
  116MOL   C13523365   3.427   3.694   3.925  0.2595 -0.6141 -0.2505
  116MOL   H13623366   3.492   3.624   3.675 -0.4210 -0.3222 -0.6017
  116MOL   H13723367   3.415   3.780   3.660  1.4819  1.0684 -0.3962
  116MOL   H13823368   3.623   3.742   3.876  0.3669  1.8135 -1.6398
  116MOL   H13923369   3.514   3.879   3.839  0.9772  0.3785 -0.0083
  116MOL   H14023370   3.453   3.589   3.927  0.2258 -0.6046  1.3275
  116MOL   H14123371   3.321   3.707   3.902 -0.1808 -0.0407  1.9612
  116MOL   O14223372   3.450   3.742   4.055 -0.6442 -0.1044  0.1111
  116MOL   C14323373   3.357   3.690   4.149  1.0389 -0.8968 -0.6245
  116MOL   C14423374   3.427   3.638   4.278 -0.0913  0.5679  0.1799
  116MOL   C14523375   3.498   3.500   4.268  0.7846 -0.3248  0.3592
  116MOL   H14623376   3.283   3.617   4.115 -0.2247  0.0362  0.0915
  116MOL   H14723377   3.283   3.763   4.183  0.6291 -2.2068  1.3251
  116MOL   H14823378   3.495   3.715   4.316 -0.1108 -0.1120  1.6268
  116MOL   H14923379   3.352   3.639   4.357 -1.0213 -0.0311 -0.6814
  116MOL   H15023380   3.564   3.497   4.355  0.6058 -0.6613  0.4845
  116MOL   H15123381   3.559   3.490   4.179 -0.4519  2.1489 -0.8111
  116MOL   O15223382   3.400   3.403   4.258 -0.1605 -0.1452 -0.0018
  116MOL   C15323383   3.462   3.275   4.266  0.0388 -0.6047  0.0605
  116MOL   C15423384   3.386   3.162   4.191 -0.4391 -0.7879 -0.6569
  116MOL   C15523385   3.242   3.160   4.236  0.0588  0.9004  0.4011
  116MOL   H15623386   3.470   3.240   4.369 -0.4971  0.7019  0.5463
  116MOL   H15723387   3.565   3.275   4.229  0.2360 -2.3239  0.5476
  116MOL   H15823388   3.387   3.180   4.083 -1.5329  1.2129 -0.3561
  116MOL   H15923389   3.422   3.065   4.223  2.0109  1.2898  3.2908
  116MOL   H16023390   3.197   3.258   4.222 -0.0544  0.8997  0.7593
  116MOL   H16123391   3.233   3.140   4.343 -1.3907 -0.2798  0.0707
  116MOL   O16223392   3.166   3.057   4.167 -0.0464 -0.0890  0.1595
  116MOL   C16323393   3.026   3.083   4.159  0.5477 -0.5652  0.1174
  116MOL   C16423394   2.962   2.970   4.082  0.5407  0.1410  0.0731
  116MOL   C16523395   2.805   2.980   4.080 -0.3155  0.4176 -0.6924
  116MOL   H16623396   3.013   3.184   4.120  1.3494 -0.1001  1.0323
  116MOL   H16723397   2.995   3.092   4.263 -0.3257 -0.0621 -0.1861
  116MOL   H16823398   2.998   2.974   3.979 -0.3177 -0.7211 -0.2614
  116MOL   H16923399   2.984   2.871   4.121  0.6854 -0.2482 -0.9731
  116MOL   H17023400   2.766   3.040   4.162  1.4788 -1.8192  1.9115
  116MOL   H17123401   2.761   2.881   4.085  2.3282 -0.7076  1.5085
  116MOL   O17223402   2.763   3.054   3.973 -0.2331 -0.1877 -0.1595
  116MOL   C17323403   2.622   3.086   3.964 -0.1663 -0.2013  0.3591
  116MOL   C17423404   2.584   3.200   3.862 -0.1599  0.0149  0.9526
  116MOL   C17523405   2.441   3.241   3.848 -0.0508  0.0417  0.2204
  116MOL   H17623406   2.592   3.127   4.060  3.9673  1.2741  1.1041
  116MOL   H17723407   2.565   2.996   3.944  0.5273 -0.8015  1.0824
  116MOL   H17823408   2.640   3.290   3.889  0.0286 -0.8615  3.5863
  116MOL   H17923409   2.632   3.176   3.767  2.4829  1.1719  1.9496
  116MOL   H18023410   2.441   3.346   3.817  2.1396 -0.5669 -1.9838
  116MOL   H18123411   2.398   3.225   3.947  3.2027 -3.1852  1.2130
  116MOL   O18223412   2.376   3.167   3.744 -0.4821  0.2238 -0.0498
  116MOL   C18323413   2.255   3.233   3.704 -0.1098 -0.1274 -0.1121
  116MOL   C18423414   2.184   3.161   3.585  0.8914  0.0128  0.9724
  116MOL   C18523415   2.038   3.204   3.552 -0.0090  0.4258  0.1704
  116MOL   H18623416   2.271   3.337   3.675  0.3122 -0.1555  0.0234
  116MOL   H18723417   2.190   3.232   3.792 -0.8135 -1.2439 -0.6292
  116MOL   H18823418   2.241   3.178   3.494 -2.2583 -1.1152 -1.2660
  116MOL   H18923419   2.180   3.052   3.597  2.5924 -0.1352  0.3843
  116MOL   H19023420   2.031   3.312   3.538  4.4470  0.7372 -0.1296
  116MOL   H19123421   1.969   3.173   3.631  1.2940  1.1269  1.6010
  116MOL   O19223422   1.993   3.134   3.438  0.5155  0.5078 -0.0596
  116MOL   C19323423   1.960   2.998   3.459 -0.0522 -0.1381 -0.2063
  116MOL   C19423424   1.900   2.944   3.334 -0.4433  0.0854 -0.0614
  116MOL   C19523425   1.842   2.799   3.359 -0.3891 -0.1773  0.1918
  116MOL   H19623426   1.880   2.999   3.533  1.0652  2.8397  1.0150
  116MOL   H19723427   2.036   2.928   3.495  0.0880 -0.9828 -2.1179
  116MOL   H19823428   1.820   3.006   3.292 -0.2510 -0.7356 -1.6837
  116MOL   H19923429   1.977   2.928   3.259  3.0875  0.8718  3.2128
  116MOL   H20023430   1.889   2.746   3.442 -0.8542  0.9529  1.1888
  116MOL   H20123431   1.837   2.737   3.270  2.7414  0.8697 -0.7436
  116MOL   H20223432   1.735   2.805   3.381 -0.8914  0.0907 -2.1820
  117MOL     O123433   3.853   1.503   2.129  0.0186  0.4443  0.4566
  117MOL     C223434   3.906   1.592   2.220 -0.3767  0.0354 -0.0847
  117MOL     C323435   4.032   1.641   2.156 -0.1793 -0.1234  0.4561
  117MOL     C423436   4.154   1.640   2.247 -0.4925 -0.1672 -0.1762
  117MOL     H523437   3.935   1.541   2.312 -0.2141  1.0095  0.4117
  117MOL     H623438   3.834   1.671   2.242 -2.9466 -1.9019 -1.2261
  117MOL     H723439   4.056   1.579   2.070 -1.4984  0.4782 -0.3584
  117MOL     H823440   4.026   1.744   2.119 -0.0365 -0.2013  0.2183
  117MOL     H923441   4.174   1.536   2.273 -0.8059  0.0456  0.9489
  117MOL    H1023442   4.137   1.702   2.335  0.3251 -1.2455  0.7605
  117MOL    H1123443   3.766   1.478   2.158 -0.0822  2.6443  2.1662
  117MOL    O1223444   4.257   1.719   2.190  0.5000 -0.1367  0.2387
  117MOL    C1323445   4.314   1.660   2.077 -0.0559  0.0049 -0.3025
  117MOL    C1423446   4.437   1.739   2.027 -0.5001  0.2075  0.0788
  117MOL    C1523447   4.499   1.683   1.898  0.6187 -0.0994 -0.5859
  117MOL    H1623448   4.239   1.662   1.998 -0.0782 -0.3014 -0.2898
  117MOL    H1723449   4.338   1.555   2.094 -1.7843 -0.0781  1.7513
  117MOL    H1823450   4.416   1.846   2.019  0.2065  0.1870 -2.4995
  117MOL    H1923451   4.516   1.738   2.103  1.2153 -2.5809 -1.6373
  117MOL    H2023452   4.510   1.575   1.900  0.2496 -0.1441 -0.8561
  117MOL    H2123453   4.600   1.720   1.883  0.8385  0.2134  1.5059
  117MOL    O2223454   4.430   1.729   1.790 -0.3253 -0.0257  0.1524
  117MOL    C2323455   4.477   1.667   1.670 -0.7484 -0.4866  1.4939
  117MOL    C2423456   4.412   1.735   1.553  0.2592 -0.7633  1.3451
  117MOL    C2523457   4.433   1.661   1.417 -0.3558  0.3255  0.1412
  117MOL    H2623458   4.457   1.560   1.669  0.5625 -0.7364  1.0664
  117MOL    H2723459   4.586   1.679   1.670 -0.7872 -0.0958  2.7927
  117MOL    H2823460   4.305   1.749   1.569  0.4386  0.8288  1.2407
  117MOL    H2923461   4.453   1.836   1.547 -0.8953 -0.1644  3.1860
  117MOL    H3023462   4.378   1.706   1.334 -0.4783  0.1417  0.1211
  117MOL    H3123463   4.383   1.564   1.421  2.0212 -0.9341  0.3465
  117MOL    O3223464   4.569   1.658   1.377  0.2318 -0.0963  0.1565
  117MOL    C3323465   4.602   1.609   1.248 -0.2789 -0.0934  0.1453
  117MOL    C3423466   4.751   1.607   1.236  0.0164 -0.3901 -0.8073
  117MOL    C3523467   4.825   1.490   1.308  0.2698  0.4335 -0.1490
  117MOL    H3623468   4.536   1.648   1.171 -0.3699  0.3549  0.4514
  117MOL    H3723469   4.565   1.506   1.241 -0.4570  0.0909 -2.3754
  117MOL    H3823470   4.776   1.610   1.130  1.3298  1.4653 -0.4691
  117MOL    H3923471   4.792   1.696   1.283  0.6048 -1.6503  1.1091
  117MOL    H4023472   4.782   1.398   1.268  0.0670  1.1526 -1.6130
  117MOL    H4123473   4.825   1.490   1.417  1.2705 -0.5644 -0.1392
  117MOL    O4223474   4.966   1.512   1.274  0.0021  0.1665 -0.8559
  117MOL    C4323475   5.062   1.412   1.311 -0.0479 -0.3020  0.6511
  117MOL    C4423476   5.209   1.462   1.284  0.3461 -0.2181 -0.1173
  117MOL    C4523477   5.268   1.567   1.375  0.4376 -0.2792 -0.0213
  117MOL    H4623478   5.044   1.325   1.248  3.5266 -1.6637  1.3827
  117MOL    H4723479   5.057   1.388   1.417  1.4756  0.3785  0.8938
  117MOL    H4823480   5.274   1.375   1.273  1.4701  0.5351  0.5639
  117MOL    H4923481   5.212   1.491   1.179 -0.1112 -0.9206 -0.3298
  117MOL    H5023482   5.301   1.522   1.469 -0.3825 -0.9421 -0.0509
  117MOL    H5123483   5.182   1.630   1.396  0.4012 -0.1121 -0.6779
  117MOL    O5223484   5.377   1.623   1.307  0.0319 -0.2558 -0.1752
  117MOL    C5323485   5.458   1.695   1.395  0.3933  0.3351 -0.0965
  117MOL    C5423486   5.589   1.704   1.328 -0.1271 -0.3494 -0.3451
  117MOL    C5523487   5.700   1.778   1.405  0.4702  0.3807  0.7303
  117MOL    H5623488   5.482   1.644   1.489  2.6269 -0.8626 -1.2867
  117MOL    H5723489   5.408   1.791   1.403 -0.8893 -0.3979  0.7355
  117MOL    H5823490   5.620   1.600   1.326  1.9504  0.2254  0.1359
  117MOL    H5923491   5.580   1.738   1.225  0.1926  0.5095 -0.0971
  117MOL    H6023492   5.797   1.750   1.363  0.5928  2.0639 -0.1224
  117MOL    H6123493   5.705   1.734   1.505  0.4936 -0.6999  0.2699
  117MOL    O6223494   5.686   1.918   1.399  0.1829  0.5562  0.1927
  117MOL    C6323495   5.680   1.982   1.521  0.2030  0.6005  0.2106
  117MOL    C6423496   5.813   1.973   1.590  0.6876 -0.3876 -0.3874
  117MOL    C6523497   5.830   2.048   1.721 -0.0174 -0.1819 -0.4142
  117MOL    H6623498   5.595   1.943   1.576 -0.5037 -0.0859 -1.3274
  117MOL    H6723499   5.667   2.089   1.508  0.7004  0.3655 -2.8001
  117MOL    H6823500   5.838   1.872   1.621  2.0221  0.8280  2.6774
  117MOL    H6923501   5.885   2.008   1.516  0.4780 -1.0008 -0.8872
  117MOL    H7023502   5.762   2.010   1.797  0.7722 -2.3154 -0.7173
  117MOL    H7123503   5.808   2.152   1.699 -0.8391 -0.6363 -1.8269
  117MOL    O7223504   5.963   2.034   1.768 -0.1565  0.0381 -0.4869
  117MOL    C7323505   5.991   2.134   1.864 -0.2274  0.8246 -0.3545
  117MOL    C7423506   6.134   2.123   1.913  0.9032  0.0935 -0.3444
  117MOL    C7523507   6.188   2.229   2.009 -0.0405  0.3928 -0.0241
  117MOL    H7623508   5.929   2.124   1.952  0.5117  0.9749  0.1909
  117MOL    H7723509   5.971   2.233   1.821 -2.2118  0.4350 -0.3560
  117MOL    H7823510   6.141   2.036   1.978 -0.9130  2.4144  3.1343
  117MOL    H7923511   6.202   2.109   1.828  2.1229 -1.3160  0.8470
  117MOL    H8023512   6.186   2.329   1.965  0.6097 -0.5751 -2.2680
  117MOL    H8123513   6.293   2.203   2.020  0.1602  1.2010  0.0325
  117MOL    O8223514   6.124   2.230   2.137 -0.0001 -0.1812 -0.5394
  117MOL    C8323515   6.201   2.299   2.238  0.2160  0.2150 -0.4822
  117MOL    C8423516   6.147   2.311   2.389 -0.2254 -0.2252 -0.6313
  117MOL    C8523517   6.116   2.171   2.440  0.1447  0.2818 -0.1090
  117MOL    H8623518   6.225   2.400   2.204 -0.2154  0.5689  0.2645
  117MOL    H8723519   6.296   2.246   2.248 -1.3800 -2.8437 -1.2663
  117MOL    H8823520   6.214   2.357   2.462 -0.3590  1.2477 -1.4321
  117MOL    H8923521   6.066   2.383   2.386 -1.0056 -1.1303 -1.7110
  117MOL    H9023522   6.204   2.109   2.456 -1.3107 -1.7039  0.4080
  117MOL    H9123523   6.037   2.140   2.371  2.7190 -3.3835 -1.5918
  117MOL    O9223524   6.056   2.186   2.565 -0.3453 -0.0826  0.0604
  117MOL    C9323525   6.015   2.057   2.606 -0.2800  0.5765  0.4449
  117MOL    C9423526   5.972   2.068   2.756  0.8116  0.6338  0.5267
  117MOL    C9523527   6.094   2.099   2.855  0.6004 -0.2805  0.0890
  117MOL    H9623528   6.094   1.986   2.582 -1.3951 -0.2399 -0.8716
  117MOL    H9723529   5.931   2.025   2.545  0.7900 -0.7166 -0.3609
  117MOL    H9823530   5.884   2.132   2.766 -1.4471 -2.2150 -0.1863
  117MOL    H9923531   5.936   1.970   2.789  2.8086  0.7210  3.1032
  117MOL   H10023532   6.153   2.188   2.830  1.1759 -1.0853 -1.4814
  117MOL   H10123533   6.157   2.010   2.857 -2.2950 -2.5252 -3.9209
  117MOL   O10223534   6.041   2.147   2.983 -0.3395 -0.0048 -0.0086
  117MOL   C10323535   6.145   2.186   3.076  0.7401  0.1238  0.5268
  117MOL   C10423536   6.076   2.251   3.201  0.3319  0.8872 -0.0406
  117MOL   C10523537   6.180   2.294   3.309  0.2813  0.1521 -1.0618
  117MOL   H10623538   6.215   2.261   3.039 -0.7440  2.3824  2.1668
  117MOL   H10723539   6.195   2.093   3.104  1.7623  0.2688 -0.7928
  117MOL   H10823540   6.006   2.330   3.174  0.3008  0.2511 -1.9164
  117MOL   H10923541   6.018   2.183   3.263 -0.9765  1.0082 -1.0975
  117MOL   H11023542   6.240   2.378   3.275 -1.8540  1.4899 -1.6526
  117MOL   H11123543   6.250   2.213   3.329  0.4060  0.3339 -0.7538
  117MOL   O11223544   6.103   2.327   3.423 -0.4293 -0.6944 -0.4057
  117MOL   C11323545   6.179   2.405   3.519 -0.8045  0.0805 -0.5038
  117MOL   C11423546   6.206   2.546   3.485 -0.0285  0.3549  0.1129
  117MOL   C11523547   6.293   2.606   3.591 -0.1084 -0.2814 -0.9484
  117MOL   H11623548   6.272   2.359   3.551 -0.4482 -0.6169 -2.4649
  117MOL   H11723549   6.119   2.411   3.610  0.3897  1.1059  0.2397
  117MOL   H11823550   6.250   2.563   3.386 -0.3568 -1.1049 -0.2912
  117MOL   H11923551   6.116   2.605   3.469 -1.4798 -2.0969 -1.0682
  117MOL   H12023552   6.359   2.530   3.632  0.6078  0.8410  0.0207
  117MOL   H12123553   6.225   2.629   3.674  1.2890 -0.4928  0.2797
  117MOL   O12223554   6.362   2.709   3.534 -0.6349 -0.2610  0.1799
  117MOL   C12323555   6.447   2.771   3.627 -0.0914  0.0485  0.0201
  117MOL   C12423556   6.541   2.873   3.564 -0.0840  1.0550 -0.1465
  117MOL   C12523557   6.586   2.971   3.670  0.0035  0.5049  0.0077
  117MOL   H12623558   6.501   2.692   3.679 -0.3717 -0.3271 -0.2550
  117MOL   H12723559   6.385   2.820   3.702  1.0091  0.5909  0.5800
  117MOL   H12823560   6.623   2.810   3.528  0.5057  1.6282  0.1898
  117MOL   H12923561   6.507   2.916   3.470 -0.7741 -2.3425 -1.5448
  117MOL   H13023562   6.626   2.912   3.752 -1.4007 -0.0262  0.3218
  117MOL   H13123563   6.506   3.031   3.712  1.2983  1.6071  0.9243
  117MOL   O13223564   6.686   3.058   3.612  0.1445  0.3976 -0.3472
  117MOL   C13323565   6.755   3.134   3.710 -0.5260  0.5158 -0.2210
  117MOL   C13423566   6.829   3.254   3.646 -0.7955  0.0968 -0.1077
  117MOL   C13523567   6.941   3.320   3.723  0.0360  0.5704  0.2343
  117MOL   H13623568   6.818   3.072   3.774 -1.5922 -0.2873  0.0598
  117MOL   H13723569   6.695   3.192   3.780 -0.8749  1.2275 -1.0947
  117MOL   H13823570   6.859   3.232   3.543  0.9020  0.2750  0.3376
  117MOL   H13923571   6.749   3.326   3.627  1.5360  2.3534 -1.7375
  117MOL   H14023572   7.029   3.255   3.718 -1.4468 -1.4420 -0.3280
  117MOL   H14123573   6.903   3.327   3.825 -1.9365 -0.6883 -0.3888
  117MOL   O14223574   6.967   3.446   3.663 -0.4359 -0.4202 -1.0287
  117MOL   C14323575   6.913   3.561   3.720 -0.3582  0.3074 -0.5736
  117MOL   C14423576   6.901   3.656   3.606  0.4113  0.2228 -0.6969
  117MOL   C14523577   6.829   3.604   3.480 -0.4879  0.1522 -0.1866
  117MOL   H14623578   6.995   3.600   3.781  0.7334 -2.7693  0.0011
  117MOL   H14723579   6.824   3.563   3.783  0.0211 -1.4633  0.0479
  117MOL   H14823580   6.867   3.754   3.639 -1.2929 -0.3513 -0.7088
  117MOL   H14923581   7.006   3.680   3.586 -0.0996  3.0358 -0.2459
  117MOL   H15023582   6.722   3.601   3.500 -0.3226  1.6949  1.1093
  117MOL   H15123583   6.868   3.508   3.449 -0.2660 -0.0374  0.6632
  117MOL   O15223584   6.865   3.708   3.388  0.3091  0.2143  0.4041
  117MOL   C15323585   6.784   3.708   3.275 -0.0191  1.0590  0.0025
  117MOL   C15423586   6.849   3.792   3.159  0.1436 -0.0644  0.2077
  117MOL   C15523587   6.879   3.934   3.199  0.4894 -0.5880  0.0226
  117MOL   H15623588   6.685   3.736   3.308 -0.7435  0.3941 -1.5425
  117MOL   H15723589   6.773   3.603   3.248 -1.7296  1.0590  0.6748
  117MOL   H15823590   6.938   3.744   3.119 -0.6898 -0.6041 -1.0312
  117MOL   H15923591   6.771   3.803   3.083 -0.4008 -1.7921  0.4981
  117MOL   H16023592   6.943   3.922   3.287  0.8810  1.4473  0.0353
  117MOL   H16123593   6.793   3.987   3.240  0.3552 -0.3268 -0.5977
  117MOL   O16223594   6.936   4.006   3.092  0.1908 -0.5623 -0.1990
  117MOL   C16323595   6.951   4.140   3.137 -0.0854 -0.3938  0.5455
  117MOL   C16423596   7.007   4.217   3.016 -0.0679 -1.1052 -0.1609
  117MOL   C16523597   7.137   4.171   2.972  0.0955 -0.1867  0.1659
  117MOL   H16623598   7.012   4.153   3.226 -0.2247  0.0449  0.5831
  117MOL   H16723599   6.851   4.183   3.151  0.4579  0.7368  1.0346
  117MOL   H16823600   6.929   4.215   2.940 -1.6567 -2.5888  1.4612
  117MOL   H16923601   7.002   4.321   3.050  0.5714 -2.0539  2.9605
  117MOL   H17023602   7.117   4.086   2.906 -1.2813 -1.0595  1.6864
  117MOL   H17123603   7.194   4.129   3.055 -0.6379 -0.0616  0.7395
  117MOL   O17223604   7.212   4.268   2.897 -0.4471  0.5831  0.4027
  117MOL   C17323605   7.334   4.210   2.848  0.3027  1.0255  0.2658
  117MOL   C17423606   7.424   4.319   2.770  0.1482  0.0738  0.0336
  117MOL   C17523607   7.365   4.349   2.632  0.8432  0.7131 -0.0055
  117MOL   H17623608   7.313   4.128   2.779  3.3135  1.0138 -0.7468
  117MOL   H17723609   7.399   4.174   2.928 -0.0976 -1.4663 -0.4722
  117MOL   H17823610   7.441   4.411   2.826  0.0588 -0.5109  1.0246
  117MOL   H17923611   7.519   4.270   2.749 -0.1235 -0.6190  0.4145
  117MOL   H18023612   7.282   4.417   2.646  0.3872 -0.2331  2.1024
  117MOL   H18123613   7.327   4.252   2.600  0.1578  0.0163  2.7858
  117MOL   O18223614   7.469   4.400   2.550 -0.1332  0.2432  0.0385
  117MOL   C18323615   7.457   4.537   2.532 -0.5679  0.1599 -0.2695
  117MOL   C18423616   7.548   4.592   2.424  0.4904 -0.3755 -0.3840
  117MOL   C18523617   7.556   4.742   2.421  0.7703  1.0450 -0.1295
  117MOL   H18623618   7.481   4.581   2.629 -1.2433  1.1575 -0.5420
  117MOL   H18723619   7.356   4.552   2.493 -1.2451 -1.1990  0.8938
  117MOL   H18823620   7.646   4.551   2.447  0.1966 -1.2915 -0.7304
  117MOL   H18923621   7.518   4.553   2.327  0.5047  1.2648 -1.0673
  117MOL   H19023622   7.594   4.781   2.516  0.8365 -0.9271  0.6819
  117MOL   H19123623   7.462   4.785   2.386  0.5046 -1.1780 -2.2405
  117MOL   O19223624   7.655   4.777   2.323 -0.0653  0.3307  0.2163
  117MOL   C19323625   7.645   4.906   2.275  0.7971 -1.3822  0.1387
  117MOL   C19423626   7.777   4.963   2.230 -0.6255 -0.2608  0.3019
  117MOL   C19523627   0.073   4.871   2.141 -0.7229 -0.0898  0.1088
  117MOL   H19623628   7.609   4.959   2.363  0.4719 -2.0990  0.4440
  117MOL   H19723629   7.563   4.914   2.205 -0.5509  0.3427  1.8781
  117MOL   H19823630   7.755   5.050   2.169  0.9435 -0.2645 -0.3049
  117MOL   H19923631   0.031   4.996   2.325 -2.8808 -1.3464  1.7309
  117MOL   H20023632   0.093   4.775   2.188  2.0998 -0.0337 -0.8837
  117MOL   H20123633   0.167   4.904   2.096 -0.8586  1.5781  1.0093
  117MOL   H20223634   0.027   4.855   2.043 -0.6000  0.5857 -0.0588
  118MOL     O123635   1.762   4.967   6.119 -0.1341  0.3392  0.1804
  118MOL     C223636   1.667   4.863   6.112  0.3828  0.4196 -0.1370
  118MOL     C323637   1.734   4.728   6.068 -0.4169 -0.4326 -0.1781
  118MOL     C423638   1.620   4.634   6.032  0.3793  0.2022  0.1427
  118MOL     H523639   1.593   4.902   6.042 -0.8355  0.9204  1.4004
  118MOL     H623640   1.624   4.860   6.212  1.7456  1.4941  0.4968
  118MOL     H723641   1.807   4.747   5.989 -0.1057  0.1937  0.2593
  118MOL     H823642   1.783   4.677   6.151  0.2155 -0.8756 -0.8198
  118MOL     H923643   1.570   4.683   5.949 -1.6715 -0.7898  0.7677
  118MOL    H1023644   1.555   4.632   6.120  0.2059  1.5820  0.0585
  118MOL    H1123645   1.724   5.040   6.165 -0.0278 -0.0937  0.9591
  118MOL    O1223646   1.673   4.505   6.012 -0.0201 -0.0210 -0.8410
  118MOL    C1323647   1.573   4.400   5.981 -0.6130 -0.5132 -0.2602
  118MOL    C1423648   1.653   4.276   5.949  0.3251 -0.4280 -0.2054
  118MOL    C1523649   1.574   4.168   5.875 -0.5195  0.5033 -0.3154
  118MOL    H1623650   1.520   4.437   5.894 -0.0138 -0.5364 -0.6393
  118MOL    H1723651   1.498   4.377   6.056 -0.1401 -0.1875  0.3162
  118MOL    H1823652   1.740   4.300   5.889  0.6254 -0.4017  0.2429
  118MOL    H1923653   1.688   4.243   6.046 -1.5674 -2.1847 -0.0721
  118MOL    H2023654   1.480   4.155   5.929 -0.5908 -1.4907 -0.9016
  118MOL    H2123655   1.626   4.073   5.882 -1.3591  0.2430  3.7677
  118MOL    O2223656   1.552   4.207   5.739 -0.5631  0.5904  0.1145
  118MOL    C2323657   1.511   4.092   5.659  0.7840 -0.2547 -0.0365
  118MOL    C2423658   1.456   4.153   5.531 -1.0653  0.0336 -0.7413
  118MOL    C2523659   1.446   4.040   5.423  0.2714 -0.3752  0.6106
  118MOL    H2623660   1.432   4.032   5.706  1.1151  0.3468  1.3258
  118MOL    H2723661   1.596   4.032   5.628  0.1650 -1.0269 -0.2781
  118MOL    H2823662   1.356   4.190   5.554 -1.3521  0.0583 -2.0371
  118MOL    H2923663   1.520   4.234   5.497  1.6412 -0.5389  2.7071
  118MOL    H3023664   1.412   3.942   5.456  1.1840 -0.4608  1.3155
  118MOL    H3123665   1.548   4.031   5.386 -0.1307 -2.6582 -0.0031
  118MOL    O3223666   1.370   4.089   5.314 -0.3667 -0.1108 -0.7767
  118MOL    C3323667   1.392   4.025   5.192  0.1259  0.2134  0.0389
  118MOL    C3423668   1.289   4.079   5.079 -0.6398  0.1895 -0.7775
  118MOL    C3523669   1.333   4.038   4.936 -0.1457  0.6018  0.4381
  118MOL    H3623670   1.373   3.919   5.205  2.4247 -0.1241  0.9064
  118MOL    H3723671   1.497   4.034   5.166  0.4156  1.9779  1.6433
  118MOL    H3823672   1.189   4.042   5.101  0.3749 -2.3021 -0.1634
  118MOL    H3923673   1.294   4.187   5.094 -0.6236  0.3089 -1.6268
  118MOL    H4023674   1.265   4.074   4.859 -2.9051 -0.3568  2.3448
  118MOL    H4123675   1.325   3.930   4.931 -3.7016  0.8179  0.4852
  118MOL    O4223676   1.467   4.091   4.908  0.1190 -0.1902 -0.6111
  118MOL    C4323677   1.486   4.236   4.896  1.1880  0.4965  0.0958
  118MOL    C4423678   1.633   4.250   4.884 -0.0319  0.1810 -0.1615
  118MOL    C4523679   1.661   4.399   4.853  0.0856  0.6028  0.6277
  118MOL    H4623680   1.452   4.295   4.981  0.2954  1.3730 -0.8480
  118MOL    H4723681   1.431   4.272   4.809  0.6490  1.0708  0.6658
  118MOL    H4823682   1.688   4.219   4.973 -0.3806 -2.6411 -0.8825
  118MOL    H4923683   1.672   4.177   4.813  1.7357 -0.1652  1.1212
  118MOL    H5023684   1.610   4.463   4.925 -2.8598 -0.0376 -0.8175
  118MOL    H5123685   1.630   4.419   4.751 -2.0494 -0.0677  1.1281
  118MOL    O5223686   1.804   4.426   4.859 -0.9678 -0.7033  0.0479
  118MOL    C5323687   1.848   4.562   4.845 -0.2037  0.8599  0.0079
  118MOL    C5423688   1.818   4.627   4.709  0.2435 -0.5880 -0.0533
  118MOL    C5523689   1.875   4.766   4.715 -0.1223 -0.0944  0.2645
  118MOL    H5623690   1.956   4.561   4.855 -0.2138  2.3012  0.2713
  118MOL    H5723691   1.817   4.623   4.930 -1.6206  1.3094 -0.8031
  118MOL    H5823692   1.870   4.564   4.637 -0.9694 -1.2623 -0.3571
  118MOL    H5923693   1.710   4.629   4.693  0.1078  0.4958  0.9454
  118MOL    H6023694   1.983   4.769   4.726  0.4095 -0.8522 -3.8940
  118MOL    H6123695   1.840   4.828   4.797 -0.0365  1.1101 -0.6029
  118MOL    O6223696   1.844   4.829   4.596  0.1157  0.6518 -0.0637
  118MOL    C6323697   1.875   4.968   4.595  0.2172 -0.5862  0.1431
  118MOL    C6423698   1.848   5.033   4.453  0.1012  0.3013 -0.7234
  118MOL    C6523699   1.880   5.185   4.454  0.7700  0.0719 -0.5707
  118MOL    H6623700   1.979   4.990   4.617  0.3132  0.1833 -1.0314
  118MOL    H6723701   1.809   5.018   4.666  0.2707 -0.0305 -0.2054
  118MOL    H6823702   1.900   4.974   4.377  0.3314 -0.4748  0.0334
  118MOL    H6923703   1.743   5.011   4.430  0.2238 -0.6996 -0.3578
  118MOL    H7023704   1.988   5.194   4.467  0.7349 -1.6373  1.0879
  118MOL    H7123705   1.844   5.231   4.546 -1.0098  0.1580 -1.2884
  118MOL    O7223706   1.825   5.249   4.339 -0.0483  0.1072  0.9064
  118MOL    C7323707   1.857   5.384   4.324 -0.2182 -0.0289  0.1251
  118MOL    C7423708   1.739   5.450   4.255 -0.1581  0.3976 -0.8558
  118MOL    C7523709   1.771   5.601   4.222  0.7824 -0.3053  0.5090
  118MOL    H7623710   1.953   5.390   4.274 -1.0286  0.6516 -1.3726
  118MOL    H7723711   1.854   5.440   4.418  1.6915  0.1486  0.0989
  118MOL    H7823712   1.712   5.389   4.169  0.0870  0.2458 -0.8236
  118MOL    H7923713   1.657   5.450   4.326  0.4260 -1.1556 -0.1730
  118MOL    H8023714   1.792   5.659   4.311  1.4339 -0.3862  0.4051
  118MOL    H8123715   1.681   5.653   4.188 -0.3673 -2.1174  0.6807
  118MOL    O8223716   1.884   5.614   4.135 -0.1272  0.5554 -0.0847
  118MOL    C8323717   1.930   5.752   4.124 -0.0644 -1.2335  1.0241
  118MOL    C8423718   2.059   5.759   4.043 -0.3009 -0.4082  0.1723
  118MOL    C8523719   2.102   5.897   4.019  0.1673 -0.2664 -0.1226
  118MOL    H8623720   1.960   5.775   4.226  1.3920 -0.9277  0.5282
  118MOL    H8723721   1.862   5.829   4.088 -0.3322 -2.0231 -0.2111
  118MOL    H8823722   2.137   5.700   4.091 -0.2468  1.5547  2.5966
  118MOL    H8923723   2.046   5.719   3.943  0.0462  1.0752 -0.4723
  118MOL    H9023724   2.036   5.941   3.945 -0.4782 -1.3942 -0.2200
  118MOL    H9123725   2.204   5.894   3.979  0.6459 -0.8880  1.0968
  118MOL    O9223726   2.123   5.961   4.143  0.0620 -0.0158 -0.3652
  118MOL    C9323727   2.147   6.098   4.130 -0.0611 -0.1491  0.7114
  118MOL    C9423728   2.147   6.187   4.257  0.3070  0.1184 -0.5298
  118MOL    C9523729   2.195   6.327   4.244  0.1904 -0.1462  0.1368
  118MOL    H9623730   2.070   6.140   4.065  0.7973  1.8810  0.9892
  118MOL    H9723731   2.244   6.098   4.080 -0.2725  1.9597  0.2837
  118MOL    H9823732   2.044   6.190   4.292  0.8640 -0.6211  1.2147
  118MOL    H9923733   2.200   6.134   4.337 -1.8336 -0.8917  0.2661
  118MOL   H10023734   2.153   6.386   4.326  1.2565  1.8426 -0.7112
  118MOL   H10123735   2.130   6.362   4.163  0.5238  1.0662  0.3858
  118MOL   O10223736   2.333   6.353   4.224  0.1406 -0.0830 -0.5426
  118MOL   C10323737   2.365   6.490   4.261  0.7381 -0.0522  0.2238
  118MOL   C10423738   2.507   6.521   4.210  0.2509 -0.1601  0.3161
  118MOL   C10523739   2.547   6.654   4.274  0.3748 -0.4222 -0.0699
  118MOL   H10623740   2.353   6.493   4.369  0.4808  1.5079  0.1565
  118MOL   H10723741   2.286   6.552   4.218  2.5813  1.3577 -1.1753
  118MOL   H10823742   2.584   6.446   4.229 -0.6571 -0.8451  1.4005
  118MOL   H10923743   2.504   6.526   4.101  0.0054  2.7006  0.4138
  118MOL   H11023744   2.540   6.635   4.381 -0.0102  2.8814  0.5391
  118MOL   H11123745   2.475   6.735   4.261 -0.2543 -0.7824  1.0736
  118MOL   O11223746   2.682   6.691   4.250 -0.0499 -0.5114  0.0148
  118MOL   C11323747   2.709   6.751   4.123 -0.1058  0.0877  0.3383
  118MOL   C11423748   2.864   6.781   4.129  0.2905  0.6108 -0.0801
  118MOL   C11523749   2.952   6.661   4.133 -0.0201  0.1503  0.3526
  118MOL   H11623750   2.642   6.836   4.112 -0.8805 -0.5192  0.3357
  118MOL   H11723751   2.688   6.684   4.040  1.3792  2.9106 -2.3881
  118MOL   H11823752   2.898   6.827   4.036 -0.7893  0.8341 -0.3684
  118MOL   H11923753   2.895   6.848   4.209  0.6179 -0.2009  0.4837
  118MOL   H12023754   2.944   6.598   4.044  0.8876  0.4024  0.0924
  118MOL   H12123755   2.917   6.599   4.216  0.3927 -1.5205 -0.6897
  118MOL   O12223756   3.086   6.699   4.155  0.1854 -0.1969  0.0603
  118MOL   C12323757   3.179   6.588   4.157  0.5266 -0.2966 -0.4977
  118MOL   C12423758   3.322   6.637   4.133  0.0504  0.1184  0.0962
  118MOL   C12523759   3.390   6.696   4.256 -0.5280 -0.4837 -0.2602
  118MOL   H12623760   3.155   6.518   4.078 -0.0935 -0.7217  0.0678
  118MOL   H12723761   3.176   6.542   4.255  0.6459 -2.1809 -1.3649
  118MOL   H12823762   3.386   6.558   4.092 -0.0523  0.0302  0.1049
  118MOL   H12923763   3.325   6.704   4.047 -0.4429 -1.1688 -0.9607
  118MOL   H13023764   3.389   6.633   4.345 -1.0428  0.9785  0.7837
  118MOL   H13123765   3.329   6.781   4.289 -1.3777 -1.0426 -0.3636
  118MOL   O13223766   3.514   6.748   4.215 -0.0895 -0.6959  0.3286
  118MOL   C13323767   3.598   6.773   4.326  0.6823  0.0157  0.0314
  118MOL   C13423768   3.674   6.646   4.362  0.9699 -0.1677  0.1655
  118MOL   C13523769   3.793   6.668   4.455  0.3005  0.1143 -0.3617
  118MOL   H13623770   3.546   6.807   4.416 -1.2548 -0.5770 -0.8539
  118MOL   H13723771   3.679   6.845   4.313  1.3497 -0.2917  2.1493
  118MOL   H13823772   3.609   6.571   4.409 -0.1490  0.8717  0.3117
  118MOL   H13923773   3.713   6.601   4.271 -0.5229 -1.2440  0.0314
  118MOL   H14023774   3.759   6.738   4.531  2.1416 -1.9076  2.4308
  118MOL   H14123775   3.872   6.704   4.389  0.8353 -1.1609 -0.4260
  118MOL   O14223776   3.827   6.541   4.504  0.2040 -0.5234 -0.6506
  118MOL   C14323777   3.961   6.551   4.550  0.0198  0.0628 -0.1036
  118MOL   C14423778   3.966   6.448   4.662  0.2151 -0.6697  0.3990
  118MOL   C14523779   4.105   6.424   4.711 -0.3390 -0.3415  0.6084
  118MOL   H14623780   3.992   6.651   4.579 -0.3859  0.2795 -0.4018
  118MOL   H14723781   4.029   6.515   4.472  0.8434  1.4455 -0.0449
  118MOL   H14823782   3.910   6.494   4.744  0.2895  0.4304 -0.1498
  118MOL   H14923783   3.919   6.353   4.637 -1.0305 -0.7887  3.0279
  118MOL   H15023784   4.169   6.512   4.718  1.1862 -1.4553  0.8135
  118MOL   H15123785   4.161   6.355   4.649  2.2702  1.9120  0.3573
  118MOL   O15223786   4.083   6.374   4.841 -0.3766 -0.0971  0.4073
  118MOL   C15323787   4.199   6.312   4.893  0.1494 -0.4116 -0.0535
  118MOL   C15423788   4.165   6.249   5.029  1.3663 -0.4210 -0.2919
  118MOL   C15523789   4.293   6.199   5.096 -0.6086 -0.1272 -0.0243
  118MOL   H15623790   4.285   6.377   4.907  0.9538 -1.2667 -0.9766
  118MOL   H15723791   4.225   6.230   4.825 -1.5293 -1.2005  0.2252
  118MOL   H15823792   4.114   6.315   5.099 -1.3837 -3.5729  0.7989
  118MOL   H15923793   4.091   6.169   5.021  0.1929  0.7084 -1.0410
  118MOL   H16023794   4.356   6.281   5.130 -0.0783 -0.7780  0.5982
  118MOL   H16123795   4.357   6.142   5.029  0.1004  0.4280  0.1805
  118MOL   O16223796   4.254   6.125   5.207  0.0245 -0.0859 -0.1072
  118MOL   C16323797   4.342   6.122   5.326 -0.1487 -0.5606  0.0262
  118MOL   C16423798   4.291   6.012   5.426  0.0701  0.1841 -0.4109
  118MOL   C16523799   4.381   5.993   5.551 -0.0933 -0.8136  0.3806
  118MOL   H16623800   4.336   6.222   5.370 -0.7055  0.1506 -1.6328
  118MOL   H16723801   4.447   6.111   5.299 -0.4987 -2.0751 -0.7709
  118MOL   H16823802   4.195   6.036   5.472  0.1325  0.5006 -0.4451
  118MOL   H16923803   4.274   5.917   5.376  2.4930 -0.2041 -0.5546
  118MOL   H17023804   4.337   5.919   5.617 -1.5186 -0.1224  0.2224
  118MOL   H17123805   4.380   6.085   5.610  1.6539 -0.9875  0.7002
  118MOL   O17223806   4.508   5.958   5.516  0.3868 -0.2618  0.4647
  118MOL   C17323807   4.594   5.956   5.633 -0.7181  0.1310  0.2197
  118MOL   C17423808   4.732   5.901   5.587 -0.0077  1.1363  0.9163
  118MOL   C17523809   4.835   5.910   5.695 -0.4561  0.5410  0.0212
  118MOL   H17623810   4.549   5.886   5.702  2.8098 -0.2536  2.2688
  118MOL   H17723811   4.600   6.054   5.681 -2.1161  0.0961  0.4884
  118MOL   H17823812   4.727   5.795   5.563  0.5651  0.3930  3.9000
  118MOL   H17923813   4.757   5.950   5.493  3.1378 -1.4239  0.3620
  118MOL   H18023814   4.806   5.858   5.787  2.2414 -0.1879  0.5130
  118MOL   H18123815   4.857   6.006   5.740 -1.5457  0.3341  1.0275
  118MOL   O18223816   4.946   5.844   5.636 -0.7027 -0.0076 -0.4554
  118MOL   C18323817   5.064   5.930   5.639  0.1712  0.4783  0.3156
  118MOL   C18423818   5.175   5.875   5.555  0.5708  0.3522 -0.7550
  118MOL   C18523819   5.316   5.941   5.583  0.1680  0.2021  0.2454
  118MOL   H18623820   5.097   5.949   5.741  1.6086 -1.0968  0.1580
  118MOL   H18723821   5.029   6.025   5.598 -0.0626  0.7552  1.1349
  118MOL   H18823822   5.188   5.767   5.566  0.0384  0.5175  1.7883
  118MOL   H18923823   5.157   5.887   5.449  1.5309 -0.0797 -0.9778
  118MOL   H19023824   5.287   6.043   5.610 -5.0627 -0.6855 -1.4469
  118MOL   H19123825   5.381   5.934   5.496  2.0356  1.8212  1.4604
  118MOL   O19223826   5.368   5.886   5.696  0.5974  0.7152  0.2035
  118MOL   C19323827   5.504   5.905   5.720  0.0967 -0.6150 -0.4151
  118MOL   C19423828   5.522   6.048   5.785 -0.8762 -0.6885 -0.2131
  118MOL   C19523829   5.440   6.078   5.917 -0.9502 -0.3853  0.3793
  118MOL   H19623830   5.574   5.888   5.638 -0.3466  1.4434 -1.2494
  118MOL   H19723831   5.524   5.830   5.797 -0.4985  1.4272  1.8152
  118MOL   H19823832   5.628   6.050   5.813 -0.7852 -0.1302 -0.6000
  118MOL   H19923833   5.512   6.126   5.709  0.9602 -1.3723 -1.2139
  118MOL   H20023834   5.467   6.178   5.951  2.7836 -0.7242 -1.4026
  118MOL   H20123835   5.453   6.005   5.997 -2.3537 -1.9653 -0.7909
  118MOL   H20223836   5.332   6.073   5.899 -0.7574  0.9906 -1.2296
  119MOL     O123837   0.399   5.374   3.073 -0.4884  0.4041  0.0053
  119MOL     C223838   0.339   5.393   3.195  0.5748  0.1023  0.5535
  119MOL     C323839   0.185   5.391   3.174  0.2501 -0.2051 -0.0334
  119MOL     C423840   0.107   5.439   3.293 -0.1594 -0.4300 -0.7803
  119MOL     H523841   0.366   5.485   3.247 -0.3551  0.7218 -0.0363
  119MOL     H623842   0.365   5.315   3.266 -1.3171 -1.6726 -0.6733
  119MOL     H723843   0.154   5.447   3.086  2.0939  1.3224  0.2457
  119MOL     H823844   0.154   5.292   3.143 -1.6742  0.6456 -0.8698
  119MOL     H923845   0.158   5.529   3.326 -0.0400 -0.0601 -1.9290
  119MOL    H1023846   0.117   5.366   3.373  3.4737 -0.1087 -0.8711
  119MOL    H1123847   0.489   5.348   3.081 -0.3323 -0.0040 -2.5546
  119MOL    O1223848   7.765   5.474   3.241  0.1387 -0.0623  0.1988
  119MOL    C1323849   7.666   5.517   3.328 -0.1676  0.5329  0.2764
  119MOL    C1423850   7.537   5.438   3.272 -0.3667  0.1129  0.5369
  119MOL    C1523851   7.412   5.492   3.335  0.5912  0.6643 -0.3874
  119MOL    H1623852   7.650   5.625   3.322 -0.6218  0.3730 -1.4570
  119MOL    H1723853   7.702   5.509   3.431 -1.1348  0.9754  0.6547
  119MOL    H1823854   7.528   5.447   3.164  0.9866  0.9946  0.4868
  119MOL    H1923855   7.546   5.330   3.289 -0.9419 -0.1563 -0.7795
  119MOL    H2023856   7.413   5.600   3.348 -0.8523  0.8024 -1.3830
  119MOL    H2123857   7.407   5.454   3.437  0.0971  0.3054 -0.5423
  119MOL    O2223858   7.307   5.438   3.257  0.4451 -0.5186  0.0357
  119MOL    C2323859   7.232   5.543   3.195  0.3942 -0.3232  0.5083
  119MOL    C2423860   7.107   5.483   3.134 -0.1404  0.2233  0.2812
  119MOL    C2523861   7.002   5.431   3.234 -0.3686  0.0777 -0.6570
  119MOL    H2623862   7.276   5.610   3.121 -1.4231  0.1694 -0.1656
  119MOL    H2723863   7.200   5.609   3.276 -0.0815  1.1252 -0.8317
  119MOL    H2823864   7.061   5.551   3.062  0.4285 -0.0781 -0.3775
  119MOL    H2923865   7.141   5.402   3.070 -0.5771 -0.9458  1.4959
  119MOL    H3023866   6.966   5.514   3.294  1.4751  1.4845 -1.4410
  119MOL    H3123867   7.054   5.357   3.296  2.8622  3.1529  0.4485
  119MOL    O3223868   6.896   5.370   3.156 -0.6667 -0.4239 -0.0326
  119MOL    C3323869   6.778   5.338   3.216  0.4067 -0.2996  0.0672
  119MOL    C3423870   6.675   5.300   3.110 -0.1817 -0.2999  0.2203
  119MOL    C3523871   6.648   5.414   3.013 -0.1867  0.2495 -0.5606
  119MOL    H3623872   6.752   5.431   3.267 -2.2358  0.1482 -1.9643
  119MOL    H3723873   6.793   5.251   3.280  0.8574 -0.3805 -0.1485
  119MOL    H3823874   6.699   5.211   3.050  1.1025  1.0479 -1.3335
  119MOL    H3923875   6.581   5.270   3.156 -1.6868  1.6566 -1.4902
  119MOL    H4023876   6.588   5.383   2.927 -1.8403  2.3573 -0.2390
  119MOL    H4123877   6.744   5.451   2.979 -0.1985  1.0411  0.2500
  119MOL    O4223878   6.577   5.513   3.087 -0.3738  0.0580  0.6209
  119MOL    C4323879   6.602   5.639   3.029  0.0983 -0.3881 -0.3798
  119MOL    C4423880   6.727   5.700   3.095 -0.9122 -0.6579 -0.1605
  119MOL    C4523881   6.765   5.844   3.037  0.2401  0.0492 -0.8280
  119MOL    H4623882   6.512   5.699   3.040  0.8367  0.0553  4.3224
  119MOL    H4723883   6.624   5.630   2.923  3.0971 -0.9635  0.2150
  119MOL    H4823884   6.701   5.697   3.201  0.5962 -0.6668  0.2180
  119MOL    H4923885   6.810   5.635   3.070  0.6678  0.6020  1.7177
  119MOL    H5023886   6.692   5.923   3.052 -0.1929 -0.5621  0.3852
  119MOL    H5123887   6.768   5.839   2.928  0.2142 -0.6271 -0.8024
  119MOL    O5223888   6.892   5.875   3.095 -0.1417 -0.0162  0.5424
  119MOL    C5323889   6.919   6.006   3.092  0.1687 -0.2806  0.2186
  119MOL    C5423890   7.067   6.034   3.127  0.4558 -0.3647 -0.1313
  119MOL    C5523891   7.168   5.918   3.092  0.8336 -0.5324 -0.8746
  119MOL    H5623892   6.852   6.076   3.142 -0.2187 -0.8436  0.4972
  119MOL    H5723893   6.910   6.040   2.989 -0.4641 -1.1179 -0.0061
  119MOL    H5823894   7.093   6.123   3.069  0.5460  0.4717  1.1605
  119MOL    H5923895   7.079   6.069   3.230  0.3006  1.7074 -0.7837
  119MOL    H6023896   7.134   5.879   2.996 -0.2661 -4.4816  1.0135
  119MOL    H6123897   7.162   5.827   3.152 -1.4128  0.5932  0.6542
  119MOL    O6223898   7.308   5.959   3.104 -0.1960  0.4094  0.6192
  119MOL    C6323899   7.403   5.857   3.086  0.0448  0.2208  0.0232
  119MOL    C6423900   7.534   5.930   3.086 -0.0207 -0.7303  0.1504
  119MOL    C6523901   7.649   5.828   3.085  0.5820  0.2736 -0.5396
  119MOL    H6623902   7.389   5.817   2.985 -0.9632 -0.0988  0.2825
  119MOL    H6723903   7.413   5.773   3.155  0.1055 -1.1058 -1.5636
  119MOL    H6823904   7.550   5.986   2.994 -0.4261  0.1193  0.5834
  119MOL    H6923905   7.549   5.998   3.170 -0.2241 -1.3729  0.7127
  119MOL    H7023906   7.634   5.756   3.004  0.2429  0.2874 -0.4874
  119MOL    H7123907   7.647   5.781   3.183 -1.3389 -0.3181 -0.8480
  119MOL    O7223908   7.778   5.887   3.063  0.2044 -0.2080 -0.4335
  119MOL    C7323909   0.098   5.794   3.038 -0.1030 -0.0768  0.0488
  119MOL    C7423910   0.235   5.854   3.064 -0.1551  0.3717 -0.1130
  119MOL    C7523911   0.276   5.956   2.960 -0.1339 -0.6872  0.3580
  119MOL    H7623912   0.093   5.762   2.934 -0.1536  2.6659 -0.8530
  119MOL    H7723913   0.094   5.697   3.088 -0.7827 -0.8306 -1.4475
  119MOL    H7823914   0.240   5.896   3.165  0.1562  0.6064 -0.2279
  119MOL    H7923915   0.292   5.763   3.047  0.5878  1.0072 -1.0289
  119MOL    H8023916   0.220   6.050   2.965 -0.1028 -0.5003 -1.9745
  119MOL    H8123917   0.260   5.921   2.858 -3.5180 -1.0016  0.9295
  119MOL    O8223918   0.407   6.007   2.984 -0.2786 -0.1753 -0.2373
  119MOL    C8323919   0.455   6.074   2.862 -0.2656 -0.4712  0.1522
  119MOL    C8423920   0.602   6.090   2.857 -0.1966 -0.4213 -0.1813
  119MOL    C8523921   0.650   6.138   2.719 -0.1540  0.1980  0.1850
  119MOL    H8623922   0.412   6.174   2.856  3.0731  1.0686  0.9137
  119MOL    H8723923   0.427   6.013   2.776  2.1837 -1.6322  0.1196
  119MOL    H8823924   0.625   6.164   2.934  2.7945 -0.7655 -0.6940
  119MOL    H8923925   0.647   5.996   2.888  1.5756  1.1979  2.3161
  119MOL    H9023926   0.608   6.235   2.691 -0.1839  0.1950  0.2219
  119MOL    H9123927   0.623   6.059   2.649  2.0947 -1.8814  1.5789
  119MOL    O9223928   0.792   6.155   2.704  0.3358 -0.4205  0.1392
  119MOL    C9323929   0.835   6.252   2.616  0.4919  0.2199  0.8237
  119MOL    C9423930   0.878   6.394   2.669 -0.2759  0.3834 -0.4591
  119MOL    C9523931   0.985   6.382   2.776  0.1979 -1.3699  0.4523
  119MOL    H9623932   0.762   6.261   2.536  0.7541 -1.2280  0.4087
  119MOL    H9723933   0.920   6.205   2.568 -0.3585  0.3869 -0.8696
  119MOL    H9823934   0.908   6.458   2.585  0.0387 -1.5284 -1.8270
  119MOL    H9923935   0.806   6.444   2.733  0.2962  0.9905 -0.2828
  119MOL   H10023936   1.058   6.309   2.741  0.5546 -0.7690 -0.0526
  119MOL   H10123937   0.939   6.337   2.864 -1.4158 -0.2857  0.1914
  119MOL   O10223938   1.044   6.511   2.796  0.2335 -0.0411  0.0255
  119MOL   C10323939   1.068   6.533   2.938  0.4175  0.1999 -0.7573
  119MOL   C10423940   1.100   6.684   2.962  0.7267 -0.3380  0.0528
  119MOL   C10523941   1.090   6.720   3.107 -0.6354  0.4690 -0.5489
  119MOL   H10623942   1.142   6.464   2.979 -0.3747  0.1875  0.6632
  119MOL   H10723943   0.972   6.508   2.983  1.3220 -0.4018  0.8498
  119MOL   H10823944   1.191   6.707   2.906  1.7706  1.2486  2.3103
  119MOL   H10923945   1.025   6.744   2.911  2.5146  2.1325  0.2140
  119MOL   H11023946   0.990   6.691   3.142 -0.8966 -0.8240 -2.2894
  119MOL   H11123947   1.094   6.827   3.124 -0.5402  0.5008 -0.7707
  119MOL   O11223948   1.193   6.661   3.185  0.1216  0.3792  0.3241
  119MOL   C11323949   1.147   6.583   3.293  0.3085 -0.0225  0.1542
  119MOL   C11423950   1.263   6.536   3.378 -0.3033  0.2501 -0.1473
  119MOL   C11523951   1.210   6.442   3.489 -0.8224 -0.4227 -0.1503
  119MOL   H11623952   1.095   6.492   3.263 -0.4679  0.1372  1.0087
  119MOL   H11723953   1.075   6.633   3.357  1.7568  0.2558  1.5948
  119MOL   H11823954   1.334   6.480   3.318 -0.0518  0.4528 -0.0436
  119MOL   H11923955   1.307   6.624   3.426  1.6958 -0.4534 -0.6223
  119MOL   H12023956   1.294   6.441   3.558 -0.9745  1.3255  0.0961
  119MOL   H12123957   1.195   6.343   3.447  0.6606 -1.4883  1.7702
  119MOL   O12223958   1.096   6.506   3.551 -0.0268  0.1895  0.3612
  119MOL   C12323959   1.037   6.436   3.656 -0.3199  0.6116  0.6238
  119MOL   C12423960   0.925   6.511   3.718 -0.0296 -0.2742 -0.5430
  119MOL   C12523961   0.854   6.435   3.825  0.1266 -0.7598  0.3709
  119MOL   H12623962   1.112   6.416   3.733 -0.5815 -0.0618  0.7067
  119MOL   H12723963   0.985   6.347   3.620  0.9153  0.5840 -1.1645
  119MOL   H12823964   0.980   6.593   3.765 -2.0762  0.9100 -0.1465
  119MOL   H12923965   0.853   6.552   3.648  0.0114  0.1525 -0.3373
  119MOL   H13023966   0.796   6.493   3.897  0.4940 -0.7328  0.6506
  119MOL   H13123967   0.931   6.393   3.890 -1.4922  0.4097  3.1454
  119MOL   O13223968   0.786   6.327   3.769  0.5033 -0.1779 -0.3787
  119MOL   C13323969   0.810   6.207   3.834  0.0982 -0.2022  0.5324
  119MOL   C13423970   0.729   6.095   3.764  0.1503 -0.4063  0.4242
  119MOL   C13523971   0.784   6.067   3.626 -0.0096  0.6436 -0.5595
  119MOL   H13623972   0.781   6.217   3.938  0.7617 -2.2220  0.9326
  119MOL   H13723973   0.918   6.190   3.836 -0.1283 -1.7148  0.5647
  119MOL   H13823974   0.720   6.005   3.826 -0.2266 -1.3219 -0.9533
  119MOL   H13923975   0.627   6.133   3.764  1.0707  2.1705 -0.5302
  119MOL   H14023976   0.793   6.151   3.558 -1.5028  0.8312 -0.5399
  119MOL   H14123977   0.707   6.006   3.580 -0.2253  1.0710 -0.7562
  119MOL   O14223978   0.904   5.996   3.651  0.0010  0.8079  0.0321
  119MOL   C14323979   0.990   5.989   3.542 -0.0451 -0.4909  0.0403
  119MOL   C14423980   1.116   5.921   3.603  0.2558  0.2674  0.3801
  119MOL   C14523981   1.229   5.892   3.503 -0.8621  0.5631  0.3106
  119MOL   H14623982   1.006   6.090   3.505  1.3126 -0.8576 -0.3973
  119MOL   H14723983   0.948   5.927   3.463  0.1200  1.0237 -1.2587
  119MOL   H14823984   1.164   5.989   3.673  1.7786  1.5218 -1.8185
  119MOL   H14923985   1.091   5.828   3.654 -1.1157  0.6041  0.3510
  119MOL   H15023986   1.192   5.833   3.419  2.0788  0.9727 -1.3429
  119MOL   H15123987   1.310   5.833   3.547 -1.4372 -0.8611 -0.4878
  119MOL   O15223988   1.283   6.015   3.450 -0.4727  0.5771 -0.0026
  119MOL   C15323989   1.393   6.064   3.529 -1.0748  0.3003 -0.0811
  119MOL   C15423990   1.522   5.976   3.514  0.7016  0.0356 -0.9607
  119MOL   C15523991   1.649   6.050   3.560  1.1842 -0.1182  0.0447
  119MOL   H15623992   1.363   6.086   3.631 -2.2123  1.9176 -0.7360
  119MOL   H15723993   1.414   6.161   3.484 -0.0173 -0.0786 -0.4262
  119MOL   H15823994   1.514   5.895   3.586 -1.4966  1.2776  0.2549
  119MOL   H15923995   1.549   5.937   3.416  0.3245 -1.3377 -0.5275
  119MOL   H16023996   1.637   6.093   3.659  0.5200  1.0389 -0.5243
  119MOL   H16123997   1.664   6.138   3.497  1.8323 -0.8144 -0.7802
  119MOL   O16223998   1.756   5.966   3.542 -0.0104  0.2451  0.7833
  119MOL   C16323999   1.874   6.007   3.610  0.5801  0.0981 -0.2727
  119MOL   C16424000   1.985   5.901   3.606  0.1963  0.5740  0.1684
  119MOL   C16524001   2.046   5.871   3.460  0.0206 -0.1595 -0.4325
  119MOL   H16624002   1.848   6.017   3.715  1.7194  1.6057 -0.1113
  119MOL   H16724003   1.912   6.101   3.570  1.1573 -0.0449 -0.0543
  119MOL   H16824004   2.069   5.936   3.667  1.2019 -0.6154 -0.5087
  119MOL   H16924005   1.953   5.804   3.646 -0.3726  0.8106  0.2917
  119MOL   H17024006   2.097   5.959   3.422 -0.5735  1.0687  1.5514
  119MOL   H17124007   1.975   5.826   3.389  2.2653 -0.1457 -2.7598
  119MOL   O17224008   2.157   5.779   3.478  0.0412  0.3458  0.2093
  119MOL   C17324009   2.206   5.721   3.363 -0.1775  0.3758  0.1258
  119MOL   C17424010   2.162   5.575   3.367  0.0925  0.1506 -0.0146
  119MOL   C17524011   2.163   5.495   3.500 -1.1590 -0.2229  0.0068
  119MOL   H17624012   2.314   5.719   3.380  0.1873 -0.1292 -2.0357
  119MOL   H17724013   2.177   5.771   3.271  1.2322 -0.6627 -0.9253
  119MOL   H17824014   2.060   5.576   3.331  0.4624  1.9757 -1.0912
  119MOL   H17924015   2.227   5.522   3.297 -1.5948 -2.2499  0.1997
  119MOL   H18024016   2.070   5.515   3.552  0.1685  0.4963  2.2017
  119MOL   H18124017   2.248   5.525   3.562 -0.4771 -0.1299 -0.9657
  119MOL   O18224018   2.170   5.364   3.470 -0.0266  0.4803  0.0923
  119MOL   C18324019   2.183   5.280   3.587  0.3305  0.0193  0.0103
  119MOL   C18424020   2.233   5.133   3.542  0.5015  0.0589 -0.0305
  119MOL   C18524021   2.252   5.031   3.657 -1.0924  0.0553  0.3447
  119MOL   H18624022   2.088   5.274   3.639  0.6859  1.0671  0.7993
  119MOL   H18724023   2.265   5.310   3.653  1.1480 -1.1489 -0.4548
  119MOL   H18824024   2.174   5.090   3.461 -2.0307  2.5539  0.3864
  119MOL   H18924025   2.331   5.164   3.505  1.1262 -0.2774  1.3232
  119MOL   H19024026   2.152   5.017   3.697 -2.3171 -0.0208 -2.5797
  119MOL   H19124027   2.319   5.064   3.737  0.9350 -0.3691 -1.1270
  119MOL   O19224028   2.310   4.907   3.618 -0.1852 -0.2675  0.3224
  119MOL   C19324029   2.215   4.816   3.569  0.8606  0.3870  0.3952
  119MOL   C19424030   2.283   4.697   3.497  0.3544 -0.4540  0.2534
  119MOL   C19524031   2.184   4.583   3.468 -0.0825 -0.0592 -0.0790
  119MOL   H19624032   2.144   4.864   3.501 -0.8026 -0.6113  1.3795
  119MOL   H19724033   2.153   4.777   3.650 -0.8638  2.4535  0.1157
  119MOL   H19824034   2.322   4.741   3.405 -2.0850  0.3081 -0.4640
  119MOL   H19924035   2.374   4.659   3.543  1.9631  1.2104 -1.4631
  119MOL   H20024036   2.122   4.626   3.389  1.1309 -0.0067 -1.0266
  119MOL   H20124037   2.122   4.543   3.547  0.9981  0.8934  1.2758
  119MOL   H20224038   2.228   4.504   3.406 -0.9090  0.1235 -0.9152
  120MOL     O124039   1.527   0.270   5.185 -0.4461 -1.0413 -0.4055
  120MOL     C224040   1.447   0.380   5.222  0.0735 -0.0259  0.2535
  120MOL     C324041   1.505   0.447   5.344 -0.0481  0.2325 -0.4264
  120MOL     C424042   1.420   0.571   5.379  0.1659 -0.0190  1.0309
  120MOL     H524043   1.349   0.335   5.237 -0.3493  0.6141 -0.5642
  120MOL     H624044   1.437   0.452   5.141 -0.8317  0.0908  0.4626
  120MOL     H724045   1.517   0.374   5.424 -1.1637  1.7579  1.1854
  120MOL     H824046   1.608   0.479   5.328  0.7057 -0.6821  2.4105
  120MOL     H924047   1.455   0.613   5.474  1.9890 -1.2078  0.9018
  120MOL    H1024048   1.312   0.554   5.384 -0.2924  2.7687  1.2462
  120MOL    H1124049   1.581   0.308   5.117  1.5369 -2.5582  0.2738
  120MOL    O1224050   1.456   0.663   5.277  0.2108 -0.2198  0.3483
  120MOL    C1324051   1.419   0.798   5.307  0.4531 -0.5721 -0.0102
  120MOL    C1424052   1.460   0.887   5.195 -0.1935 -0.1843  0.6754
  120MOL    C1524053   1.458   1.039   5.242 -0.9316 -0.2303 -0.8879
  120MOL    H1624054   1.461   0.828   5.403  1.1552 -3.2147  0.5524
  120MOL    H1724055   1.312   0.795   5.325  0.0602 -1.0373 -2.2851
  120MOL    H1824056   1.548   0.854   5.140 -1.2674 -0.5032 -0.8659
  120MOL    H1924057   1.381   0.873   5.122 -0.6163 -0.2205  1.1387
  120MOL    H2024058   1.502   1.098   5.161 -2.4869  1.3569 -0.6249
  120MOL    H2124059   1.519   1.048   5.332 -0.7942 -0.7416 -0.9304
  120MOL    O2224060   1.321   1.070   5.252 -0.0054  0.2192  0.5830
  120MOL    C2324061   1.249   1.122   5.136 -0.3857 -0.2483  0.2404
  120MOL    C2424062   1.105   1.139   5.176  1.1128  0.7368  0.0225
  120MOL    C2524063   1.086   1.254   5.269  0.2464 -0.0964 -0.2971
  120MOL    H2624064   1.250   1.052   5.052 -3.0542 -0.3123  0.2023
  120MOL    H2724065   1.293   1.213   5.095 -0.3164 -1.4990 -2.5997
  120MOL    H2824066   1.037   1.151   5.092 -0.3776 -3.4792  0.4697
  120MOL    H2924067   1.088   1.043   5.225 -2.1550  0.4739 -1.4902
  120MOL    H3024068   1.110   1.338   5.204  1.0817  1.3942  1.8901
  120MOL    H3124069   1.153   1.256   5.355 -0.8908  0.0786  0.6083
  120MOL    O3224070   0.953   1.249   5.319 -0.3410  0.1360  0.3874
  120MOL    C3324071   0.924   1.362   5.393  0.2863 -0.1314  0.1504
  120MOL    C3424072   0.794   1.361   5.468 -0.6153 -0.0286  0.2913
  120MOL    C3524073   0.678   1.390   5.374 -0.6334 -0.5345 -0.4206
  120MOL    H3624074   0.926   1.448   5.326 -2.1923  1.0039  1.4621
  120MOL    H3724075   0.999   1.388   5.468  0.3934 -0.5360  0.1816
  120MOL    H3824076   0.788   1.264   5.517 -0.7556 -0.2389 -0.1356
  120MOL    H3924077   0.778   1.431   5.549  0.8729 -0.5421  1.0392
  120MOL    H4024078   0.692   1.327   5.285  2.0952 -3.3859  1.9148
  120MOL    H4124079   0.674   1.488   5.328  2.2608 -0.5966 -0.9156
  120MOL    O4224080   0.550   1.370   5.427 -0.5588 -0.0364 -0.3021
  120MOL    C4324081   0.512   1.451   5.537  0.3234 -0.3158  0.1811
  120MOL    C4424082   0.363   1.479   5.519  0.1182  0.4595  0.1840
  120MOL    C4524083   0.297   1.559   5.638 -0.4082  0.0583 -0.6255
  120MOL    H4624084   0.551   1.552   5.539 -0.7108  0.0883  0.2768
  120MOL    H4724085   0.545   1.408   5.631 -0.5305 -0.8055  0.2602
  120MOL    H4824086   0.350   1.538   5.429  0.4151 -0.4542 -0.4714
  120MOL    H4924087   0.303   1.388   5.513  2.2303 -1.1032  1.4939
  120MOL    H5024088   0.200   1.593   5.601 -1.3625 -0.0549  1.6407
  120MOL    H5124089   0.348   1.652   5.664  0.3946 -0.8534  1.1910
  120MOL    O5224090   0.286   1.472   5.752 -0.1037 -0.0897 -0.6144
  120MOL    C5324091   0.248   1.538   5.868  0.0158 -0.3224 -0.1259
  120MOL    C5424092   0.255   1.445   5.987 -0.2192  0.0204  1.5820
  120MOL    C5524093   0.382   1.359   6.005  0.2284  0.8233 -1.0749
  120MOL    H5624094   0.147   1.579   5.863  0.4395  0.8369  0.4594
  120MOL    H5724095   0.310   1.627   5.886  0.0180 -0.6758  1.7514
  120MOL    H5824096   0.243   1.519   6.065 -0.6934  1.7920 -0.1349
  120MOL    H5924097   0.163   1.386   5.989  1.9297 -3.4516  3.2739
  120MOL    H6024098   0.472   1.419   6.021 -0.3256  1.1594  0.8979
  120MOL    H6124099   0.398   1.293   5.921  2.2231  1.8672 -1.5663
  120MOL    O6224100   0.361   1.305   6.127  0.1294  0.6621  0.5865
  120MOL    C6324101   0.422   1.187   6.146 -0.0452  0.7015 -0.0484
  120MOL    C6424102   0.383   1.118   6.274  0.4261  0.3666  0.0943
  120MOL    C6524103   0.472   0.998   6.285  0.1447 -0.0447  0.1620
  120MOL    H6624104   0.530   1.202   6.154 -0.1144  0.7677  0.7393
  120MOL    H6724105   0.387   1.117   6.071  1.1703 -0.6928  0.6543
  120MOL    H6824106   0.396   1.186   6.358 -0.5002 -0.0706  0.6044
  120MOL    H6924107   0.280   1.081   6.278  1.0073 -1.5022 -1.4601
  120MOL    H7024108   0.580   1.014   6.287  0.5327 -2.5438  0.5383
  120MOL    H7124109   0.455   0.929   6.203  1.0375 -0.0959  0.0245
  120MOL    O7224110   0.446   0.923   6.409  0.3902 -0.5219  0.3833
  120MOL    C7324111   0.495   0.789   6.407 -0.3393  0.0751  0.0280
  120MOL    C7424112   0.455   0.715   6.537  0.6178  0.4346 -0.2383
  120MOL    C7524113   0.528   0.579   6.553  0.0291 -0.3692 -0.3893
  120MOL    H7624114   0.604   0.790   6.405 -0.2652 -0.8930  2.2829
  120MOL    H7724115   0.465   0.733   6.319  2.0286  0.0908 -0.8298
  120MOL    H7824116   0.488   0.761   6.630  0.9005 -0.7562  0.2692
  120MOL    H7924117   0.349   0.706   6.557  0.4012  1.8123 -0.7238
  120MOL    H8024118   0.506   0.528   6.459  0.2842  3.4176 -2.5878
  120MOL    H8124119   0.477   0.507   6.617  0.2406 -0.8987 -0.8128
  120MOL    O8224120   0.663   0.596   6.581 -0.1154 -0.1443  0.2636
  120MOL    C8324121   0.727   0.472   6.610  0.1156 -0.3784  0.2375
  120MOL    C8424122   0.871   0.482   6.650 -0.1110 -0.6571  0.1113
  120MOL    C8524123   0.883   0.518   6.797 -0.0652  0.3374  0.2363
  120MOL    H8624124   0.724   0.406   6.522 -1.0296  0.5529 -0.4326
  120MOL    H8724125   0.674   0.418   6.688  2.6567 -1.2653  1.4063
  120MOL    H8824126   0.931   0.393   6.630 -0.0579 -0.2226 -1.7511
  120MOL    H8924127   0.922   0.558   6.591 -0.0644 -1.8267 -1.3985
  120MOL    H9024128   0.818   0.454   6.858  1.1421  1.0286  2.2756
  120MOL    H9124129   0.858   0.621   6.824  0.3904  0.4247  0.3274
  120MOL    O9224130   1.022   0.490   6.832  0.1442  0.4656 -0.0995
  120MOL    C9324131   1.057   0.484   6.969 -0.3826 -0.3425  0.0031
  120MOL    C9424132   1.191   0.404   6.991  0.2340  0.2919 -0.4186
  120MOL    C9524133   1.253   0.432   7.122 -0.0176 -0.3747  0.4942
  120MOL    H9624134   0.978   0.437   7.028 -1.1375  1.9469  0.8468
  120MOL    H9724135   1.060   0.587   7.004  0.5242 -0.5187  0.4543
  120MOL    H9824136   1.163   0.299   6.976 -0.7952  0.7078 -1.5497
  120MOL    H9924137   1.267   0.423   6.915 -1.0340  1.4957 -1.4093
  120MOL   H10024138   1.273   0.539   7.126  1.5557 -0.6995  1.6712
  120MOL   H10124139   1.340   0.367   7.133 -1.7653 -2.8577 -0.0406
  120MOL   O10224140   1.173   0.406   7.233  0.5506 -0.1214  0.4866
  120MOL   C10324141   1.214   0.469   7.354 -0.1070  0.6566  0.7560
  120MOL   C10424142   1.161   0.383   7.480 -1.0103 -0.1356 -0.0132
  120MOL   C10524143   1.233   0.254   7.499 -0.6241  0.0844  0.7563
  120MOL   H10624144   1.173   0.570   7.351  2.1027  1.5503 -1.3525
  120MOL   H10724145   1.322   0.481   7.361  0.0575 -1.1695  1.5015
  120MOL   H10824146   1.153   0.437   7.575  2.3921 -1.4228  1.0935
  120MOL   H10924147   1.062   0.345   7.457  0.5114 -3.0339 -1.9589
  120MOL   H11024148   1.332   0.276   7.539  0.4441  0.3933 -1.9374
  120MOL   H11124149   1.245   0.203   7.403  0.1044 -2.8278  2.3444
  120MOL   O11224150   1.153   0.167   7.578 -0.0925  0.0480 -0.7369
  120MOL   C11324151   1.216   0.044   7.600 -0.2358  0.0906  0.1030
  120MOL   C11424152   1.122   7.720   7.635  0.3235  0.1486 -0.1041
  120MOL   C11524153   1.189   7.582   7.614 -0.0528  0.2572  0.4916
  120MOL   H11624154   1.290   0.042   7.681  0.3109 -1.2984 -0.4003
  120MOL   H11724155   1.271   0.014   7.511  2.0625  3.0906  0.4088
  120MOL   H11824156   1.101   7.734   7.741  1.7811  0.2154  0.1985
  120MOL   H11924157   1.025   7.731   7.588 -1.6152 -1.0871  3.4172
  120MOL   H12024158   1.286   7.585   7.664 -0.1192 -0.3216  0.6622
  120MOL   H12124159   1.193   7.566   7.506  3.4427  0.0894  0.6108
  120MOL   O12224160   1.092   7.490   7.668  0.0890 -0.1134  0.0208
  120MOL   C12324161   1.130   7.350   7.656  0.3911 -0.7347  0.2026
  120MOL   C12424162   1.112   7.293   0.007  0.5730 -0.0739 -0.3941
  120MOL   C12524163   1.135   7.144   0.022 -0.8824 -0.8660  0.8445
  120MOL   H12624164   1.225   7.326   7.610  0.7240 -0.5977  0.8148
  120MOL   H12724165   1.058   7.307   7.587 -0.5759  0.7119  0.2764
  120MOL   H12824166   1.194   7.332   0.069  0.5301 -0.8636  0.1699
  120MOL   H12924167   1.021   7.319   0.062  2.2148 -1.6186  3.2472
  120MOL   H13024168   1.229   7.102   7.773 -0.5704 -0.3241  1.0206
  120MOL   H13124169   1.062   7.083   7.756 -1.3573  0.4607 -0.0216
  120MOL   O13224170   1.125   7.118   0.162  0.2007  0.3202  0.3723
  120MOL   C13324171   1.107   6.977   0.173 -0.0906 -0.8722  0.4748
  120MOL   C13424172   1.109   6.928   0.318  0.3145 -0.3465  0.0764
  120MOL   C13524173   1.078   6.782   0.334 -0.0049  0.2849 -0.1094
  120MOL   H13624174   1.178   6.919   0.113 -0.5648 -1.8757  0.8602
  120MOL   H13724175   1.010   6.949   0.132 -0.4825 -1.0643  1.5272
  120MOL   H13824176   1.200   6.953   0.372 -0.6321  2.8872  0.3016
  120MOL   H13924177   1.041   6.990   0.377  0.9466  0.8567 -0.4315
  120MOL   H14024178   1.173   6.729   0.326 -0.8309 -0.8568 -3.2172
  120MOL   H14124179   1.023   6.739   0.249  0.3124  1.9688 -1.1924
  120MOL   O14224180   1.028   6.765   0.469  0.4659  0.3664  0.0438
  120MOL   C14324181   1.018   6.625   0.498 -0.6301  0.2074  0.2305
  120MOL   C14424182   0.974   6.596   0.644 -0.4211  0.6925  0.3016
  120MOL   C14524183   1.068   6.625   0.760 -0.1253 -0.3083  0.1815
  120MOL   H14624184   1.112   6.572   0.483 -0.7267 -0.0318  0.4624
  120MOL   H14724185   0.953   6.572   0.429  0.3591  1.9109 -2.0788
  120MOL   H14824186   0.884   6.657   0.653 -1.5846 -1.0590  0.7470
  120MOL   H14924187   0.938   6.493   0.647 -1.0338  0.8479 -1.1223
  120MOL   H15024188   1.098   6.730   0.757 -0.7955 -0.1273 -0.1319
  120MOL   H15124189   1.152   6.557   0.743  0.0632 -0.2761  0.9491
  120MOL   O15224190   0.994   6.585   0.878  0.0277  0.0513  0.2236
  120MOL   C15324191   1.083   6.563   0.993  0.4923  0.4997 -0.2714
  120MOL   C15424192   1.010   6.488   1.111 -0.2306 -0.2617 -0.3994
  120MOL   C15524193   0.967   6.344   1.072  0.5161 -0.9185  0.3307
  120MOL   H15624194   1.127   6.660   1.015  0.7654  0.6132 -1.2823
  120MOL   H15724195   1.173   6.506   0.968  0.9368  1.6075 -1.2095
  120MOL   H15824196   1.058   6.478   1.208 -1.7804 -1.9107  0.2186
  120MOL   H15924197   0.925   6.542   1.153  0.9476  0.2003  1.4332
  120MOL   H16024198   1.057   6.285   1.059  0.4400 -1.2783  1.3581
  120MOL   H16124199   0.904   6.340   0.983 -0.6114 -3.5169  1.1986
  120MOL   O16224200   0.903   6.280   1.181  0.1531  0.0385 -0.1451
  120MOL   C16324201   0.814   6.184   1.129  0.7969  0.6418 -0.3071
  120MOL   C16424202   0.783   6.096   1.242  0.0729 -0.0881  0.1695
  120MOL   C16524203   0.903   6.018   1.308  0.1420  0.6522 -0.7509
  120MOL   H16624204   0.842   6.134   1.036 -0.7426 -1.7671  0.4828
  120MOL   H16724205   0.720   6.233   1.105  1.1725  0.4264 -2.2759
  120MOL   H16824206   0.732   6.156   1.317 -0.7372  0.2518 -0.6480
  120MOL   H16924207   0.713   6.020   1.206 -0.9076  0.8880  0.0108
  120MOL   H17024208   0.970   6.085   1.361 -0.4623  1.5809 -1.1479
  120MOL   H17124209   0.944   5.966   1.222 -0.7070 -0.0600 -0.7406
  120MOL   O17224210   0.845   5.926   1.395  0.0654  0.4762 -0.2317
  120MOL   C17324211   0.929   5.834   1.466 -0.6688 -0.3072 -0.0079
  120MOL   C17424212   0.883   5.686   1.441  0.1109  0.4758  0.4162
  120MOL   C17524213   0.731   5.663   1.473 -0.2516  0.9970 -0.9255
  120MOL   H17624214   0.907   5.857   1.570 -0.4905 -1.2712  0.2510
  120MOL   H17724215   1.036   5.849   1.455 -0.5808 -1.0358 -0.1527
  120MOL   H17824216   0.897   5.653   1.339  0.6173 -2.3536  1.3523
  120MOL   H17924217   0.948   5.612   1.488 -0.4014  0.5716  1.3056
  120MOL   H18024218   0.678   5.733   1.409  0.6166  0.1305 -2.6102
  120MOL   H18124219   0.708   5.682   1.578  0.9854  0.1953 -0.4961
  120MOL   O18224220   0.702   5.520   1.455  0.5205 -0.8846  0.1513
  120MOL   C18324221   0.570   5.492   1.503  0.0809 -0.2311 -0.2570
  120MOL   C18424222   0.542   5.346   1.479  0.3237  0.4192  0.6157
  120MOL   C18524223   0.401   5.297   1.531 -0.5011 -0.7069  0.0010
  120MOL   H18624224   0.506   5.560   1.446 -2.4299 -0.4583  2.2022
  120MOL   H18724225   0.553   5.510   1.609 -0.6368  1.0989 -0.5842
  120MOL   H18824226   0.536   5.324   1.372  0.2811  4.1432 -0.2153
  120MOL   H18924227   0.617   5.280   1.522 -0.4650  0.0512  1.4592
  120MOL   H19024228   0.318   5.343   1.478  0.3500  0.8628  0.0048
  120MOL   H19124229   0.385   5.314   1.638 -1.4795  1.5562 -0.4746
  120MOL   O19224230   0.397   5.161   1.497 -0.4583  0.3369 -0.2368
  120MOL   C19324231   0.266   5.112   1.526  0.6066  0.2122  0.4190
  120MOL   C19424232   0.260   4.957   1.521  0.3116  0.2271 -0.0564
  120MOL   C19524233   0.113   4.906   1.524 -0.3303  0.6249 -0.3553
  120MOL   H19624234   0.190   5.159   1.463  0.2285 -1.4732 -0.3924
  120MOL   H19724235   0.245   5.137   1.630  0.3648  0.3146  0.3466
  120MOL   H19824236   0.306   4.905   1.437 -0.0242 -1.8137  0.9868
  120MOL   H19924237   0.300   4.920   1.615 -0.2726  1.8645  0.8471
  120MOL   H20024238   0.068   4.878   1.429  0.3205 -1.1530 -0.1643
  120MOL   H20124239   0.055   4.964   1.596  0.7410  2.4466 -0.9298
  120MOL   H20224240   0.108   4.816   1.587 -0.5099  1.7103  1.2079
  121MOL     O124241   3.284   1.383   7.652 -0.6882 -0.2316 -0.0760
  121MOL     C224242   3.386   1.383   7.754 -1.0872 -0.0185  0.2175
  121MOL     C324243   3.375   1.507   0.056 -0.4454  0.0212 -0.5942
  121MOL     C424244   3.464   1.515   0.174  0.4346 -0.0043  0.4150
  121MOL     H524245   3.486   1.376   7.710 -0.6288  1.4956  0.9733
  121MOL     H624246   3.386   1.292   0.026 -1.6038 -0.9800 -1.1979
  121MOL     H724247   3.386   1.592   7.777  1.1232  1.9439  2.0186
  121MOL     H824248   3.274   1.515   0.097 -0.2972  1.1841 -0.4300
  121MOL     H924249   3.563   1.476   0.151  0.4331  1.5237 -2.4491
  121MOL    H1024250   3.421   1.439   0.239  2.5645  0.0923  2.0236
  121MOL    H1124251   3.203   1.393   7.700 -0.7398  1.7621 -0.5268
  121MOL    O1224252   3.465   1.649   0.228 -0.2096  0.1298  0.0050
  121MOL    C1324253   3.542   1.659   0.344  0.1966 -0.4691 -0.1384
  121MOL    C1424254   3.461   1.618   0.472  0.0776  0.2086  0.3647
  121MOL    C1524255   3.548   1.623   0.600 -0.3203  0.5745  0.0084
  121MOL    H1624256   3.561   1.766   0.353 -0.5649 -0.2661 -0.8293
  121MOL    H1724257   3.645   1.626   0.340  1.3371  2.7680  0.5112
  121MOL    H1824258   3.378   1.688   0.472  0.6676  0.9128  0.5084
  121MOL    H1924259   3.417   1.518   0.463  0.1835  0.0509  1.5207
  121MOL    H2024260   3.477   1.598   0.679  0.2962  1.0532  0.7254
  121MOL    H2124261   3.581   1.725   0.621 -0.8696  0.5613  1.0281
  121MOL    O2224262   3.654   1.541   0.592 -0.4372 -0.1388 -0.2860
  121MOL    C2324263   3.733   1.542   0.703  0.0476 -0.6567 -0.0209
  121MOL    C2424264   3.851   1.438   0.702  0.3899  0.0180 -0.2920
  121MOL    C2524265   3.801   1.289   0.716 -0.1863  0.1492  0.3430
  121MOL    H2624266   3.670   1.526   0.790 -1.8776  2.0790 -0.8218
  121MOL    H2724267   3.769   1.643   0.724 -1.4511 -0.3276  1.0364
  121MOL    H2824268   3.909   1.453   0.612  1.8363  0.2231  0.6494
  121MOL    H2924269   3.915   1.453   0.790  0.9205 -1.5587 -0.3981
  121MOL    H3024270   3.883   1.220   0.700  0.6280  1.2440 -0.3164
  121MOL    H3124271   3.714   1.283   0.651 -0.3415 -0.8703  0.6468
  121MOL    O3224272   3.753   1.269   0.851  0.7160 -0.0341  0.0497
  121MOL    C3324273   3.717   1.133   0.883  0.4521 -0.4902 -0.1223
  121MOL    C3424274   3.836   1.044   0.915 -0.4379 -1.3703 -0.1274
  121MOL    C3524275   3.925   1.100   1.030  0.2747  0.1004 -0.3328
  121MOL    H3624276   3.660   1.092   0.799  1.5717 -2.2895 -0.0332
  121MOL    H3724277   3.646   1.128   0.965  0.4759  0.9275 -0.0024
  121MOL    H3824278   3.806   0.942   0.941  3.1404 -2.6330 -0.5417
  121MOL    H3924279   3.897   1.043   0.824  1.2506 -2.6770  0.9687
  121MOL    H4024280   3.864   1.140   1.111 -1.3902 -0.6748 -1.1767
  121MOL    H4124281   3.973   1.189   0.991 -1.8192  0.6140 -1.8115
  121MOL    O4224282   4.025   1.013   1.064 -0.7384 -0.3248 -0.3090
  121MOL    C4324283   4.104   1.041   1.173  0.9102 -0.2236 -0.1358
  121MOL    C4424284   4.240   0.975   1.148  0.3346 -0.3999 -0.2779
  121MOL    C4524285   4.321   0.987   1.273  0.4560 -0.3778 -0.7714
  121MOL    H4624286   4.051   1.006   1.261 -1.7868 -0.8675 -1.9354
  121MOL    H4724287   4.131   1.147   1.175 -0.5366  0.1481  0.3375
  121MOL    H4824288   4.225   0.870   1.122  0.3172 -0.3129 -0.6130
  121MOL    H4924289   4.293   1.022   1.065  0.6249 -0.9986 -0.4353
  121MOL    H5024290   4.418   0.936   1.269  0.7101  0.0145  0.2629
  121MOL    H5124291   4.262   0.936   1.348  0.3844  1.0410  0.1550
  121MOL    O5224292   4.342   1.125   1.301 -0.0723  0.2723 -0.1834
  121MOL    C5324293   4.437   1.134   1.418 -0.3281  0.1737 -0.1298
  121MOL    C5424294   4.441   1.268   1.485  0.3686 -0.0365  0.9079
  121MOL    C5524295   4.536   1.277   1.609 -0.2166  0.5445  0.3706
  121MOL    H5624296   4.539   1.112   1.387 -0.2971  1.4124 -0.9352
  121MOL    H5724297   4.423   1.061   1.498  1.8416 -0.0524  0.0676
  121MOL    H5824298   4.474   1.334   1.404 -3.0568 -1.0273 -1.4345
  121MOL    H5924299   4.339   1.291   1.516  0.7213  1.6602  0.8978
  121MOL    H6024300   4.515   1.188   1.668 -1.5963  1.0439  0.6258
  121MOL    H6124301   4.516   1.356   1.680 -2.1864  1.5422 -1.2541
  121MOL    O6224302   4.677   1.259   1.570 -0.4754 -0.2515 -0.4360
  121MOL    C6324303   4.764   1.247   1.683  0.0858 -0.4527  0.0175
  121MOL    C6424304   4.764   1.374   1.772  0.2441 -0.0154  0.4821
  121MOL    C6524305   4.888   1.381   1.869  0.2140 -0.1140 -0.3209
  121MOL    H6624306   4.858   1.227   1.632  1.0957 -1.3386  2.1960
  121MOL    H6724307   4.744   1.161   1.746  1.4282 -0.3397  0.6185
  121MOL    H6824308   4.758   1.464   1.712  2.0736  0.3893  0.8783
  121MOL    H6924309   4.675   1.374   1.835 -1.3455  0.9826 -1.7092
  121MOL    H7024310   4.956   1.444   1.812 -1.7309  1.6118 -0.7653
  121MOL    H7124311   4.935   1.284   1.887  0.4952 -0.0058 -0.4619
  121MOL    O7224312   4.855   1.449   1.988 -0.0522 -0.2650 -0.0329
  121MOL    C7324313   4.956   1.421   2.082  0.6113  0.1379  0.0078
  121MOL    C7424314   4.921   1.516   2.195 -0.6707 -0.0431  0.3136
  121MOL    C7524315   5.013   1.518   2.321 -0.0910  0.3979 -0.0425
  121MOL    H7624316   5.055   1.450   2.049 -0.0599  1.0184 -1.2969
  121MOL    H7724317   4.955   1.317   2.114  1.3613  0.1156 -0.0509
  121MOL    H7824318   4.917   1.614   2.147  0.0135  0.4531  1.2485
  121MOL    H7924319   4.818   1.507   2.230 -0.7609 -1.0385 -0.1969
  121MOL    H8024320   5.114   1.533   2.283 -0.1038  1.6739  0.4265
  121MOL    H8124321   5.030   1.425   2.376 -0.7946  0.8776  1.0023
  121MOL    O8224322   4.971   1.626   2.407  0.1209  0.6772  0.2187
  121MOL    C8324323   5.061   1.661   2.511 -0.2116  0.2878  0.4500
  121MOL    C8424324   5.018   1.791   2.581  1.1029  0.0125  0.2169
  121MOL    C8524325   4.888   1.786   2.667  0.0235  0.3329 -0.5192
  121MOL    H8624326   5.164   1.679   2.481 -0.4909 -1.0352 -1.3974
  121MOL    H8724327   5.070   1.582   2.586 -1.2686  0.4045  0.7006
  121MOL    H8824328   5.095   1.831   2.647  0.7560  0.9650  0.0535
  121MOL    H8924329   5.011   1.867   2.504  0.6530 -0.7127 -0.4620
  121MOL    H9024330   4.803   1.757   2.606  0.4575  1.1023 -1.5076
  121MOL    H9124331   4.864   1.890   2.690  0.0569  0.5046 -1.2387
  121MOL    O9224332   4.907   1.710   2.789 -0.2553  0.4721  0.0011
  121MOL    C9324333   4.785   1.698   2.864 -0.0117 -0.3593  0.1879
  121MOL    C9424334   4.720   1.561   2.841  0.1800  0.5923  0.3882
  121MOL    C9524335   4.817   1.449   2.883  1.2855  0.3091  0.1196
  121MOL    H9624336   4.711   1.775   2.842 -0.3671 -1.0645 -1.0739
  121MOL    H9724337   4.813   1.703   2.969  1.3664 -1.2105 -0.1264
  121MOL    H9824338   4.624   1.558   2.893  0.1543  0.7412  0.3480
  121MOL    H9924339   4.690   1.546   2.737 -0.7665 -0.9513  0.8575
  121MOL   H10024340   4.853   1.476   2.982  0.9366  0.8041  0.1182
  121MOL   H10124341   4.907   1.445   2.822  1.3680  0.5335  0.2275
  121MOL   O10224342   4.744   1.323   2.866  0.2201 -0.2643  0.5583
  121MOL   C10324343   4.769   1.216   2.958  0.9722  0.1506 -0.1706
  121MOL   C10424344   4.665   1.113   2.926  0.2829 -0.2283 -0.1081
  121MOL   C10524345   4.666   1.002   3.026  0.4968  0.3589 -0.4306
  121MOL   H10624346   4.740   1.245   3.059 -2.1575  1.4442 -1.3876
  121MOL   H10724347   4.873   1.186   2.942  0.7287 -1.8207  1.7127
  121MOL   H10824348   4.565   1.156   2.921  0.3362 -0.1964 -0.9580
  121MOL   H10924349   4.687   1.076   2.826 -0.1804  0.6165 -0.5297
  121MOL   H11024350   4.670   1.035   3.129  0.0564  2.0404 -0.9387
  121MOL   H11124351   4.748   0.931   3.009  0.5373  0.3472 -0.1836
  121MOL   O11224352   4.546   0.933   3.006  0.3494  0.5212 -0.1529
  121MOL   C11324353   4.504   0.857   3.119  0.0405  0.4196  0.1819
  121MOL   C11424354   4.557   0.711   3.108 -0.2098  0.5419  0.1663
  121MOL   C11524355   4.517   0.602   3.213 -0.0552 -0.2087  0.3110
  121MOL   H11624356   4.395   0.855   3.118  0.0310  1.0836 -1.3847
  121MOL   H11724357   4.538   0.885   3.219  0.8399 -1.8329  0.5810
  121MOL   H11824358   4.513   0.682   3.012  0.4533 -0.8225  0.2606
  121MOL   H11924359   4.666   0.705   3.102 -0.4702 -4.5911 -2.2145
  121MOL   H12024360   4.541   0.513   3.155 -0.9643 -0.0618 -0.2959
  121MOL   H12124361   4.411   0.599   3.237 -0.1817 -2.0942 -0.3768
  121MOL   O12224362   4.602   0.613   3.322  0.5187  0.1682 -0.1007
  121MOL   C12324363   4.555   0.542   3.435 -0.0056  0.0937  0.3153
  121MOL   C12424364   4.664   0.536   3.554  0.4477 -0.2065 -0.6985
  121MOL   C12524365   4.761   0.439   3.510  0.2042 -0.1250 -0.1423
  121MOL   H12624366   4.534   0.440   3.402  0.7447  0.1463 -0.3427
  121MOL   H12724367   4.463   0.587   3.471  1.1329  2.0572  0.8240
  121MOL   H12824368   4.708   0.636   3.553 -1.3673  0.6192 -0.0436
  121MOL   H12924369   4.622   0.512   3.651 -0.3277  0.0717 -0.9612
  121MOL   H13024370   4.798   0.466   3.411  0.5792  0.5094  0.1654
  121MOL   H13124371   4.717   0.340   3.519  0.6000 -0.4747 -1.8481
  121MOL   O13224372   4.872   0.449   3.586 -0.6684  0.1418 -0.5561
  121MOL   C13324373   4.976   0.347   3.554  0.5004 -0.7690 -0.1900
  121MOL   C13424374   5.106   0.394   3.493  0.4694 -0.2912  0.7556
  121MOL   C13524375   5.089   0.471   3.368  0.7124  0.2335  0.0054
  121MOL   H13624376   4.942   0.258   3.500 -1.5919  1.0021 -1.8236
  121MOL   H13724377   5.002   0.306   3.652  1.2554  0.0976 -0.0223
  121MOL   H13824378   5.153   0.464   3.562 -1.0724  0.8039  0.7254
  121MOL   H13924379   5.170   0.307   3.476 -0.0654 -0.3824 -0.8767
  121MOL   H14024380   5.014   0.549   3.382 -0.2123 -0.5962 -0.2686
  121MOL   H14124381   5.046   0.405   3.292 -0.8054  0.0355  1.0095
  121MOL   O14224382   5.210   0.532   3.328  0.7509 -0.4497  0.1628
  121MOL   C14324383   5.208   0.578   3.197 -0.0536  0.1950 -0.3457
  121MOL   C14424384   5.323   0.673   3.181 -0.3937  0.0204 -0.1722
  121MOL   C14524385   5.344   0.700   3.032  0.3536  0.3198  0.6164
  121MOL   H14624386   5.115   0.633   3.186  0.0298  0.1407 -1.3596
  121MOL   H14724387   5.213   0.491   3.132 -0.4894 -0.2656  0.2359
  121MOL   H14824388   5.308   0.765   3.238  3.6172  1.6908 -1.6519
  121MOL   H14924389   5.411   0.620   3.216 -0.5186 -1.2210 -1.6773
  121MOL   H15024390   5.356   0.605   2.979  1.4731  1.0156 -0.3942
  121MOL   H15124391   5.444   0.741   3.019 -0.5697  1.5541 -3.0615
  121MOL   O15224392   5.239   0.776   2.972  0.3781  0.4558  0.1968
  121MOL   C15324393   5.270   0.915   2.960 -0.2555  0.3091 -0.0702
  121MOL   C15424394   5.153   0.981   2.901 -0.2647  0.3709  0.0945
  121MOL   C15524395   5.166   1.130   2.872 -0.3657  0.2772  0.6255
  121MOL   H15624396   5.358   0.928   2.897 -0.5314  0.2240 -0.4747
  121MOL   H15724397   5.293   0.954   3.059  1.3072  0.1859 -0.3593
  121MOL   H15824398   5.117   0.931   2.812  2.0590  0.3222 -0.8568
  121MOL   H15924399   5.066   0.964   2.964 -1.6245  2.8873 -1.0169
  121MOL   H16024400   5.232   1.183   2.941 -1.6304  1.6860  0.7633
  121MOL   H16124401   5.066   1.172   2.876 -0.2112  0.5914  1.1877
  121MOL   O16224402   5.212   1.149   2.739  0.1281  0.4454 -0.2339
  121MOL   C16324403   5.253   1.290   2.711  0.8953  0.7594  0.4925
  121MOL   C16424404   5.285   1.306   2.557  0.5954 -0.9002  0.0537
  121MOL   C16524405   5.374   1.433   2.534  0.0284 -0.1202 -0.0381
  121MOL   H16624406   5.336   1.327   2.771  1.1799  2.3124 -0.8149
  121MOL   H16724407   5.167   1.355   2.728  0.6369  0.3016  0.9447
  121MOL   H16824408   5.347   1.217   2.543  2.0098 -0.0851  0.9389
  121MOL   H16924409   5.198   1.309   2.493 -1.2199 -0.1676  2.4848
  121MOL   H17024410   5.473   1.391   2.552 -0.9465 -2.9460 -1.0489
  121MOL   H17124411   5.355   1.503   2.616 -0.2829 -0.1552 -0.0779
  121MOL   O17224412   5.359   1.487   2.405 -0.3304  0.2000 -0.0775
  121MOL   C17324413   5.441   1.601   2.367 -0.5152 -0.4487  0.0676
  121MOL   C17424414   5.397   1.655   2.224 -0.1157  0.8297 -0.2415
  121MOL   C17524415   5.467   1.790   2.191  0.3030 -0.0453  0.3731
  121MOL   H17624416   5.546   1.572   2.361 -0.6003 -0.9337  0.8648
  121MOL   H17724417   5.423   1.681   2.439 -0.2043  1.4453 -1.9039
  121MOL   H17824418   5.427   1.584   2.146  1.1271  1.2671 -0.1824
  121MOL   H17924419   5.292   1.675   2.205 -0.1697  0.7726 -0.0025
  121MOL   H18024420   5.574   1.765   2.192  0.1688 -0.7462 -1.3210
  121MOL   H18124421   5.433   1.872   2.254  3.0345  0.1520  1.6582
  121MOL   O18224422   5.424   1.826   2.059  0.4897 -0.5503  0.2223
  121MOL   C18324423   5.462   1.959   2.016  0.3853  0.3304  0.0947
  121MOL   C18424424   5.455   1.961   1.864 -0.7341  0.3746  0.2689
  121MOL   C18524425   5.313   1.946   1.802 -1.0087  0.2056  0.7192
  121MOL   H18624426   5.567   1.972   2.042 -0.4340  2.1350  2.7189
  121MOL   H18724427   5.409   2.040   2.066  0.5746  0.2417  0.4402
  121MOL   H18824428   5.501   2.056   1.835 -1.3507  0.5699 -0.0750
  121MOL   H18924429   5.516   1.878   1.828 -1.5609  0.3852 -1.1832
  121MOL   H19024430   5.257   2.033   1.835  0.1640  2.1154 -2.2116
  121MOL   H19124431   5.260   1.859   1.841  2.2643 -2.4831 -0.5738
  121MOL   O19224432   5.318   1.943   1.655  0.4189 -0.3889  0.6502
  121MOL   C19324433   5.191   1.941   1.590  0.3349  0.6483 -0.6432
  121MOL   C19424434   5.107   1.815   1.617  0.0650 -0.1572 -0.2283
  121MOL   C19524435   4.993   1.787   1.516  0.3350 -0.0888  0.1385
  121MOL   H19624436   5.218   1.938   1.485 -0.0999 -0.2341 -0.7414
  121MOL   H19724437   5.127   2.028   1.604 -1.0699 -0.6193  1.2904
  121MOL   H19824438   5.179   1.734   1.620 -0.6837 -0.8629 -1.0201
  121MOL   H19924439   5.063   1.816   1.717 -0.3194  2.4482 -0.3732
  121MOL   H20024440   4.927   1.874   1.520 -0.2281 -0.4251 -1.2740
  121MOL   H20124441   4.946   1.692   1.540  1.5637 -0.7219  0.0687
  121MOL   H20224442   5.020   1.778   1.411 -1.7195 -0.6752 -0.3775
  122MOL     O124443   5.021   0.432   7.526  0.0799  0.1621 -0.1313
  122MOL     C224444   5.080   0.547   7.464  0.2711 -0.1363 -0.2612
  122MOL     C324445   5.084   0.508   7.315 -0.9203 -0.2420 -0.1128
  122MOL     C424446   5.154   0.619   7.236  0.0946 -0.0644  0.3505
  122MOL     H524447   5.180   0.560   7.505  0.5105  1.6702 -1.3707
  122MOL     H624448   5.023   0.638   7.487  1.0419  0.1129  0.6597
  122MOL     H724449   5.145   0.417   7.314  1.2091  1.1098 -3.7621
  122MOL     H824450   4.984   0.488   7.277 -0.3166  0.2033 -1.9770
  122MOL     H924451   5.175   0.601   7.131 -1.2016  4.2059 -0.7548
  122MOL    H1024452   5.248   0.639   7.287  0.5536  0.7180 -0.7861
  122MOL    H1124453   4.987   0.446   7.613 -2.7454 -0.0853 -1.1303
  122MOL    O1224454   5.080   0.744   7.250  0.1715  0.4384  0.3339
  122MOL    C1324455   5.144   0.847   7.171 -0.3505  0.7633 -0.2771
  122MOL    C1424456   5.062   0.974   7.191  0.1790 -0.3469  0.0925
  122MOL    C1524457   5.103   1.094   7.109  0.4713  0.1573 -0.0199
  122MOL    H1624458   5.151   0.832   7.063  1.1201  0.9725 -0.2224
  122MOL    H1724459   5.246   0.850   7.209 -0.7122 -0.2444  0.8270
  122MOL    H1824460   4.959   0.948   7.166  0.0381  0.7126 -0.4607
  122MOL    H1924461   5.054   1.000   7.296  3.6577 -0.7559  0.5075
  122MOL    H2024462   5.099   1.066   7.004 -1.2028 -2.7693  0.7483
  122MOL    H2124463   5.204   1.123   7.137  1.4529 -2.6027 -0.4703
  122MOL    O2224464   5.019   1.203   7.139  0.0554  0.3159 -0.2778
  122MOL    C2324465   5.049   1.313   7.047  0.2190 -0.4497 -1.1249
  122MOL    C2424466   4.921   1.356   6.975  0.5888  0.1969  0.1756
  122MOL    C2524467   4.923   1.507   6.936 -0.6859 -0.5404 -0.2318
  122MOL    H2624468   5.136   1.286   6.987  1.0696  1.6423 -0.8847
  122MOL    H2724469   5.071   1.397   7.113  0.6376 -1.4523  0.0300
  122MOL    H2824470   4.906   1.293   6.887  1.5053  1.4102 -0.8751
  122MOL    H2924471   4.841   1.351   7.049  1.9423  0.3091  1.6611
  122MOL    H3024472   4.998   1.522   6.858 -0.1310 -1.9466  0.0143
  122MOL    H3124473   4.932   1.573   7.023  0.1977  0.9205 -1.4036
  122MOL    O3224474   4.790   1.537   6.899 -0.4179 -0.0953 -0.2629
  122MOL    C3324475   4.767   1.675   6.873  0.4018  0.2248 -0.1908
  122MOL    C3424476   4.633   1.690   6.804 -0.1835  0.2881  0.4327
  122MOL    C3524477   4.608   1.829   6.735 -0.1610 -0.0205  0.1455
  122MOL    H3624478   4.836   1.703   6.793  1.8411 -0.4674  0.7797
  122MOL    H3724479   4.770   1.743   6.958 -2.5630 -0.8912  0.8440
  122MOL    H3824480   4.624   1.607   6.734  1.4913 -1.3891  2.1396
  122MOL    H3924481   4.554   1.673   6.878  0.1462 -0.6863  0.5644
  122MOL    H4024482   4.609   1.906   6.812  0.0579 -0.7946  0.9336
  122MOL    H4124483   4.504   1.831   6.703  0.0598  1.1060 -0.5490
  122MOL    O4224484   4.696   1.841   6.624 -0.4794  0.2755 -0.2828
  122MOL    C4324485   4.665   1.966   6.557 -0.3246  0.2228 -0.4327
  122MOL    C4424486   4.786   2.011   6.470  0.4283  0.3016 -0.6365
  122MOL    C4524487   4.753   2.128   6.376 -0.4310 -0.3861  0.1092
  122MOL    H4624488   4.659   2.048   6.629 -1.4815 -1.0141  0.8877
  122MOL    H4724489   4.575   1.950   6.499 -0.0181  0.6041 -1.0254
  122MOL    H4824490   4.869   2.037   6.536  1.3808 -0.8877 -1.3624
  122MOL    H4924491   4.813   1.936   6.396 -0.8603 -1.4214  0.6010
  122MOL    H5024492   4.711   2.217   6.424 -1.1416 -1.7759  2.1090
  122MOL    H5124493   4.686   2.099   6.295 -1.5377  0.1449  0.8136
  122MOL    O5224494   4.867   2.165   6.298 -0.0446  0.0208 -0.5758
  122MOL    C5324495   4.833   2.277   6.213  0.4328  0.5479 -0.1671
  122MOL    C5424496   4.836   2.237   6.066 -0.3022 -0.2078 -0.5467
  122MOL    C5524497   4.790   2.343   5.962  0.4618 -0.1636  0.1383
  122MOL    H5624498   4.914   2.349   6.227 -0.9274  2.5996 -2.4747
  122MOL    H5724499   4.743   2.328   6.249 -2.8013 -2.0123 -4.2642
  122MOL    H5824500   4.939   2.209   6.042  0.1633  0.5672  0.5275
  122MOL    H5924501   4.773   2.148   6.059  1.4319 -1.5853  0.7233
  122MOL    H6024502   4.855   2.429   5.967  1.6651 -0.9676 -1.3978
  122MOL    H6124503   4.691   2.378   5.991  0.5260  1.0401 -1.0447
  122MOL    O6224504   4.783   2.305   5.828  0.1839 -0.1446  0.0056
  122MOL    C6324505   4.761   2.415   5.739  0.2458 -0.0923  0.2597
  122MOL    C6424506   4.721   2.365   5.596 -0.2976 -0.1411 -0.2390
  122MOL    C6524507   4.743   2.483   5.494 -0.4698 -0.9122  0.1873
  122MOL    H6624508   4.843   2.487   5.741  0.0944  0.0676  0.5640
  122MOL    H6724509   4.674   2.478   5.760  1.3619  1.1645  1.1812
  122MOL    H6824510   4.782   2.286   5.552  0.0808 -1.2550  2.2038
  122MOL    H6924511   4.618   2.330   5.594  0.0254 -1.1563  0.4197
  122MOL    H7024512   4.745   2.456   5.389  0.5052 -1.8372  0.4400
  122MOL    H7124513   4.839   2.526   5.524 -0.5786 -0.9399  0.5918
  122MOL    O7224514   4.650   2.591   5.509  0.2380  0.2035  0.1510
  122MOL    C7324515   4.678   2.702   5.426 -0.4097  0.3231 -0.6714
  122MOL    C7424516   4.564   2.799   5.414  0.1984 -0.0846  0.2733
  122MOL    C7524517   4.532   2.893   5.538  0.1524  0.1650 -0.6029
  122MOL    H7624518   4.702   2.662   5.327 -1.7038  2.1246 -1.7523
  122MOL    H7724519   4.761   2.759   5.469 -0.1954 -0.5632  0.0991
  122MOL    H7824520   4.599   2.870   5.339 -1.3680  0.6299  0.1945
  122MOL    H7924521   4.475   2.751   5.373  0.1759 -1.3141  1.7111
  122MOL    H8024522   4.619   2.951   5.570  0.4374 -1.3963  1.5678
  122MOL    H8124523   4.514   2.832   5.627 -1.4059  1.7949  0.2082
  122MOL    O8224524   4.421   2.973   5.510 -1.0095 -0.2386  0.6073
  122MOL    C8324525   4.381   3.058   5.615 -0.5453  0.6246  0.2309
  122MOL    C8424526   4.268   3.143   5.554  0.2344  0.5731 -0.5786
  122MOL    C8524527   4.192   3.230   5.656 -0.4209  0.0267  0.1414
  122MOL    H8624528   4.462   3.123   5.647  2.5693 -1.8462 -2.2837
  122MOL    H8724529   4.345   3.005   5.703 -0.2180  0.9626  0.5661
  122MOL    H8824530   4.310   3.213   5.483 -1.3367  0.7018 -1.4125
  122MOL    H8924531   4.195   3.085   5.497 -1.0288  0.2486  1.3058
  122MOL    H9024532   4.256   3.313   5.687  2.4768 -2.4071  0.8188
  122MOL    H9124533   4.151   3.162   5.730 -0.4804 -1.1875 -0.9944
  122MOL    O9224534   4.082   3.298   5.593 -0.1607 -0.6131 -0.5728
  122MOL    C9324535   4.020   3.385   5.682 -0.5338 -0.1630  0.0763
  122MOL    C9424536   3.879   3.411   5.620  0.3424 -0.5824 -0.1043
  122MOL    C9524537   3.805   3.281   5.579  0.3613  0.5975  0.2881
  122MOL    H9624538   4.080   3.472   5.706 -0.0891 -0.4713  0.0882
  122MOL    H9724539   3.998   3.333   5.775 -1.1617 -0.1390 -0.0505
  122MOL    H9824540   3.818   3.471   5.688 -0.9300 -0.8919 -0.9555
  122MOL    H9924541   3.892   3.475   5.532  0.7865 -2.2456 -1.2651
  122MOL   H10024542   3.796   3.221   5.669 -0.5024  1.3467  0.7125
  122MOL   H10124543   3.863   3.225   5.506 -0.8605  0.2366 -0.4313
  122MOL   O10224544   3.670   3.307   5.538  0.1931 -0.3192  0.7479
  122MOL   C10324545   3.603   3.182   5.519  0.4427 -1.1086  0.0979
  122MOL   C10424546   3.469   3.218   5.450 -0.0363 -0.0722  0.2053
  122MOL   C10524547   3.381   3.092   5.442 -0.5268  0.2713 -0.2460
  122MOL   H10624548   3.591   3.136   5.617 -0.1692 -1.3825 -0.1036
  122MOL   H10724549   3.655   3.118   5.449  0.0682 -2.1640  0.7691
  122MOL   H10824550   3.421   3.297   5.508 -1.4429  0.0015 -1.0166
  122MOL   H10924551   3.494   3.256   5.351 -0.5170  0.7067  0.3811
  122MOL   H11024552   3.370   3.038   5.536 -0.5204  2.6104  1.1401
  122MOL   H11124553   3.421   3.008   5.384 -0.2712  0.1062  0.1597
  122MOL   O11224554   3.252   3.127   5.396  0.1414 -0.1567 -0.2241
  122MOL   C11324555   3.171   3.011   5.405  0.1798  0.5071  0.5476
  122MOL   C11424556   3.038   3.047   5.344  0.0179 -0.5956  0.0650
  122MOL   C11524557   2.924   2.945   5.366  0.3367  0.5980  0.5051
  122MOL   H11624558   3.154   2.986   5.510  0.6595  1.1605  0.7801
  122MOL   H11724559   3.214   2.929   5.348  0.4239  0.3374  0.9733
  122MOL   H11824560   3.008   3.139   5.395  0.9459 -1.0799  1.5088
  122MOL   H11924561   3.031   3.066   5.237 -0.5692  2.6592  0.6226
  122MOL   H12024562   2.914   2.918   5.471  0.1501  0.0708  0.3514
  122MOL   H12124563   2.948   2.849   5.320 -0.9610 -0.0871  1.2418
  122MOL   O12224564   2.808   2.993   5.305  0.0558 -0.8744 -0.1224
  122MOL   C12324565   2.695   2.906   5.319 -0.8703  0.2285 -0.1691
  122MOL   C12424566   2.573   2.975   5.253  0.5332  0.4896  0.4546
  122MOL   C12524567   2.529   3.096   5.337 -0.9756 -0.3473  0.1295
  122MOL   H12624568   2.676   2.883   5.424  0.8848 -0.4443  0.0172
  122MOL   H12724569   2.724   2.825   5.251  1.3066  1.4569 -0.7524
  122MOL   H12824570   2.601   3.011   5.154 -0.4930 -0.3006 -0.1317
  122MOL   H12924571   2.488   2.908   5.246  0.4056  0.8429 -1.5394
  122MOL   H13024572   2.610   3.169   5.344 -4.1979  3.3512  0.3426
  122MOL   H13124573   2.503   3.077   5.442 -1.1846 -0.7075  0.0119
  122MOL   O13224574   2.420   3.149   5.275  0.3166 -0.2970 -0.2635
  122MOL   C13324575   2.349   3.239   5.348 -0.2522  0.1940 -0.8278
  122MOL   C13424576   2.246   3.298   5.252 -0.1631 -0.3676 -0.2928
  122MOL   C13524577   2.179   3.409   5.334 -0.3072 -0.5249  0.0782
  122MOL   H13624578   2.402   3.315   5.405 -1.3455 -0.3271  0.9055
  122MOL   H13724579   2.287   3.186   5.421  0.3658  0.1604 -0.3270
  122MOL   H13824580   2.277   3.337   5.155 -0.0723  1.7088  0.5486
  122MOL   H13924581   2.174   3.220   5.228 -1.6089  1.4542 -2.0250
  122MOL   H14024582   2.140   3.373   5.429 -1.1266 -0.8567 -0.3828
  122MOL   H14124583   2.091   3.449   5.283 -1.6925 -2.0898  1.2393
  122MOL   O14224584   2.267   3.526   5.342  0.3134  0.2133 -0.1744
  122MOL   C14324585   2.237   3.619   5.443 -0.3017 -0.0089 -0.4296
  122MOL   C14424586   2.354   3.709   5.452  0.7415 -0.6875  0.0655
  122MOL   C14524587   2.321   3.833   5.544  0.5560  0.0321  0.1214
  122MOL   H14624588   2.238   3.569   5.539  0.2314  0.7232 -0.0483
  122MOL   H14724589   2.141   3.666   5.420 -1.1098  0.7440  4.1650
  122MOL   H14824590   2.443   3.656   5.487 -0.2121 -1.3240  1.5721
  122MOL   H14924591   2.374   3.753   5.354  0.2265 -3.3372 -1.2604
  122MOL   H15024592   2.265   3.797   5.631 -0.7329  0.2325 -0.6141
  122MOL   H15124593   2.264   3.909   5.490 -0.0929  1.2425  2.4651
  122MOL   O15224594   2.438   3.886   5.607 -0.0076  0.1879 -0.4843
  122MOL   C15324595   2.409   3.995   5.688 -0.1995 -0.4489 -0.1678
  122MOL   C15424596   2.544   4.055   5.710  0.4971  0.5019  0.4730
  122MOL   C15524597   2.534   4.191   5.774  0.2632  0.3585 -0.8824
  122MOL   H15624598   2.362   3.951   5.776  1.0492 -1.8479 -0.1934
  122MOL   H15724599   2.332   4.062   5.649 -0.1915 -0.8786 -0.9192
  122MOL   H15824600   2.602   3.981   5.765 -0.9813 -0.4756  0.7448
  122MOL   H15924601   2.590   4.065   5.612 -0.7393  1.1511 -0.0448
  122MOL   H16024602   2.488   4.188   5.872 -1.8624 -1.6581 -1.9076
  122MOL   H16124603   2.464   4.250   5.716 -0.9708  0.4631  0.7007
  122MOL   O16224604   2.668   4.220   5.786 -0.3373  0.0269  0.0812
  122MOL   C16324605   2.698   4.358   5.766 -0.5101  1.0439  0.3786
  122MOL   C16424606   2.850   4.374   5.774 -0.5057  0.1422 -0.0897
  122MOL   C16524607   2.895   4.516   5.753 -0.9297 -0.0600  0.2713
  122MOL   H16624608   2.650   4.427   5.836  1.3919  1.8391  0.9346
  122MOL   H16724609   2.660   4.382   5.667  1.7655 -0.6584 -0.9383
  122MOL   H16824610   2.892   4.340   5.869 -1.6874  0.5151  0.5687
  122MOL   H16924611   2.901   4.314   5.698 -1.4978 -0.5967 -0.1739
  122MOL   H17024612   2.854   4.572   5.837  0.4331  0.4236  0.6403
  122MOL   H17124613   2.865   4.563   5.659 -0.8235  1.6395  1.0705
  122MOL   O17224614   3.041   4.525   5.766 -0.6679  0.7809 -0.3485
  122MOL   C17324615   3.090   4.657   5.764  0.2232 -0.4005 -0.2573
  122MOL   C17424616   3.229   4.679   5.822 -0.2016 -0.4740 -0.6963
  122MOL   C17524617   3.216   4.647   5.967 -0.3386  0.7521  0.6606
  122MOL   H17624618   3.020   4.729   5.805  0.0684 -1.8568  2.1152
  122MOL   H17724619   3.097   4.699   5.663 -1.0598  0.7504  0.1346
  122MOL   H17824620   3.297   4.606   5.777 -0.1942  0.0352 -1.5238
  122MOL   H17924621   3.268   4.778   5.800 -1.3861  0.2305  0.2872
  122MOL   H18024622   3.315   4.629   6.008 -0.7081 -0.3273  1.0947
  122MOL   H18124623   3.173   4.547   5.967 -2.1538  1.4422 -2.5485
  122MOL   O18224624   3.149   4.742   6.045 -0.2298 -0.1102 -0.0264
  122MOL   C18324625   3.120   4.691   6.177 -0.0826  0.0434  0.6156
  122MOL   C18424626   3.006   4.594   6.164 -0.0171 -0.2259 -0.0512
  122MOL   C18524627   2.863   4.653   6.153 -0.5042  0.9364 -0.8493
  122MOL   H18624628   3.095   4.773   6.243 -1.6790 -0.2799  0.4220
  122MOL   H18724629   3.207   4.639   6.218  1.1634  0.7795 -1.0207
  122MOL   H18824630   3.020   4.524   6.082  3.3360 -0.5305  0.7036
  122MOL   H18924631   3.001   4.529   6.251 -0.1367  1.6401  1.3773
  122MOL   H19024632   2.841   4.696   6.055 -2.0186 -0.4789 -1.1584
  122MOL   H19124633   2.840   4.717   6.238 -1.2048  0.1367 -0.4305
  122MOL   O19224634   2.769   4.540   6.156 -0.3601 -0.5719 -0.2197
  122MOL   C19324635   2.632   4.574   6.145  0.0171 -0.3700 -0.0917
  122MOL   C19424636   2.555   4.441   6.157 -0.3196 -0.4429 -0.4237
  122MOL   C19524637   2.404   4.451   6.154 -0.0194  0.1410  0.5589
  122MOL   H19624638   2.617   4.622   6.049 -1.3593  1.0350  0.7927
  122MOL   H19724639   2.597   4.645   6.220 -0.7006  0.3199 -1.0659
  122MOL   H19824640   2.579   4.364   6.084 -2.4941 -1.4204 -0.1370
  122MOL   H19924641   2.573   4.396   6.254 -2.3158 -0.4807 -0.0539
  122MOL   H20024642   2.378   4.531   6.223 -1.7688 -1.5623  1.8999
  122MOL   H20124643   2.343   4.374   6.200 -1.5015  0.0879 -1.4315
  122MOL   H20224644   2.378   4.479   6.052  0.7757 -0.9911  0.0334
  123MOL     O124645   6.442   1.048   0.684 -0.4704 -0.3846  0.5139
  123MOL     C224646   6.350   1.004   0.776 -0.0388 -0.2067  0.1969
  123MOL     C324647   6.221   1.089   0.752  0.1675 -0.2461 -0.3974
  123MOL     C424648   6.118   1.052   0.851  0.2310  0.0531  0.0447
  123MOL     H524649   6.400   1.030   0.869  0.5472  0.1153 -0.2078
  123MOL     H624650   6.339   0.895   0.772 -1.2505 -0.0726 -0.5749
  123MOL     H724651   6.246   1.194   0.767 -2.4851 -0.1725  4.4760
  123MOL     H824652   6.190   1.065   0.650  0.1828 -2.0034 -0.0173
  123MOL     H924653   6.151   1.064   0.954 -2.4296 -2.5017  1.2524
  123MOL    H1024654   6.088   0.947   0.848 -1.3571  0.3938  2.4137
  123MOL    H1124655   6.414   1.011   0.602 -1.1190 -0.3016  0.6953
  123MOL    O1224656   6.001   1.132   0.829 -0.2309  0.1349  0.4102
  123MOL    C1324657   5.897   1.098   0.912  0.6284  0.2564  0.3777
  123MOL    C1424658   5.766   1.172   0.877  0.0753 -0.4610 -0.0840
  123MOL    C1524659   5.652   1.122   0.968 -0.4508 -0.4068  0.2864
  123MOL    H1624660   5.928   1.120   1.014 -0.5961  1.4158  0.5080
  123MOL    H1724661   5.896   0.989   0.909  0.1089  0.2103  1.9775
  123MOL    H1824662   5.781   1.278   0.895  3.0701 -1.0087  1.0489
  123MOL    H1924663   5.741   1.162   0.771  0.3491 -1.7162 -0.0387
  123MOL    H2024664   5.667   1.151   1.072  0.6968 -1.0856  0.3120
  123MOL    H2124665   5.653   1.013   0.968  1.6126 -0.4177  0.6541
  123MOL    O2224666   5.528   1.171   0.925 -0.1342 -0.0458  0.0535
  123MOL    C2324667   5.495   1.289   0.994  0.1306  0.7274 -0.0663
  123MOL    C2424668   5.431   1.388   0.896  0.4490 -0.0620  0.4785
  123MOL    C2524669   5.527   1.444   0.785  0.5982  0.2114 -0.2883
  123MOL    H2624670   5.579   1.351   1.026 -0.1711  0.8201  0.5538
  123MOL    H2724671   5.432   1.255   1.076  1.2653 -0.6772  0.2378
  123MOL    H2824672   5.345   1.340   0.848 -0.2449  2.0257 -0.4002
  123MOL    H2924673   5.390   1.476   0.945  0.4050 -1.1410  2.4273
  123MOL    H3024674   5.466   1.515   0.730 -3.4641 -2.3109  0.7151
  123MOL    H3124675   5.565   1.378   0.707 -0.5475 -0.3061 -0.4194
  123MOL    O3224676   5.636   1.513   0.849  0.3914  0.3990 -0.2515
  123MOL    C3324677   5.704   1.581   0.752  0.2235 -0.1472 -0.2840
  123MOL    C3424678   5.855   1.594   0.772 -0.1670  0.1452 -0.2597
  123MOL    C3524679   5.906   1.708   0.676 -0.1388 -0.4161 -0.0266
  123MOL    H3624680   5.652   1.675   0.734  0.0283 -0.5695 -1.9580
  123MOL    H3724681   5.696   1.530   0.656  0.6910  1.7460 -1.3560
  123MOL    H3824682   5.876   1.611   0.877 -0.9743  1.1354 -0.2459
  123MOL    H3924683   5.899   1.499   0.741 -1.1322  0.1140 -1.5925
  123MOL    H4024684   5.879   1.808   0.708  1.0431 -0.2772  0.5554
  123MOL    H4124685   5.873   1.685   0.575 -0.3332  4.0442 -1.0431
  123MOL    O4224686   6.047   1.704   0.671  0.2825  0.1008 -0.2164
  123MOL    C4324687   6.110   1.780   0.574  0.4940 -0.9217 -0.3825
  123MOL    C4424688   6.253   1.794   0.612  0.1754 -0.2860 -0.8955
  123MOL    C4524689   6.288   1.883   0.731  0.2692 -0.6256 -0.0032
  123MOL    H4624690   6.056   1.874   0.561 -0.1165 -1.2993 -0.6376
  123MOL    H4724691   6.109   1.731   0.476  0.1068  1.2671 -1.5213
  123MOL    H4824692   6.287   1.695   0.641 -0.0363 -0.3188 -0.7598
  123MOL    H4924693   6.315   1.820   0.526  0.3230 -0.0626 -0.7189
  123MOL    H5024694   6.395   1.871   0.749  0.1449 -1.3529  0.3057
  123MOL    H5124695   6.235   1.862   0.824 -2.0628 -0.1154 -1.1980
  123MOL    O5224696   6.262   2.018   0.696 -0.6407 -0.1361  0.0824
  123MOL    C5324697   6.218   2.109   0.799 -0.1211  0.3781 -0.0049
  123MOL    C5424698   6.158   2.235   0.736 -0.3670 -0.2492  0.5074
  123MOL    C5524699   6.035   2.205   0.660 -0.0827  0.0106 -0.1810
  123MOL    H5624700   6.308   2.135   0.855 -1.0708  0.4336  1.4978
  123MOL    H5724701   6.144   2.058   0.861  1.0796 -1.0754  0.2723
  123MOL    H5824702   6.136   2.309   0.813  1.2271 -0.0209  0.7417
  123MOL    H5924703   6.236   2.272   0.670 -0.1548 -1.0859  0.2899
  123MOL    H6024704   5.962   2.161   0.727 -1.0380  0.8606 -0.6488
  123MOL    H6124705   6.049   2.124   0.588  0.7253 -0.4322  0.4711
  123MOL    O6224706   6.003   2.336   0.605  0.1060 -0.8018 -0.3856
  123MOL    C6324707   5.963   2.335   0.466  0.1113 -0.2047  0.1765
  123MOL    C6424708   5.928   2.476   0.429 -0.7367  0.4022 -0.0472
  123MOL    C6524709   5.906   2.484   0.277  0.7922  0.0098  0.3705
  123MOL    H6624710   5.872   2.275   0.456 -0.2805  0.4337 -0.1825
  123MOL    H6724711   6.034   2.281   0.405 -0.0686 -0.0744 -0.1539
  123MOL    H6824712   5.839   2.506   0.485 -0.6277  1.4052 -0.4029
  123MOL    H6924713   5.998   2.553   0.462  0.0587 -0.6251  0.6724
  123MOL    H7024714   5.866   2.583   0.253  0.4076 -0.3604 -0.5492
  123MOL    H7124715   5.830   2.412   0.247 -1.1939  0.9958  2.8208
  123MOL    O7224716   6.021   2.447   0.207 -0.3651 -0.1124 -0.0096
  123MOL    C7324717   5.996   2.427   0.073  0.2257  0.6606 -0.1395
  123MOL    C7424718   6.126   2.385   0.001 -0.2763 -0.0428 -0.1835
  123MOL    C7524719   6.105   2.383   7.632  0.7634 -0.3510 -0.2501
  123MOL    H7624720   5.966   2.526   0.038 -1.2899  0.3966  0.3915
  123MOL    H7724721   5.913   2.358   0.057  1.0491 -0.6468  1.1151
  123MOL    H7824722   6.199   2.466   0.013 -0.7282  0.2804  0.3633
  123MOL    H7924723   6.163   2.290   0.040 -2.1726 -1.4539 -1.7081
  123MOL    H8024724   6.093   2.481   7.588  2.0213  1.0452  2.4118
  123MOL    H8124725   6.012   2.331   7.611  0.2386  0.5214 -0.0938
  123MOL    O8224726   6.211   2.324   7.567  0.0118  0.4414  0.4404
  123MOL    C8324727   6.231   2.183   7.602  0.6197  0.4511 -0.7852
  123MOL    C8424728   6.314   2.126   7.487 -0.3123  0.3794 -0.0792
  123MOL    C8524729   6.359   1.985   7.521  0.4413 -0.4570  0.5710
  123MOL    H8624730   6.133   2.135   7.604  0.7465 -0.0859 -4.3637
  123MOL    H8724731   6.281   2.172   7.698  2.0322 -0.0163 -1.5538
  123MOL    H8824732   6.262   2.115   7.392 -0.7720 -1.3687  0.3468
  123MOL    H8924733   6.401   2.186   7.459  0.0284 -0.9398 -2.0343
  123MOL    H9024734   6.282   1.911   7.501  0.6968 -0.9749  1.5021
  123MOL    H9124735   6.395   1.976   7.623 -1.4441 -2.1826  1.1174
  123MOL    O9224736   6.457   1.962   7.428  0.3183 -0.5656  0.0555
  123MOL    C9324737   6.529   1.842   7.453 -0.4625 -0.4340 -0.3934
  123MOL    C9424738   6.646   1.830   7.354  0.8553  0.2994  0.1636
  123MOL    C9524739   6.743   1.720   7.406  0.5641  0.4840  0.0659
  123MOL    H9624740   6.479   1.745   7.448  1.7728 -1.6165 -0.6915
  123MOL    H9724741   6.558   1.846   7.558  1.0029 -0.7000 -0.7799
  123MOL    H9824742   6.595   1.809   7.260  2.7854 -1.4945 -0.5120
  123MOL    H9924743   6.699   1.925   7.343 -0.2759  1.1858  2.0516
  123MOL   H10024744   6.698   1.622   7.424  1.1896  0.1776 -0.0567
  123MOL   H10124745   6.784   1.754   7.501  0.5443 -0.5771  0.4700
  123MOL   O10224746   6.858   1.691   7.325  0.1574  0.1061 -0.8271
  123MOL   C10324747   6.824   1.637   7.200  0.2727  0.3406  0.1790
  123MOL   C10424748   6.771   1.488   7.204 -0.6393 -0.2666 -0.2814
  123MOL   C10524749   6.759   1.423   7.058  0.7424 -0.3579 -0.3713
  123MOL   H10624750   6.904   1.644   7.127  1.0404 -1.0390  0.8718
  123MOL   H10724751   6.751   1.696   7.145  1.0151  1.0592 -0.0434
  123MOL   H10824752   6.851   1.434   7.256  0.1530 -1.0721 -2.2729
  123MOL   H10924753   6.680   1.479   7.262 -0.3347  0.5744  0.3315
  123MOL   H11024754   6.843   1.441   6.991  0.4757 -0.9774 -0.8769
  123MOL   H11124755   6.679   1.486   7.019 -0.5111  0.6652  3.5906
  123MOL   O11224756   6.720   1.282   7.069 -0.7223 -0.2408  0.0557
  123MOL   C11324757   6.671   1.226   6.953 -0.0666  0.1307  0.4681
  123MOL   C11424758   6.635   1.074   6.982 -0.4672  0.6146  0.0779
  123MOL   C11524759   6.614   0.987   6.860 -0.8240 -0.0754  0.1459
  123MOL   H11624760   6.753   1.225   6.882 -0.9390  1.8525 -0.5935
  123MOL   H11724761   6.593   1.283   6.903  0.0281  0.3098  0.5233
  123MOL   H11824762   6.720   1.035   7.038  0.2601 -0.7640 -1.9551
  123MOL   H11924763   6.546   1.065   7.044 -0.8405  0.7883 -0.4307
  123MOL   H12024764   6.585   0.892   6.903  0.6386 -1.2015 -1.2905
  123MOL   H12124765   6.712   0.965   6.815 -0.4053 -3.2015  2.4370
  123MOL   O12224766   6.516   1.043   6.768  0.0873  0.0119 -0.2236
  123MOL   C12324767   6.485   0.938   6.677  0.3347 -0.5923  0.1221
  123MOL   C12424768   6.387   0.994   6.570 -0.5200  0.6081  0.2605
  123MOL   C12524769   6.346   0.883   6.471  0.2169 -0.4115  0.0149
  123MOL   H12624770   6.449   0.859   6.743 -0.8078 -0.4671 -0.3488
  123MOL   H12724771   6.576   0.909   6.624  1.4229 -0.2679  1.7795
  123MOL   H12824772   6.301   1.044   6.614 -1.3949 -0.3096 -0.3983
  123MOL   H12924773   6.435   1.076   6.516  0.4492  0.5990  1.1011
  123MOL   H13024774   6.426   0.837   6.413  1.0216  2.1635 -1.0117
  123MOL   H13124775   6.281   0.932   6.398 -2.5381  0.9699  3.2683
  123MOL   O13224776   6.271   0.791   6.550 -0.3181 -0.1036 -0.0594
  123MOL   C13324777   6.239   0.676   6.475 -0.1098  0.0372  0.5925
  123MOL   C13424778   6.177   0.572   6.568 -0.1462 -0.1121  0.4820
  123MOL   C13524779   6.080   0.460   6.514 -0.4976 -0.6771  0.6488
  123MOL   H13624780   6.328   0.637   6.425  0.0048  1.2927 -0.2095
  123MOL   H13724781   6.161   0.691   6.401  0.8839 -0.1043 -0.4927
  123MOL   H13824782   6.256   0.526   6.628 -0.3225 -0.0130  0.7918
  123MOL   H13924783   6.125   0.636   6.640 -2.6461 -1.7087  0.1541
  123MOL   H14024784   6.136   0.388   6.454  1.5669  0.1939  1.4707
  123MOL   H14124785   6.004   0.500   6.446 -0.4181 -1.2408  0.2295
  123MOL   O14224786   6.013   0.398   6.618 -0.2569  0.6050 -0.0658
  123MOL   C14324787   5.956   0.271   6.584  0.1565  0.3555  0.1927
  123MOL   C14424788   5.921   0.202   6.720  0.1554 -0.5615  0.2727
  123MOL   C14524789   5.847   0.070   6.711 -0.1943  0.1473  0.0935
  123MOL   H14624790   6.026   0.211   6.525 -0.0856  0.5157 -0.2575
  123MOL   H14724791   5.864   0.286   6.528  0.2809  0.4301  0.0080
  123MOL   H14824792   6.003   0.180   6.789  0.2063  0.1432  0.4418
  123MOL   H14924793   5.853   0.272   6.769 -0.7082 -1.3500  0.2235
  123MOL   H15024794   5.915   0.003   6.659  1.8067  0.3208  2.4115
  123MOL   H15124795   5.760   0.079   6.646 -0.0994  0.6470  0.0363
  123MOL   O15224796   5.823   0.014   6.836  0.3597  0.7463 -0.2122
  123MOL   C15324797   5.744   7.689   6.824  0.4593 -0.5816  0.0822
  123MOL   C15424798   5.744   7.583   6.937 -0.0283  0.3881  0.1945
  123MOL   C15524799   5.658   7.464   6.892  0.0801  0.0820  0.1115
  123MOL   H15624800   5.764   7.643   6.728  1.9435  1.4860 -0.6410
  123MOL   H15724801   5.646   7.729   6.799  0.6102 -0.1017  0.2512
  123MOL   H15824802   5.844   7.546   6.961 -0.3033  0.2471  1.1548
  123MOL   H15924803   5.713   7.629   7.030 -0.3194  1.3995 -0.3959
  123MOL   H16024804   5.675   7.390   6.970  1.0709  0.3993  0.2175
  123MOL   H16124805   5.690   7.412   6.802  1.4507 -0.2736  0.7902
  123MOL   O16224806   5.522   7.505   6.876  0.1270 -0.0738 -0.0935
  123MOL   C16324807   5.436   7.417   6.803  0.4958  0.1775  0.0100
  123MOL   C16424808   5.296   7.465   6.837 -0.7099 -0.0060  0.0255
  123MOL   C16524809   5.184   7.369   6.788  0.1779  0.3290 -0.0364
  123MOL   H16624810   5.446   7.314   6.836 -1.8657  0.3263  1.3014
  123MOL   H16724811   5.455   7.433   6.697 -0.7926 -1.5966 -0.4989
  123MOL   H16824812   5.286   7.486   6.944  0.4254  1.3386 -0.1192
  123MOL   H16924813   5.291   7.568   6.804  2.0496 -0.4647 -2.0082
  123MOL   H17024814   5.196   7.269   6.831 -2.1078  0.6434  1.3820
  123MOL   H17124815   5.198   7.357   6.680 -1.7775  0.3508 -0.3025
  123MOL   O17224816   5.054   7.424   6.807 -1.1429 -0.1535 -0.0390
  123MOL   C17324817   4.955   7.351   6.739 -0.3033  0.2034  0.7875
  123MOL   C17424818   4.950   7.406   6.594  0.6410  0.8108 -0.1764
  123MOL   C17524819   4.824   7.380   6.512  0.2747 -0.0983 -0.0952
  123MOL   H17624820   4.854   7.367   6.776 -0.2463  0.2280  0.9335
  123MOL   H17724821   4.975   7.245   6.731  1.0648  0.5936 -1.5961
  123MOL   H17824822   4.962   7.513   6.609  2.4354  0.2527  2.6144
  123MOL   H17924823   5.039   7.374   6.540  1.7547  1.2051  1.3786
  123MOL   H18024824   4.741   7.424   6.566  1.6064  3.0402 -0.5034
  123MOL   H18124825   4.802   7.274   6.498 -0.4818  0.0046  0.3093
  123MOL   O18224826   4.826   7.441   6.384 -0.3272 -0.6443 -0.0350
  123MOL   C18324827   4.740   7.378   6.301  0.0975 -0.4540  0.4072
  123MOL   C18424828   4.816   7.265   6.236 -0.5631 -0.1588 -0.2015
  123MOL   C18524829   4.743   7.176   6.137  1.0084 -0.8739 -0.2024
  123MOL   H18624830   4.721   7.449   6.221 -1.7971  0.0706  1.2809
  123MOL   H18724831   4.650   7.342   6.351  1.8698 -1.7244  2.8158
  123MOL   H18824832   4.890   7.311   6.171 -0.7684 -2.4158 -2.1037
  123MOL   H18924833   4.862   7.198   6.308  0.8732  0.0772 -0.8697
  123MOL   H19024834   4.667   7.117   6.187 -1.6306  1.0332 -1.8437
  123MOL   H19124835   4.821   7.115   6.091  3.4257  2.0186 -0.1673
  123MOL   O19224836   4.692   7.247   6.023  0.1973  0.5795 -0.2939
  123MOL   C19324837   4.559   7.224   5.977  0.0753  0.2423 -0.3738
  123MOL   C19424838   4.438   7.264   6.067 -0.1119 -0.5386  0.0600
  123MOL   C19524839   4.402   7.414   6.045  0.6669 -0.8189 -0.5471
  123MOL   H19624840   4.560   7.119   5.949 -5.3728 -0.0489  0.0470
  123MOL   H19724841   4.541   7.270   5.880 -2.3596 -1.3365 -0.7196
  123MOL   H19824842   4.346   7.209   6.044 -1.4743  1.3819  0.7670
  123MOL   H19924843   4.456   7.239   6.171  0.8079 -0.5524 -0.0996
  123MOL   H20024844   4.377   7.426   5.940 -1.6902  1.5793  0.2428
  123MOL   H20124845   4.488   7.471   6.080  0.1489  0.9823 -2.1491
  123MOL   H20224846   4.314   7.439   6.104  2.3220  2.8395  0.4869
  124MOL     O124847   2.132   2.296   3.651 -0.3351 -0.2296  0.0764
  124MOL     C224848   2.153   2.370   3.768 -0.0204  0.3367 -0.1598
  124MOL     C324849   2.232   2.296   3.868 -0.1049  0.2396 -0.7449
  124MOL     C424850   2.227   2.364   4.001  0.2656 -0.6527  0.3891
  124MOL     H524851   2.056   2.395   3.809  0.7865  1.6373  0.9985
  124MOL     H624852   2.203   2.466   3.749 -0.9555  0.6250 -1.2440
  124MOL     H724853   2.192   2.196   3.878  0.8769  0.1344  2.6849
  124MOL     H824854   2.327   2.270   3.821  0.0860 -2.2257  0.9336
  124MOL     H924855   2.127   2.377   4.043 -0.5126  2.5008 -2.2028
  124MOL    H1024856   2.273   2.462   4.000  0.8917 -0.9425 -0.5409
  124MOL    H1124857   2.206   2.293   3.592  0.6183 -0.1504  1.2371
  124MOL    O1224858   2.301   2.277   4.091 -0.0148  0.3423  0.0987
  124MOL    C1324859   2.305   2.321   4.227  0.2307  0.3932 -0.0568
  124MOL    C1424860   2.424   2.255   4.306 -0.6196 -0.2601  0.0352
  124MOL    C1524861   2.449   2.318   4.444 -0.2941  0.6006  0.2359
  124MOL    H1624862   2.205   2.299   4.264 -0.1869  0.2161 -1.2431
  124MOL    H1724863   2.319   2.429   4.233  1.5606  0.2695 -0.7409
  124MOL    H1824864   2.404   2.148   4.303 -0.5784 -0.2717  0.2278
  124MOL    H1924865   2.510   2.262   4.239  0.0417 -0.6432  0.8443
  124MOL    H2024866   2.365   2.298   4.512 -0.3865  1.3304  0.3397
  124MOL    H2124867   2.464   2.424   4.422 -0.5865 -0.1394 -3.7420
  124MOL    O2224868   2.560   2.262   4.509 -0.6000 -0.2302  0.1320
  124MOL    C2324869   2.609   2.337   4.618  0.4632 -0.1978 -0.0519
  124MOL    C2424870   2.735   2.273   4.666 -0.0583 -0.6961 -0.3452
  124MOL    C2524871   2.801   2.361   4.779  0.1845  0.6627 -0.5788
  124MOL    H2624872   2.541   2.326   4.703 -1.1853 -3.0192 -1.6481
  124MOL    H2724873   2.627   2.443   4.599 -0.4759  0.3899  2.1046
  124MOL    H2824874   2.698   2.177   4.703 -0.1375  0.0183  1.4360
  124MOL    H2924875   2.802   2.266   4.580  1.1167 -0.5461  0.5557
  124MOL    H3024876   2.731   2.343   4.861 -1.2007  0.5679 -1.7667
  124MOL    H3124877   2.796   2.470   4.771  0.3235  0.8391  1.3485
  124MOL    O3224878   2.936   2.321   4.796  0.1973 -0.4678 -0.2672
  124MOL    C3324879   3.022   2.437   4.816  0.7541 -0.5677 -0.2038
  124MOL    C3424880   3.172   2.409   4.775  0.0806 -0.4738 -0.8857
  124MOL    C3524881   3.256   2.541   4.766  0.5480  0.0998  0.1673
  124MOL    H3624882   3.026   2.461   4.922  0.6180  3.2465 -1.0026
  124MOL    H3724883   2.995   2.522   4.753 -1.3404 -1.2370 -0.2328
  124MOL    H3824884   3.218   2.329   4.833  0.0184  1.0803  1.3776
  124MOL    H3924885   3.169   2.360   4.677  1.6557 -0.8070 -0.7832
  124MOL    H4024886   3.201   2.622   4.719 -1.8350 -0.7233  1.4719
  124MOL    H4124887   3.348   2.523   4.710  1.2614  2.1288  0.6509
  124MOL    O4224888   3.293   2.569   4.898 -0.3096  0.1466 -0.7072
  124MOL    C4324889   3.318   2.699   4.923 -0.2445 -0.1874 -0.3334
  124MOL    C4424890   3.287   2.730   5.075 -0.6074  0.1814  0.0779
  124MOL    C4524891   3.139   2.741   5.102  0.2338 -0.4240 -0.5694
  124MOL    H4624892   3.278   2.778   4.859  3.2898  1.0579 -1.1046
  124MOL    H4724893   3.420   2.717   4.890 -0.1428 -1.1343 -0.5424
  124MOL    H4824894   3.336   2.653   5.135 -1.2735  0.4142  0.9397
  124MOL    H4924895   3.338   2.824   5.093 -1.1488  0.3223  0.8911
  124MOL    H5024896   3.123   2.704   5.203  0.6593 -0.9955 -0.7095
  124MOL    H5124897   3.098   2.667   5.034  0.0479 -1.0247  0.1965
  124MOL    O5224898   3.088   2.875   5.086  0.2002 -0.5359  0.1546
  124MOL    C5324899   2.955   2.887   5.032 -0.3615 -0.1052 -0.4793
  124MOL    C5424900   2.958   2.908   4.879  0.0785  0.0982  0.2373
  124MOL    C5524901   2.825   2.968   4.829  0.0611 -0.0455 -0.2113
  124MOL    H5624902   2.913   2.970   5.089  1.1726 -0.2295  0.8771
  124MOL    H5724903   2.895   2.799   5.059  1.0091 -1.1499 -0.7648
  124MOL    H5824904   3.025   2.991   4.857 -0.6830  0.7710  0.4076
  124MOL    H5924905   2.994   2.819   4.827  1.6332  0.5798  0.4530
  124MOL    H6024906   2.797   3.056   4.887 -1.6811  0.0391 -1.1639
  124MOL    H6124907   2.747   2.898   4.859  1.6316 -1.5712  0.3901
  124MOL    O6224908   2.835   2.984   4.690  0.0355 -0.0150  0.2514
  124MOL    C6324909   2.724   3.049   4.636  0.9103 -0.1403 -0.3551
  124MOL    C6424910   2.770   3.103   4.497  0.2615 -0.6848  0.4052
  124MOL    C6524911   2.700   3.230   4.455 -0.8022  0.0528  0.7399
  124MOL    H6624912   2.692   3.135   4.696  1.2594 -0.8442  0.8403
  124MOL    H6724913   2.647   2.974   4.622  0.7744 -0.2195  0.7276
  124MOL    H6824914   2.872   3.138   4.516  0.9221 -2.3105 -0.0476
  124MOL    H6924915   2.764   3.027   4.419 -0.5709 -1.6854  1.4418
  124MOL    H7024916   2.736   3.306   4.524 -0.4081  1.0618 -0.5448
  124MOL    H7124917   2.594   3.216   4.475 -0.5191 -2.9063  0.4886
  124MOL    O7224918   2.719   3.245   4.314 -0.1492 -0.1642 -0.0329
  124MOL    C7324919   2.690   3.367   4.253 -0.0382 -0.3783  0.5320
  124MOL    C7424920   2.537   3.386   4.233 -0.2657  0.7995 -0.2463
  124MOL    C7524921   2.507   3.508   4.145  0.4342  0.3974 -0.0563
  124MOL    H7624922   2.736   3.354   4.155  2.2391 -0.1538  1.5436
  124MOL    H7724923   2.742   3.451   4.299 -0.5879 -0.2151  0.8590
  124MOL    H7824924   2.485   3.300   4.191  3.3681 -0.7782 -1.6978
  124MOL    H7924925   2.481   3.394   4.327 -1.2023  0.0729 -0.7322
  124MOL    H8024926   2.590   3.526   4.076  1.2483 -1.2021  0.4717
  124MOL    H8124927   2.491   3.595   4.208 -1.6527  0.8010 -1.1016
  124MOL    O8224928   2.387   3.497   4.080  0.1494  0.5965  0.2508
  124MOL    C8324929   2.267   3.485   4.153  0.3006  0.2075 -0.8650
  124MOL    C8424930   2.157   3.420   4.066  0.0991 -0.3180  1.2932
  124MOL    C8524931   2.087   3.504   3.965  0.5973 -0.4135 -0.2383
  124MOL    H8624932   2.240   3.579   4.200  2.4825  0.3328  0.2327
  124MOL    H8724933   2.284   3.415   4.236 -2.0334  0.1828 -0.3717
  124MOL    H8824934   2.197   3.331   4.018 -0.7750  0.0132 -0.0752
  124MOL    H8924935   2.083   3.380   4.135 -1.4929 -0.3557 -0.3912
  124MOL    H9024936   2.156   3.541   3.889  0.8755  1.4852  0.9016
  124MOL    H9124937   2.039   3.590   4.012  0.6336 -0.1889 -0.6117
  124MOL    O9224938   1.982   3.413   3.909  0.0345 -0.0216 -0.7143
  124MOL    C9324939   1.882   3.481   3.836  0.2313  0.9920  1.1419
  124MOL    C9424940   1.764   3.381   3.818 -0.1317 -0.1367 -0.5009
  124MOL    C9524941   1.671   3.416   3.704  0.0781  0.5118  0.0941
  124MOL    H9624942   1.913   3.503   3.733 -1.2603 -1.7619  0.0406
  124MOL    H9724943   1.847   3.571   3.887 -0.7340  1.6989 -0.6799
  124MOL    H9824944   1.817   3.289   3.793  0.7681  0.2723 -0.1124
  124MOL    H9924945   1.714   3.365   3.914  4.0942 -0.2682  1.7666
  124MOL   H10024946   1.625   3.515   3.713 -0.3763  0.2982  0.1315
  124MOL   H10124947   1.595   3.338   3.705 -0.4876  0.9981 -2.2686
  124MOL   O10224948   1.729   3.424   3.577  0.1149 -0.5157  0.5607
  124MOL   C10324949   1.638   3.440   3.471 -0.1104 -0.4048 -0.1055
  124MOL   C10424950   1.724   3.457   3.344  0.0079  0.0220  0.6442
  124MOL   C10524951   1.654   3.528   3.229  0.3534 -0.5084 -0.4369
  124MOL   H10624952   1.572   3.526   3.485  1.1100  0.6560 -0.7138
  124MOL   H10724953   1.575   3.351   3.472 -1.7058  0.7012  1.0972
  124MOL   H10824954   1.811   3.519   3.370 -1.1840  2.8784 -1.8688
  124MOL   H10924955   1.758   3.359   3.311 -1.7914 -0.3338 -0.2141
  124MOL   H11024956   1.553   3.488   3.211  0.6551 -0.5102 -2.2571
  124MOL   H11124957   1.721   3.509   3.145 -2.0685  0.3826 -2.6707
  124MOL   O11224958   1.661   3.669   3.241 -0.5496 -0.4564  0.2251
  124MOL   C11324959   1.609   3.741   3.134  0.5273 -0.3635  0.0145
  124MOL   C11424960   1.665   3.882   3.130  0.4343  0.0403  0.2557
  124MOL   C11524961   1.628   3.956   3.002 -0.2028 -0.1668 -0.2414
  124MOL   H11624962   1.502   3.745   3.114  1.0364 -1.0177 -3.0174
  124MOL   H11724963   1.644   3.693   3.043 -1.2921 -1.5410 -0.1031
  124MOL   H11824964   1.618   3.935   3.213  1.4243 -0.9993  1.4855
  124MOL   H11924965   1.774   3.889   3.136  0.3465  0.4017  1.3867
  124MOL   H12024966   1.524   3.933   2.978 -0.7758  0.3952  1.5909
  124MOL   H12124967   1.690   3.912   2.924 -0.2922  0.0068 -0.4119
  124MOL   O12224968   1.650   4.099   3.008 -0.3938  1.0943 -0.3186
  124MOL   C12324969   1.675   4.161   2.880  0.3362  0.3851 -0.1078
  124MOL   C12424970   1.670   4.319   2.910  0.0764  0.7733  0.2380
  124MOL   C12524971   1.734   4.394   2.786 -0.3481 -0.0987  0.1631
  124MOL   H12624972   1.593   4.134   2.815  0.4857 -1.9150  0.6323
  124MOL   H12724973   1.765   4.121   2.833 -0.3565 -1.4162  0.0696
  124MOL   H12824974   1.571   4.358   2.933  0.5165  0.8000  2.1247
  124MOL   H12924975   1.718   4.344   3.005  0.0270 -1.3850  0.8476
  124MOL   H13024976   1.687   4.363   2.693 -1.5163 -0.6029  0.8968
  124MOL   H13124977   1.839   4.370   2.772 -0.2760 -0.5079  1.3276
  124MOL   O13224978   1.739   4.534   2.795  0.8887  0.2425 -0.0427
  124MOL   C13324979   1.838   4.585   2.888  0.3715  1.0321  0.5946
  124MOL   C13424980   1.839   4.737   2.902  0.1453 -0.0701  0.5988
  124MOL   C13524981   1.880   4.778   3.047  0.4734 -0.5955 -0.2604
  124MOL   H13624982   1.938   4.559   2.852  0.1113 -1.6940  1.6820
  124MOL   H13724983   1.829   4.532   2.983 -0.4681 -0.1862 -0.1434
  124MOL   H13824984   1.905   4.778   2.826  0.3110 -2.7774 -0.7671
  124MOL   H13924985   1.741   4.773   2.874 -0.2936 -1.6343  0.1063
  124MOL   H14024986   1.966   4.725   3.087  1.7825  0.6376 -1.3576
  124MOL   H14124987   1.803   4.753   3.120 -0.3062  0.1228 -0.8273
  124MOL   O14224988   1.918   4.920   3.064 -0.1726  0.0429  0.2612
  124MOL   C14324989   1.813   5.014   3.056  0.3606 -0.9669 -0.2489
  124MOL   C14424990   1.885   5.152   3.064 -0.4953  0.1447 -0.0874
  124MOL   C14524991   1.931   5.204   3.198 -0.8292  0.1919 -0.4853
  124MOL   H14624992   1.741   5.002   3.137  0.9202 -1.7414  0.1489
  124MOL   H14724993   1.760   4.998   2.963  1.2992 -2.5218 -0.5416
  124MOL   H14824994   1.948   5.148   2.975 -1.9175  0.9420 -1.1732
  124MOL   H14924995   1.824   5.237   3.032  1.4695  0.9773 -1.7833
  124MOL   H15024996   2.000   5.286   3.182  0.1270 -0.4599  0.2735
  124MOL   H15124997   1.970   5.119   3.255 -1.1295  0.1559 -0.3302
  124MOL   O15224998   1.825   5.252   3.273 -0.2403 -0.1899  0.7304
  124MOL   C15324999   1.867   5.319   3.384  0.3477 -0.9382 -0.3593
  124MOL   C15425000   1.739   5.340   3.467 -0.4763  0.5468 -0.2483
  124MOL   C15525001   1.757   5.406   3.603  0.2126 -1.5884  0.1042
  124MOL   H15625002   1.919   5.412   3.363  0.4806 -1.3215 -1.7612
  124MOL   H15725003   1.941   5.264   3.441  1.9343  1.5075  0.0020
  124MOL   H15825004   1.685   5.419   3.415 -0.0486  1.8775  1.2751
  124MOL   H15925005   1.675   5.253   3.482  0.5916  0.0594  1.7897
  124MOL   H16025006   1.665   5.443   3.648  0.8450  0.9369 -0.6088
  124MOL   H16125007   1.817   5.495   3.584  0.4648 -1.5856  0.8998
  124MOL   O16225008   1.818   5.330   3.708 -0.1223 -0.6635 -0.0628
  124MOL   C16325009   1.846   5.397   3.832  0.0806  0.0773 -0.1194
  124MOL   C16425010   1.925   5.301   3.919 -0.6290 -0.4322 -0.0155
  124MOL   C16525011   1.848   5.174   3.960 -0.1583 -0.2374  0.2849
  124MOL   H16625012   1.757   5.430   3.886  1.2557 -1.0288  2.5760
  124MOL   H16725013   1.900   5.489   3.813  2.5405 -1.6307 -1.6923
  124MOL   H16825014   2.018   5.278   3.868 -1.4184 -0.6279 -1.3750
  124MOL   H16925015   1.957   5.350   4.011  1.2893 -1.8543  0.1088
  124MOL   H17025016   1.804   5.122   3.875  1.7715 -0.9729 -0.2801
  124MOL   H17125017   1.763   5.197   4.024 -0.9907  1.6337 -1.4599
  124MOL   O17225018   1.940   5.097   4.027  0.1103  0.0741 -0.1893
  124MOL   C17325019   1.899   4.966   4.047  0.9045  0.2256  0.1580
  124MOL   C17425020   1.941   4.865   3.937 -0.4154  0.6789  1.0229
  124MOL   C17525021   1.851   4.737   3.943  0.2668 -0.5142  0.1774
  124MOL   H17625022   1.795   4.950   4.075  0.9591 -1.7538 -0.6746
  124MOL   H17725023   1.958   4.919   4.126 -0.4328  0.5032  1.3343
  124MOL   H17825024   1.925   4.913   3.840  0.4344  1.0519  1.0564
  124MOL   H17925025   2.046   4.837   3.944 -0.1300  2.1133  2.9774
  124MOL   H18025026   1.751   4.780   3.957  0.1866 -0.5686 -0.2413
  124MOL   H18125027   1.878   4.679   4.031 -1.8539  0.0153  1.2229
  124MOL   O18225028   1.875   4.667   3.827 -0.5988 -0.5799  0.2830
  124MOL   C18325029   1.796   4.546   3.822  0.0849  0.2188 -0.2167
  124MOL   C18425030   1.837   4.452   3.706 -0.1699  0.3302 -0.5617
  124MOL   C18525031   1.728   4.362   3.659  0.0882 -0.2959 -0.2165
  124MOL   H18625032   1.691   4.572   3.822  0.0510  0.0939  1.3084
  124MOL   H18725033   1.814   4.497   3.917 -0.3745  0.2714 -0.1046
  124MOL   H18825034   1.884   4.503   3.623  1.0345  0.7863  0.3915
  124MOL   H18925035   1.921   4.387   3.733 -1.2807 -0.6111  0.7159
  124MOL   H19025036   1.628   4.403   3.664  1.4734  3.0979  1.4443
  124MOL   H19125037   1.731   4.269   3.716  0.1870 -0.3080 -0.2404
  124MOL   O19225038   1.754   4.333   3.516  0.0260  0.3626  0.2843
  124MOL   C19325039   1.648   4.261   3.441 -0.1542 -0.0106  0.2604
  124MOL   C19425040   1.697   4.235   3.296 -0.3952 -0.5391  0.2506
  124MOL   C19525041   1.835   4.165   3.289 -0.3505 -0.7416 -0.5475
  124MOL   H19625042   1.554   4.314   3.436 -0.8281 -1.3183 -1.4457
  124MOL   H19725043   1.635   4.160   3.482  0.9734 -0.5264 -0.6287
  124MOL   H19825044   1.626   4.176   3.240 -0.2890  0.1169 -0.5839
  124MOL   H19925045   1.704   4.334   3.251 -1.9657 -0.7498 -0.4909
  124MOL   H20025046   1.864   4.124   3.192 -0.7516 -1.2986 -0.4299
  124MOL   H20125047   1.840   4.083   3.360 -2.9238 -1.2559 -0.9085
  124MOL   H20225048   1.920   4.230   3.314 -0.2633 -1.4284  1.0100
  125MOL     O125049   7.313   0.798   4.727  0.0362 -0.0759 -0.5608
  125MOL     C225050   7.336   0.669   4.689 -0.1540  0.8777  0.4909
  125MOL     C325051   7.466   0.626   4.755 -0.6858 -0.0513  0.8137
  125MOL     C425052   7.496   0.473   4.743 -0.6816  0.2067 -0.7079
  125MOL     H525053   7.347   0.664   4.581 -3.7117  2.4923 -0.0178
  125MOL     H625054   7.259   0.595   4.712 -0.3312  1.3374  1.4197
  125MOL     H725055   7.547   0.685   4.712 -0.7293 -1.1940 -0.8427
  125MOL     H825056   7.474   0.642   4.863 -0.5652  0.0289  0.7926
  125MOL     H925057   7.425   0.413   4.801  1.2934 -1.3930  0.1299
  125MOL    H1025058   7.601   0.455   4.767 -0.4465  1.4692 -0.7648
  125MOL    H1125059   7.279   0.851   4.655  0.0020  0.4162 -0.1880
  125MOL    O1225060   7.468   0.431   4.604  0.5112  0.4426 -0.2069
  125MOL    C1325061   7.492   0.292   4.592  0.9379  0.2933 -0.7175
  125MOL    C1425062   7.515   0.263   4.439 -0.2668  0.1703 -0.1409
  125MOL    C1525063   7.636   0.335   4.381 -0.8052 -0.3336 -0.2750
  125MOL    H1625064   7.409   0.228   4.620  1.3712 -0.2837 -0.7576
  125MOL    H1725065   7.577   0.248   4.644 -0.3271 -0.8553  0.3953
  125MOL    H1825066   7.533   0.157   4.421  1.3392 -0.2501  3.5068
  125MOL    H1925067   7.433   0.311   4.386 -0.6385 -1.2943 -0.9262
  125MOL    H2025068   7.715   0.292   4.443 -0.0780  3.8327  1.8082
  125MOL    H2125069   7.634   0.443   4.393 -0.0102 -0.1872 -1.4327
  125MOL    O2225070   7.655   0.301   4.247 -0.3936 -0.7330  0.4805
  125MOL    C2325071   7.581   0.367   4.142  0.2461 -0.3819  0.4373
  125MOL    C2425072   7.638   0.330   4.002  0.0843  0.2057 -0.8870
  125MOL    C2525073   7.773   0.408   3.978  0.7912 -0.2861  0.2521
  125MOL    H2625074   7.583   0.475   4.157  0.9454 -0.3252 -0.0370
  125MOL    H2725075   7.474   0.346   4.151 -0.4461  2.5544 -0.5053
  125MOL    H2825076   7.628   0.226   3.971 -1.7770  0.1237 -0.0860
  125MOL    H2925077   7.563   0.364   3.930  0.1402  1.4543 -0.3653
  125MOL    H3025078   0.050   0.398   4.065  1.3486 -0.9400 -0.2371
  125MOL    H3125079   7.749   0.513   3.959  2.2409  0.1869  0.9499
  125MOL    O3225080   0.037   0.347   3.863  0.1910  0.4757 -0.1134
  125MOL    C3325081   0.154   0.417   3.832  0.2371  0.1194  0.7318
  125MOL    C3425082   0.277   0.333   3.865 -0.4106 -0.3087  0.2752
  125MOL    C3525083   0.412   0.388   3.822  0.4258  0.1926 -0.2277
  125MOL    H3625084   0.174   0.508   3.887  2.5840  0.2390 -0.2240
  125MOL    H3725085   0.158   0.444   3.726  0.7232  0.1686  0.7626
  125MOL    H3825086   0.275   0.329   3.974 -1.7041 -0.9410  0.2456
  125MOL    H3925087   0.261   0.230   3.834  2.6039 -0.8036  0.2840
  125MOL    H4025088   0.432   0.488   3.861  0.5173  1.0716 -2.4703
  125MOL    H4125089   0.421   0.393   3.714  0.0567 -4.4992 -0.5941
  125MOL    O4225090   0.516   0.300   3.877  0.4843 -0.5200  0.5634
  125MOL    C4325091   0.641   0.360   3.874 -1.1379 -0.3586 -0.3721
  125MOL    C4425092   0.752   0.260   3.894 -0.1203  0.1684  0.2727
  125MOL    C4525093   0.889   0.322   3.897  0.0657 -1.1748  0.7149
  125MOL    H4625094   0.638   0.442   3.946  1.7086 -0.5722  0.0404
  125MOL    H4725095   0.657   0.406   3.777  2.6579 -0.6729  0.0272
  125MOL    H4825096   0.748   0.215   3.993 -0.8722 -2.1097 -0.7630
  125MOL    H4925097   0.755   0.191   3.810  0.5592  1.9531 -1.2250
  125MOL    H5025098   0.974   0.273   3.944  1.2310  1.1921  1.1958
  125MOL    H5125099   0.874   0.408   3.964  3.3513  1.4774 -1.7524
  125MOL    O5225100   0.919   0.378   3.770  0.2269 -0.4428  0.4553
  125MOL    C5325101   1.031   0.459   3.769  0.4379  0.0805  0.2412
  125MOL    C5425102   1.047   0.532   3.636 -0.5369  0.3739 -0.3323
  125MOL    C5525103   0.919   0.598   3.584 -0.4129 -0.1716 -0.0707
  125MOL    H5625104   1.122   0.402   3.788  1.0843  0.9851 -0.0753
  125MOL    H5725105   1.031   0.537   3.846 -2.1715 -1.0340  1.4219
  125MOL    H5825106   1.127   0.606   3.639 -0.1799  0.0543 -1.5735
  125MOL    H5925107   1.087   0.466   3.559 -1.2813  0.8289 -1.1184
  125MOL    H6025108   0.867   0.640   3.670  2.7004 -2.0575  2.8866
  125MOL    H6125109   0.861   0.521   3.533  0.4462  0.8106 -2.6045
  125MOL    O6225110   0.942   0.694   3.481 -0.0944  0.2679  0.0905
  125MOL    C6325111   0.842   0.796   3.480  0.4306 -0.8692 -0.0784
  125MOL    C6425112   0.869   0.909   3.377  0.2261 -0.5869 -0.0729
  125MOL    C6525113   0.783   1.026   3.406 -0.1670  0.7246 -0.3379
  125MOL    H6625114   0.820   0.850   3.572  1.0317 -1.7699  0.5978
  125MOL    H6725115   0.752   0.741   3.453 -0.4299  1.9960 -3.5072
  125MOL    H6825116   0.975   0.936   3.381 -0.1523  0.8716  0.5211
  125MOL    H6925117   0.855   0.873   3.275  0.1526  0.9842 -0.6402
  125MOL    H7025118   0.807   1.080   3.497  1.2206  1.1404 -0.9400
  125MOL    H7125119   0.685   0.980   3.423  0.2478 -0.7424 -1.7429
  125MOL    O7225120   0.765   1.113   3.289 -0.2729 -0.4301  0.3136
  125MOL    C7325121   0.659   1.198   3.301  0.6916  0.5487 -0.0135
  125MOL    C7425122   0.651   1.294   3.178 -0.1672 -0.0864 -0.0497
  125MOL    C7525123   0.536   1.395   3.199 -0.0342 -0.4958 -0.5743
  125MOL    H7625124   0.666   1.255   3.394 -2.9416  1.8625 -0.4664
  125MOL    H7725125   0.571   1.134   3.302 -0.2818  1.8725  1.1376
  125MOL    H7825126   0.751   1.333   3.160 -0.9664  2.0618  0.0888
  125MOL    H7925127   0.625   1.233   3.091 -3.7692  2.2347 -0.7007
  125MOL    H8025128   0.525   1.460   3.112  0.0712 -1.4486 -1.3099
  125MOL    H8125129   0.559   1.461   3.282 -1.9787  0.2545 -0.6131
  125MOL    O8225130   0.412   1.329   3.227 -0.0179  0.1193 -0.0137
  125MOL    C8325131   0.294   1.417   3.242  0.2148  0.3657  0.0036
  125MOL    C8425132   0.313   1.523   3.345 -0.0589  0.5951  0.6222
  125MOL    C8525133   0.193   1.617   3.362 -0.3506  0.2157 -0.0639
  125MOL    H8625134   0.210   1.353   3.272  0.1672 -0.8101 -2.4981
  125MOL    H8725135   0.271   1.459   3.144  2.3640 -1.7690 -1.4738
  125MOL    H8825136   0.327   1.472   3.440  2.8945 -0.8560 -0.5315
  125MOL    H8925137   0.406   1.581   3.349 -0.1234  1.0026 -2.7270
  125MOL    H9025138   0.160   1.655   3.266 -1.7738 -1.9475 -0.4757
  125MOL    H9125139   0.215   1.711   3.413  2.0126 -1.3652  1.9470
  125MOL    O9225140   0.070   1.552   3.406  0.2220  0.2102 -0.3035
  125MOL    C9325141   0.072   1.539   3.545 -0.4565 -0.1333  0.0750
  125MOL    C9425142   7.715   1.521   3.594  0.1407 -0.4396  0.8471
  125MOL    C9525143   7.657   1.382   3.557 -0.6158  0.4098  0.6125
  125MOL    H9625144   0.116   1.629   3.589 -2.4363  0.7798  0.2400
  125MOL    H9725145   0.136   1.458   3.578  1.2701  1.4504  0.6890
  125MOL    H9825146   7.708   1.522   3.702 -1.1707 -0.3023  0.7707
  125MOL    H9925147   7.645   1.597   3.559  0.3058 -1.0277 -0.8316
  125MOL   H10025148   7.700   1.294   3.605 -0.8622  1.3907  2.7099
  125MOL   H10125149   7.682   1.367   3.452 -1.3046 -1.8942  0.7492
  125MOL   O10225150   7.516   1.372   3.570 -0.3095  0.1343  0.6321
  125MOL   C10325151   7.472   1.237   3.533  0.2358  0.7810 -0.2048
  125MOL   C10425152   7.320   1.219   3.559 -0.2495 -0.0628  0.3783
  125MOL   C10525153   7.279   1.086   3.507 -0.5180  0.4394  0.4388
  125MOL   H10625154   7.535   1.158   3.574 -1.3158 -0.7288 -0.6849
  125MOL   H10725155   7.490   1.222   3.427 -3.0866 -0.5761 -0.6249
  125MOL   H10825156   7.293   1.232   3.664  0.5451  1.3812  0.4115
  125MOL   H10925157   7.263   1.281   3.490 -0.7147  1.4280  2.0793
  125MOL   H11025158   7.337   1.014   3.564  0.3394 -1.0642 -2.2112
  125MOL   H11125159   7.295   1.066   3.401  3.7534  2.3730  0.6142
  125MOL   O11225160   7.153   1.045   3.553  0.5143  0.3048  0.1035
  125MOL   C11325161   7.121   0.901   3.524 -0.6087  0.7748 -0.8196
  125MOL   C11425162   7.067   0.872   3.377 -0.0790  0.5660  0.0950
  125MOL   C11525163   7.009   0.732   3.370  0.2556  0.5379  0.8899
  125MOL   H11625164   7.049   0.881   3.603  1.0117  1.2689  0.8312
  125MOL   H11725165   7.192   0.827   3.563 -0.7246  1.5528  0.9288
  125MOL   H11825166   6.998   0.955   3.360 -0.8851  0.1552  1.2934
  125MOL   H11925167   7.153   0.886   3.311  0.5781  0.9011  1.0070
  125MOL   H12025168   6.913   0.719   3.421  0.5791 -0.0481  1.3497
  125MOL   H12125169   7.087   0.675   3.419  0.2084  1.0221  1.5341
  125MOL   O12225170   7.000   0.680   3.235  0.0589 -0.2801  0.6624
  125MOL   C12325171   6.988   0.543   3.220 -0.1896 -0.2364  0.7104
  125MOL   C12425172   7.009   0.521   3.071  0.6158 -0.0182  0.5745
  125MOL   C12525173   6.887   0.564   2.983 -0.1697  0.7625  0.0755
  125MOL   H12625174   6.896   0.507   3.266 -0.5817  0.0975  0.1955
  125MOL   H12725175   7.068   0.494   3.275  1.5268  1.4391 -0.2273
  125MOL   H12825176   7.106   0.563   3.044  1.0354 -2.0440 -1.1812
  125MOL   H12925177   7.040   0.418   3.051  2.0180  0.6451 -0.7361
  125MOL   H13025178   6.861   0.669   2.990  0.1635  0.7905  0.9725
  125MOL   H13125179   6.802   0.523   3.038 -0.4217  2.6158  1.0859
  125MOL   O13225180   6.871   0.507   2.852 -0.3043  0.0118  0.0482
  125MOL   C13325181   6.924   0.573   2.737  0.3499 -0.3732 -0.9128
  125MOL   C13425182   6.877   0.494   2.615  0.9788  0.2994 -0.0062
  125MOL   C13525183   6.917   0.556   2.479 -0.2810  0.2061 -0.3643
  125MOL   H13625184   7.031   0.595   2.740  0.4579 -1.0254  1.1283
  125MOL   H13725185   6.877   0.671   2.735  2.4017  0.6269 -2.4976
  125MOL   H13825186   6.900   0.389   2.636 -2.3626 -0.4612  0.2332
  125MOL   H13925187   6.768   0.496   2.610  0.9442 -2.5505 -1.4544
  125MOL   H14025188   7.024   0.572   2.466 -0.4893  0.7683 -1.4226
  125MOL   H14125189   6.867   0.653   2.484 -1.4019 -0.4201  0.8510
  125MOL   O14225190   6.883   0.460   2.383  0.0899  0.1824 -0.3304
  125MOL   C14325191   6.883   0.513   2.252 -0.0110 -0.4710  1.0333
  125MOL   C14425192   6.839   0.402   2.163 -0.0462 -0.5542 -0.2841
  125MOL   C14525193   6.811   0.447   2.014  0.5631 -0.0520 -0.6042
  125MOL   H14625194   6.978   0.553   2.216  0.2090 -1.0646  0.9576
  125MOL   H14725195   6.819   0.601   2.246  1.1343  0.4789  2.5300
  125MOL   H14825196   6.913   0.323   2.179  0.2448  0.2021  2.3107
  125MOL   H14925197   6.744   0.372   2.207  1.2453 -0.6005  2.5344
  125MOL   H15025198   6.751   0.539   2.019 -0.4949 -0.8346  2.2118
  125MOL   H15125199   6.741   0.376   1.972  1.3030 -0.7974 -0.5763
  125MOL   O15225200   6.926   0.457   1.934 -0.0120  0.1693 -0.4810
  125MOL   C15325201   6.902   0.509   1.806 -0.3823 -0.2598  0.3925
  125MOL   C15425202   7.016   0.492   1.713  0.0752 -0.3387 -0.7245
  125MOL   C15525203   7.009   0.581   1.594 -0.0858 -0.3276 -0.3883
  125MOL   H15625204   6.875   0.613   1.820  2.0537  0.3278  0.8617
  125MOL   H15725205   6.817   0.458   1.760  0.3860 -2.4887  1.3659
  125MOL   H15825206   7.112   0.500   1.762  0.2065 -2.1726 -0.6313
  125MOL   H15925207   7.028   0.390   1.676 -1.2378 -0.3356 -1.1885
  125MOL   H16025208   6.912   0.563   1.548  0.7462 -1.2413 -1.8301
  125MOL   H16125209   7.075   0.558   1.510  1.7629 -0.1186  0.9865
  125MOL   O16225210   7.028   0.716   1.641  0.4895  0.0392 -0.1643
  125MOL   C16325211   7.041   0.810   1.540  0.0283 -0.1702 -0.4769
  125MOL   C16425212   7.072   0.952   1.586  0.7327 -0.3536 -0.7553
  125MOL   C16525213   7.051   1.052   1.470 -0.8402 -0.2183 -0.6948
  125MOL   H16625214   6.954   0.822   1.475 -0.0629 -0.2850 -0.3768
  125MOL   H16725215   7.126   0.770   1.485 -0.1791 -0.8372 -0.3079
  125MOL   H16825216   7.011   0.978   1.673  1.7889  3.1952 -0.9996
  125MOL   H16925217   7.172   0.962   1.628  0.3648  2.5217 -0.4435
  125MOL   H17025218   7.093   1.006   1.381  0.4870  0.8502 -0.6304
  125MOL   H17125219   7.114   1.139   1.491  0.8004 -1.7953  1.1189
  125MOL   O17225220   6.914   1.078   1.453  0.0034 -0.1921  0.4443
  125MOL   C17325221   6.861   1.183   1.538  0.6538 -0.3097 -0.3982
  125MOL   C17425222   6.714   1.227   1.499 -0.9339 -0.6965 -0.2463
  125MOL   C17525223   6.655   1.327   1.596  0.3407 -0.1713  0.6399
  125MOL   H17625224   6.911   1.279   1.520 -2.0432  1.2843  0.3428
  125MOL   H17725225   6.871   1.158   1.643 -3.1925 -5.0773 -1.0316
  125MOL   H17825226   6.720   1.269   1.399  0.8665  0.2289  0.2230
  125MOL   H17925227   6.654   1.136   1.493  0.9084 -1.9691  0.1890
  125MOL   H18025228   6.735   1.397   1.623  0.3271  1.3935 -3.0257
  125MOL   H18125229   6.620   1.273   1.683  1.4625 -0.7483  0.7486
  125MOL   O18225230   6.547   1.386   1.533  0.1243  0.3622  0.2744
  125MOL   C18325231   6.470   1.464   1.619  0.3870 -1.0710 -0.2669
  125MOL   C18425232   6.355   1.529   1.543 -0.3679  0.0413 -0.5782
  125MOL   C18525233   6.266   1.412   1.486 -0.0033  0.1084 -0.0048
  125MOL   H18625234   6.530   1.543   1.665  0.7352  0.0782 -2.6016
  125MOL   H18725235   6.418   1.411   1.698 -0.0088  0.6172  0.6298
  125MOL   H18825236   6.289   1.582   1.613 -0.9375  1.1705 -1.9466
  125MOL   H18925237   6.382   1.590   1.457 -0.6073 -1.3371 -1.6397
  125MOL   H19025238   6.224   1.334   1.549  0.3881 -0.3751 -0.3365
  125MOL   H19125239   6.320   1.363   1.405  2.1538  0.9411  0.8674
  125MOL   O19225240   6.152   1.475   1.417 -0.5338  0.6297 -0.4934
  125MOL   C19325241   6.065   1.388   1.356  0.5268  0.3106  0.4316
  125MOL   C19425242   5.956   1.473   1.292 -0.9409  0.7895 -0.3864
  125MOL   C19525243   5.869   1.412   1.187 -0.8811  0.7988 -0.0731
  125MOL   H19625244   6.021   1.323   1.432  1.1193  0.6949  1.1103
  125MOL   H19725245   6.118   1.313   1.297 -0.3713 -1.8113  2.2342
  125MOL   H19825246   5.889   1.504   1.372 -1.4833  1.5975 -1.1461
  125MOL   H19925247   5.997   1.562   1.244  1.1911 -0.6457 -1.2898
  125MOL   H20025248   5.813   1.338   1.245 -1.2769  0.9907 -0.2132
  125MOL   H20125249   5.931   1.364   1.111 -1.2107 -0.2619  0.3062
  125MOL   H20225250   5.807   1.486   1.137  0.2117  0.9501 -1.2503
  126MOL     O125251   4.332   1.085   7.683  0.4954  0.5225 -0.2968
  126MOL     C225252   4.206   1.143   7.705  0.3729 -0.4776 -0.4214
  126MOL     C325253   4.114   1.112   7.585 -0.0134 -0.9728 -0.3000
  126MOL     C425254   3.975   1.174   7.610 -0.1842  0.1336 -0.8224
  126MOL     H525255   4.221   1.251   7.704 -2.0954 -0.0632  1.6220
  126MOL     H625256   4.168   1.116   0.015 -0.6213  1.1236 -0.3454
  126MOL     H725257   4.161   1.143   7.492 -1.1140  0.2739 -0.4487
  126MOL     H825258   4.111   1.003   7.587  2.6734 -1.0994 -0.9488
  126MOL     H925259   3.906   1.120   7.675 -1.0211 -0.4831 -2.1895
  126MOL    H1025260   3.923   1.180   7.514  0.3127 -0.8519 -1.1547
  126MOL    H1125261   4.388   1.152   7.648  0.3858  2.1035  2.4234
  126MOL    O1225262   3.988   1.310   7.665  0.3577 -0.0101  0.4780
  126MOL    C1325263   3.869   1.377   7.706  0.5185  0.0068  0.6693
  126MOL    C1425264   3.881   1.526   7.688 -0.3158 -0.0351  0.6459
  126MOL    C1525265   3.767   1.614   7.749  0.1867  0.6997  0.1982
  126MOL    H1625266   3.853   1.356   0.024  3.3816 -1.6964  0.7977
  126MOL    H1725267   3.776   1.340   7.662 -0.2826  1.4244  1.1484
  126MOL    H1825268   3.973   1.542   7.744 -0.9389 -3.4853  2.7800
  126MOL    H1925269   3.901   1.548   7.583  2.4253 -1.6162  0.7971
  126MOL    H2025270   3.774   1.604   0.069  0.5967 -1.1872 -0.0008
  126MOL    H2125271   3.669   1.601   7.703  0.3759 -2.0504  0.5073
  126MOL    O2225272   3.806   1.748   7.725  0.0198 -0.3115  0.1628
  126MOL    C2325273   3.708   1.842   7.763 -0.3796 -0.2574  0.9921
  126MOL    C2425274   3.768   1.982   7.766 -0.4350 -0.3018  0.5324
  126MOL    C2525275   3.670   2.101   0.002  0.1788 -0.9794 -0.0555
  126MOL    H2625276   3.657   1.818   0.068 -0.2697 -0.2840  1.0459
  126MOL    H2725277   3.627   1.848   7.690  2.3782  2.3802 -2.0164
  126MOL    H2825278   3.846   1.993   0.053 -0.0028  1.0338 -0.0930
  126MOL    H2925279   3.824   1.996   7.674 -3.4582  1.0330 -1.1716
  126MOL    H3025280   3.628   2.098   0.103 -1.1666 -1.0545 -0.6115
  126MOL    H3125281   3.582   2.095   7.727  0.2659  2.6268 -0.6201
  126MOL    O3225282   3.723   2.231   7.773  0.3805 -0.1594  0.4999
  126MOL    C3325283   3.636   2.316   0.052  0.5575 -0.1896  0.4232
  126MOL    C3425284   3.682   2.460   0.035  0.1213 -0.2104 -0.0432
  126MOL    C3525285   3.603   2.569   0.114  0.6730 -0.5382 -0.2409
  126MOL    H3625286   3.644   2.302   0.160 -0.1808 -0.6866  0.4215
  126MOL    H3725287   3.534   2.301   0.015 -0.5093  0.7407  2.8746
  126MOL    H3825288   3.786   2.480   0.058  0.2051 -0.5030 -0.1679
  126MOL    H3925289   3.672   2.488   7.719  0.6442  1.1445  0.2622
  126MOL    H4025290   3.623   2.568   0.221 -0.9438  2.5236  0.1532
  126MOL    H4125291   3.495   2.557   0.117  0.5927  0.3061  0.4187
  126MOL    O4225292   3.636   2.691   0.046  0.2197  0.4114  0.0663
  126MOL    C4325293   3.744   2.760   0.103 -0.4729 -0.8597 -0.4792
  126MOL    C4425294   3.769   2.885   0.027 -0.0573 -0.2015  0.6987
  126MOL    C4525295   3.858   2.987   0.099 -0.3672  0.3188 -0.1698
  126MOL    H4625296   3.829   2.692   0.090  0.2102  0.2105 -1.7787
  126MOL    H4725297   3.712   2.789   0.203 -1.4765 -2.3577 -0.3478
  126MOL    H4825298   3.813   2.872   7.717 -0.4403 -0.3143  0.5414
  126MOL    H4925299   3.677   2.939   0.003  0.3373 -0.1343 -0.6671
  126MOL    H5025300   3.804   3.021   0.188 -1.8881  0.2769 -1.0685
  126MOL    H5125301   3.878   3.074   0.037 -1.2797 -0.2611 -1.2889
  126MOL    O5225302   3.979   2.935   0.145  0.7995 -0.4704  0.1249
  126MOL    C5325303   4.075   3.030   0.197  0.0134  0.8414  0.1350
  126MOL    C5425304   4.027   3.077   0.336  0.6845  0.0166  0.3538
  126MOL    C5525305   4.150   3.130   0.416  1.0834 -0.1457  0.0942
  126MOL    H5625306   4.101   3.113   0.130 -2.6453  1.2596 -0.4318
  126MOL    H5725307   4.165   2.968   0.203  0.1368  0.8112 -1.5393
  126MOL    H5825308   3.955   3.156   0.315 -2.0976 -2.7404 -1.0514
  126MOL    H5925309   3.975   3.001   0.395 -1.3936 -0.1480 -1.6206
  126MOL    H6025310   4.209   3.193   0.350 -0.8657  0.9819 -0.6207
  126MOL    H6125311   4.216   3.045   0.436  2.5168  0.8209 -0.5343
  126MOL    O6225312   4.129   3.195   0.543  0.1549  0.2336  0.3546
  126MOL    C6325313   4.249   3.218   0.616 -0.1313  0.2259 -0.3329
  126MOL    C6425314   4.201   3.242   0.755 -0.9786 -0.1516 -0.4648
  126MOL    C6525315   4.315   3.280   0.849 -0.1895  1.0064  0.0491
  126MOL    H6625316   4.309   3.300   0.577  1.1432 -0.7846 -0.5608
  126MOL    H6725317   4.312   3.128   0.616  0.8982  0.9281  1.1745
  126MOL    H6825318   4.125   3.319   0.741 -3.0697 -2.1878 -0.7644
  126MOL    H6925319   4.151   3.152   0.790 -1.2756  0.5875  1.0549
  126MOL    H7025320   4.394   3.335   0.799 -0.8406  1.2310 -0.7526
  126MOL    H7125321   4.368   3.190   0.880  0.9696  1.7264  0.1416
  126MOL    O7225322   4.267   3.356   0.958 -0.0785  0.0333  0.5222
  126MOL    C7325323   4.369   3.375   1.058  0.7482  0.3477  0.9983
  126MOL    C7425324   4.316   3.485   1.158 -0.2592  0.8883 -0.0084
  126MOL    C7525325   4.289   3.622   1.100  0.1795 -0.0330  0.1169
  126MOL    H7625326   4.464   3.403   1.013 -0.1684 -0.7551 -1.7200
  126MOL    H7725327   4.382   3.288   1.123 -2.1443 -1.9128 -1.3084
  126MOL    H7825328   4.226   3.433   1.190  0.4480 -1.9910 -2.3573
  126MOL    H7925329   4.387   3.494   1.240 -2.3630 -2.0579  2.2551
  126MOL    H8025330   4.264   3.602   0.996  2.0091  0.1188 -0.3550
  126MOL    H8125331   4.383   3.677   1.105  0.4539 -0.2348 -2.3874
  126MOL    O8225332   4.191   3.689   1.168 -0.2013  0.4858  0.3452
  126MOL    C8325333   4.160   3.817   1.109  0.1410  0.1706  0.0270
  126MOL    C8425334   4.047   3.882   1.190  0.4581 -0.1313 -0.2115
  126MOL    C8525335   3.915   3.807   1.182 -0.2343  0.4118 -0.0751
  126MOL    H8625336   4.131   3.797   1.006 -2.3409 -0.5588  0.8357
  126MOL    H8725337   4.240   3.891   1.115 -0.4021  0.7666 -0.0177
  126MOL    H8825338   4.065   3.893   1.296  1.0997 -1.3375 -0.1921
  126MOL    H8925339   4.022   3.982   1.154 -2.1693 -0.5736  0.3112
  126MOL    H9025340   3.925   3.709   1.227 -1.6248  0.1204 -0.3665
  126MOL    H9125341   3.888   3.804   1.076  2.2159  0.2169 -0.7262
  126MOL    O9225342   3.822   3.884   1.260 -0.4923  0.0789 -0.1026
  126MOL    C9325343   3.702   3.813   1.289 -0.3259  0.1688 -0.6833
  126MOL    C9425344   3.733   3.726   1.418  0.3275  0.6791  0.1045
  126MOL    C9525345   3.607   3.649   1.471  0.3416  0.6895 -0.5420
  126MOL    H9625346   3.653   3.760   1.208 -0.7534  0.8765 -0.8991
  126MOL    H9725347   3.626   3.885   1.320 -0.3374  0.3108 -1.0338
  126MOL    H9825348   3.809   3.651   1.395  1.7314  2.6648 -1.9544
  126MOL    H9925349   3.775   3.795   1.492  0.0811  0.7602  0.1694
  126MOL   H10025350   3.521   3.714   1.490  1.0129  1.7091 -0.9178
  126MOL   H10125351   3.629   3.608   1.570 -0.6930 -0.9291 -0.9796
  126MOL   O10225352   3.570   3.548   1.380 -0.2546  0.3742  0.0563
  126MOL   C10325353   3.493   3.441   1.426 -0.7883  0.1984 -0.6133
  126MOL   C10425354   3.496   3.336   1.314 -0.2761  0.3310  0.3352
  126MOL   C10525355   3.429   3.209   1.366 -0.0476 -0.1841 -0.1603
  126MOL   H10625356   3.390   3.478   1.434 -0.7147  0.5107 -1.0751
  126MOL   H10725357   3.525   3.404   1.524  0.9384  0.6394 -0.9942
  126MOL   H10825358   3.446   3.376   1.226 -3.7483 -0.9046  1.6553
  126MOL   H10925359   3.597   3.309   1.281 -0.9911 -2.0354 -0.0361
  126MOL   H11025360   3.322   3.229   1.374  0.4196  2.4270 -0.1054
  126MOL   H11125361   3.465   3.193   1.467  0.0683  1.8499  0.1431
  126MOL   O11225362   3.441   3.104   1.274 -0.3989  0.3344 -0.2572
  126MOL   C11325363   3.389   2.983   1.327  0.9294  0.6421 -0.1973
  126MOL   C11425364   3.396   2.871   1.222  0.5273  0.6737  0.4303
  126MOL   C11525365   3.305   2.745   1.261 -0.7676 -0.5685 -0.6728
  126MOL   H11625366   3.283   3.003   1.338  1.2368  0.7410  2.9019
  126MOL   H11725367   3.434   2.945   1.419 -0.5552 -3.1220 -0.9170
  126MOL   H11825368   3.359   2.918   1.131  0.9597  0.2340  0.0306
  126MOL   H11925369   3.500   2.849   1.199  0.2137  0.7732 -1.1145
  126MOL   H12025370   3.319   2.668   1.186 -0.3748 -0.7135 -0.4565
  126MOL   H12125371   3.202   2.780   1.254 -0.9855 -1.4039 -1.7900
  126MOL   O12225372   3.329   2.695   1.394 -1.1452 -0.3476  0.1594
  126MOL   C12325373   3.451   2.613   1.389  0.3547 -0.5582  0.0590
  126MOL   C12425374   3.478   2.554   1.526 -0.4595 -0.0784 -0.3480
  126MOL   C12525375   3.608   2.469   1.538 -0.3769  0.0289  0.3079
  126MOL   H12625376   3.533   2.680   1.363 -1.8767  1.6140 -1.6487
  126MOL   H12725377   3.428   2.534   1.317  1.0185 -1.1072  0.4509
  126MOL   H12825378   3.480   2.637   1.597  0.9196 -1.1109  0.8387
  126MOL   H12925379   3.392   2.489   1.544 -0.2883 -0.4686 -0.9330
  126MOL   H13025380   3.693   2.533   1.514  1.0585 -2.1281 -0.5621
  126MOL   H13125381   3.620   2.383   1.472 -0.8112 -1.5458  2.2540
  126MOL   O13225382   3.606   2.428   1.670  0.7433  0.3815  0.1337
  126MOL   C13325383   3.708   2.333   1.694  0.1096  0.4758  0.0973
  126MOL   C13425384   3.670   2.245   1.814 -0.0830 -0.2886 -0.3728
  126MOL   C13525385   3.768   2.138   1.859 -0.6166  0.4749 -0.1933
  126MOL   H13625386   3.803   2.379   1.718  0.5614 -0.2734 -0.2526
  126MOL   H13725387   3.727   2.261   1.614  2.3351  0.7620  0.3544
  126MOL   H13825388   3.630   2.304   1.896  1.2103  0.7560 -0.4747
  126MOL   H13925389   3.580   2.195   1.779 -0.2172 -0.9441  0.9064
  126MOL   H14025390   3.799   2.073   1.777 -1.7352 -0.1372 -0.1317
  126MOL   H14125391   3.710   2.077   1.928  1.7314  0.0727  1.4812
  126MOL   O14225392   3.857   2.203   1.942  0.2016  0.0794  0.1357
  126MOL   C14325393   3.918   2.120   2.040  0.3050 -0.0119  0.6394
  126MOL   C14425394   4.038   2.188   2.113  0.0499 -0.2610 -0.1156
  126MOL   C14525395   4.086   2.115   2.242  0.2314 -0.2228  0.5343
  126MOL   H14625396   3.945   2.024   1.997  1.4574  1.0681 -1.1096
  126MOL   H14725397   3.840   2.103   2.115 -1.2653  1.9564 -0.5124
  126MOL   H14825398   4.117   2.208   2.041  0.1746 -1.2364 -0.2671
  126MOL   H14925399   4.006   2.285   2.150 -0.8910 -1.0934  1.3281
  126MOL   H15025400   4.112   2.010   2.228 -0.7284 -0.6740  2.0548
  126MOL   H15125401   3.994   2.113   2.299  1.0378  0.9541  1.9195
  126MOL   O15225402   4.188   2.184   2.318  0.0842 -0.8896  0.7971
  126MOL   C15325403   4.215   2.119   2.443  0.2423 -0.4669  0.5607
  126MOL   C15425404   4.315   2.213   2.501 -0.0795  0.0774 -0.6263
  126MOL   C15525405   4.239   2.324   2.573  0.8994 -0.0732  0.1834
  126MOL   H15625406   4.261   2.022   2.424 -0.1816 -0.5866  0.1590
  126MOL   H15725407   4.128   2.105   2.507 -1.4162 -3.6920 -2.2344
  126MOL   H15825408   4.372   2.163   2.580 -0.3034 -1.4748 -1.4177
  126MOL   H15925409   4.381   2.248   2.422  2.7181  0.4538  1.7566
  126MOL   H16025410   4.180   2.284   2.656 -2.1087  1.4539 -1.1461
  126MOL   H16125411   4.173   2.370   2.500  0.0269  0.9889  1.6188
  126MOL   O16225412   4.322   2.413   2.630  0.3149 -0.3069  0.1274
  126MOL   C16325413   4.262   2.546   2.671  0.2063  0.1937  0.8284
  126MOL   C16425414   4.379   2.649   2.687 -0.2869  0.2096 -0.1742
  126MOL   C16525415   4.453   2.670   2.553  0.6229  0.4458 -0.3539
  126MOL   H16625416   4.215   2.543   2.769  0.6277 -0.2752  1.0185
  126MOL   H16725417   4.184   2.569   2.599  1.5457 -4.4867 -2.3770
  126MOL   H16825418   4.342   2.742   2.729  0.4660 -0.3555  1.7644
  126MOL   H16925419   4.453   2.616   2.759 -0.2135  1.1623  0.1904
  126MOL   H17025420   4.385   2.704   2.475  0.4351  0.9827  0.0417
  126MOL   H17125421   4.494   2.577   2.514  1.6823 -0.1498  2.0744
  126MOL   O17225422   4.541   2.770   2.584  0.2284  0.2819 -0.1076
  126MOL   C17325423   4.619   2.808   2.472  0.2247  0.6873 -0.1991
  126MOL   C17425424   4.716   2.922   2.503 -0.5013 -1.0329 -0.1339
  126MOL   C17525425   4.814   2.958   2.393  0.0685  0.3018  0.2323
  126MOL   H17625426   4.557   2.842   2.389 -0.2315  2.2955  0.7782
  126MOL   H17725427   4.681   2.725   2.437 -1.0705 -0.5510  0.4044
  126MOL   H17825428   4.652   3.006   2.532 -0.1772 -1.0770  0.7260
  126MOL   H17925429   4.768   2.908   2.598  1.8675  0.6155 -1.1399
  126MOL   H18025430   4.851   3.059   2.409 -0.5048  0.5899 -0.2164
  126MOL   H18125431   4.784   2.969   2.289  0.1627  0.0802  0.1833
  126MOL   O18225432   4.923   2.866   2.390 -0.0287 -0.0847 -0.1608
  126MOL   C18325433   5.038   2.916   2.336  1.1174 -0.0244 -0.2875
  126MOL   C18425434   5.140   2.803   2.367  0.1513 -0.5308  0.1648
  126MOL   C18525435   5.282   2.846   2.315  0.0184  0.2673  0.3601
  126MOL   H18625436   5.060   3.010   2.385 -1.2688 -0.4297  1.6692
  126MOL   H18725437   5.019   2.926   2.229 -0.5488 -2.0058 -0.2265
  126MOL   H18825438   5.151   2.784   2.473  0.7085  1.3273  0.4634
  126MOL   H18925439   5.114   2.711   2.314  0.4965  0.2561 -1.4089
  126MOL   H19025440   5.310   2.935   2.371 -0.3765  0.7666 -0.2347
  126MOL   H19125441   5.289   2.871   2.209  0.5214  3.0427  1.0123
  126MOL   O19225442   5.367   2.736   2.343 -0.5071 -0.1759  0.4879
  126MOL   C19325443   5.503   2.745   2.318  0.1801 -0.0711  0.1048
  126MOL   C19425444   5.571   2.655   2.423 -0.3460  0.2799 -0.3950
  126MOL   C19525445   5.722   2.632   2.397  0.8026 -0.1912 -0.1706
  126MOL   H19625446   5.538   2.848   2.323 -2.9702  1.2036 -2.3022
  126MOL   H19725447   5.540   2.702   2.224  0.2644 -1.3603  0.7224
  126MOL   H19825448   5.559   2.708   2.517 -1.3385 -0.9376  0.1944
  126MOL   H19925449   5.520   2.560   2.440 -1.1866  0.7069 -0.4668
  126MOL   H20025450   5.749   2.572   2.483 -1.9103 -0.4661  0.5299
  126MOL   H20125451   5.787   2.720   2.388  0.1959  0.3597  0.7641
  126MOL   H20225452   5.732   2.572   2.306  1.5631  0.1995 -0.3528
  127MOL     O125453   1.895   5.737   1.752  0.2479  0.7045 -0.1958
  127MOL     C225454   1.892   5.847   1.843 -0.9353 -0.3888  0.1389
  127MOL     C325455   2.022   5.843   1.925  0.4302  0.3862 -0.3872
  127MOL     C425456   2.013   5.927   2.060  0.4495 -0.2692 -0.6855
  127MOL     H525457   1.803   5.844   1.906 -0.5390  0.0468  0.7210
  127MOL     H625458   1.903   5.941   1.789  1.0397 -0.1341  0.9227
  127MOL     H725459   2.054   5.741   1.949 -1.9301 -0.1841  0.5908
  127MOL     H825460   2.106   5.873   1.864  2.5897 -1.4525  1.5684
  127MOL     H925461   1.920   5.895   2.108 -0.6291  2.2918 -0.9757
  127MOL    H1025462   1.998   6.034   2.044  2.3633  0.5154  2.3786
  127MOL    H1125463   1.893   5.658   1.804  1.7831  1.3127  0.7977
  127MOL    O1225464   2.134   5.908   2.132  0.0505  0.3828 -0.7847
  127MOL    C1325465   2.135   5.974   2.261  0.2387  0.3784  0.1140
  127MOL    C1425466   2.261   5.944   2.339  0.2533 -0.2248  0.0513
  127MOL    C1525467   2.294   6.018   2.464 -0.1306  0.0630  0.5950
  127MOL    H1625468   2.048   5.955   2.323 -0.3049  1.8637 -0.1722
  127MOL    H1725469   2.144   6.078   2.230  1.4103 -0.3732 -2.2621
  127MOL    H1825470   2.252   5.839   2.367  0.3500 -0.2009  0.1727
  127MOL    H1925471   2.345   5.952   2.269 -2.2068  2.0749 -2.7364
  127MOL    H2025472   2.207   6.000   2.527  0.7690 -0.2513  1.7792
  127MOL    H2125473   2.298   6.126   2.448 -0.9788 -0.1482 -1.0806
  127MOL    O2225474   2.408   5.966   2.522 -0.3744 -0.4344  0.2120
  127MOL    C2325475   2.429   6.016   2.650  0.4013  0.2375  0.1122
  127MOL    C2425476   2.561   5.980   2.705  0.3263 -0.0049 -0.6707
  127MOL    C2525477   2.575   6.052   2.834  0.2531 -0.3971  0.3852
  127MOL    H2625478   2.345   5.970   2.703  0.4502 -0.9534 -0.8213
  127MOL    H2725479   2.406   6.122   2.651 -0.1242  0.1243  0.6979
  127MOL    H2825480   2.571   5.873   2.721  0.6916  0.2783  1.0820
  127MOL    H2925481   2.630   6.029   2.635 -0.5240  0.7730 -0.9807
  127MOL    H3025482   2.529   6.150   2.829  0.2327 -0.3259  1.7513
  127MOL    H3125483   2.679   6.079   2.851  0.4697 -0.3417 -0.9554
  127MOL    O3225484   2.524   5.975   2.936 -0.8121  0.1712 -0.7956
  127MOL    C3325485   2.585   6.004   3.059 -0.1769  0.7242 -0.3049
  127MOL    C3425486   2.527   5.904   3.161 -0.0028 -0.1482 -0.9011
  127MOL    C3525487   2.537   5.951   3.301 -0.0647 -0.3080 -0.4267
  127MOL    H3625488   2.569   6.108   3.086  1.6906  0.5868  1.4059
  127MOL    H3725489   2.690   5.992   3.033  0.7902  3.3946  2.1800
  127MOL    H3825490   2.422   5.889   3.136 -0.4211  2.0513 -0.4990
  127MOL    H3925491   2.586   5.812   3.152 -0.8409 -0.8906  0.9462
  127MOL    H4025492   2.642   5.973   3.321 -0.1981 -0.4392  0.4416
  127MOL    H4125493   2.500   5.872   3.365  0.2429  0.1394  0.3125
  127MOL    O4225494   2.454   6.070   3.319 -0.1988 -0.0467 -0.1741
  127MOL    C4325495   2.468   6.118   3.457 -0.0043 -0.1078  0.6071
  127MOL    C4425496   2.333   6.153   3.505  0.0147  0.1520  0.3954
  127MOL    C4525497   2.313   6.203   3.649 -0.1060 -0.3594  0.0145
  127MOL    H4625498   2.533   6.204   3.473  1.5821 -1.4244  1.4832
  127MOL    H4725499   2.508   6.033   3.513  0.6019  0.1459  0.5673
  127MOL    H4825500   2.308   6.240   3.445  2.3354  0.4942 -0.0808
  127MOL    H4925501   2.264   6.072   3.479 -1.2916  0.6889  2.0467
  127MOL    H5025502   2.375   6.291   3.664  0.1106 -1.1245  3.9371
  127MOL    H5125503   2.341   6.135   3.729 -1.2250  0.0764  0.7861
  127MOL    O5225504   2.177   6.228   3.678  0.6593 -0.0999  0.0810
  127MOL    C5325505   2.145   6.292   3.797 -0.2194  0.1481  0.2688
  127MOL    C5425506   1.994   6.289   3.816  0.0074 -0.0582  0.5536
  127MOL    C5525507   1.924   6.384   3.714 -0.3443 -0.3880  0.9857
  127MOL    H5625508   2.184   6.393   3.788  0.1707 -0.0727 -0.6395
  127MOL    H5725509   2.186   6.237   3.882 -0.1678  1.6288  1.2100
  127MOL    H5825510   1.967   6.183   3.815 -1.0772  0.1928  1.8413
  127MOL    H5925511   1.972   6.321   3.918 -0.1465 -1.8095  1.1019
  127MOL    H6025512   1.958   6.369   3.612  1.4538 -0.9120  1.6354
  127MOL    H6125513   1.936   6.488   3.744  0.3292 -0.2998  0.4124
  127MOL    O6225514   1.781   6.373   3.719  0.1097 -0.3687 -0.4679
  127MOL    C6325515   1.719   6.464   3.626 -0.1587 -0.2468  0.4089
  127MOL    C6425516   1.576   6.475   3.659  0.4480 -0.2263  0.2232
  127MOL    C6525517   1.558   6.572   3.777 -0.6009 -0.0916  0.3296
  127MOL    H6625518   1.726   6.409   3.532  0.9684  0.4203  0.0825
  127MOL    H6725519   1.761   6.563   3.607  0.1837 -0.7514 -1.6321
  127MOL    H6825520   1.512   6.505   3.576  1.1026 -1.9693 -0.9246
  127MOL    H6925521   1.536   6.378   3.688  0.5126  0.7388  3.8471
  127MOL    H7025522   1.602   6.670   3.760 -0.7829 -0.2802 -1.2573
  127MOL    H7125523   1.616   6.524   3.856 -0.2967 -2.6238 -1.3822
  127MOL    O7225524   1.422   6.579   3.801  0.0278 -0.3014  0.1827
  127MOL    C7325525   1.392   6.631   3.929  0.1884 -0.0368  0.2058
  127MOL    C7425526   1.244   6.663   3.915 -0.7111  0.2921  0.1158
  127MOL    C7525527   1.169   6.717   4.032 -0.8512  0.1250  0.1872
  127MOL    H7625528   1.448   6.723   3.944  0.8695 -0.6300  1.3168
  127MOL    H7725529   1.411   6.573   4.019 -0.9475 -0.4581  0.1893
  127MOL    H7825530   1.225   6.722   3.825  0.6739  2.8046  1.4041
  127MOL    H7925531   1.191   6.569   3.898 -0.3237 -0.7819  4.3231
  127MOL    H8025532   1.224   6.797   4.081 -1.1553 -0.1914  1.0659
  127MOL    H8125533   1.172   6.638   4.108  3.1988  0.1408  0.1558
  127MOL    O8225534   1.031   6.739   3.995  0.0725  0.2598  0.0197
  127MOL    C8325535   1.005   6.863   3.931 -0.4270  0.0418  0.1567
  127MOL    C8425536   0.869   6.856   3.859 -0.2483  0.1768  0.2919
  127MOL    C8525537   0.840   6.985   3.779  0.3598 -0.9382  0.4121
  127MOL    H8625538   1.082   6.889   3.859 -3.2592  4.3082 -1.5543
  127MOL    H8725539   1.003   6.941   4.008  2.6496  0.0736  0.2847
  127MOL    H8825540   0.861   6.768   3.795  0.4804  0.2138  0.1380
  127MOL    H8925541   0.786   6.850   3.929  0.3445  0.7606  1.0521
  127MOL    H9025542   0.751   6.979   3.718  1.6820  0.0016 -1.6664
  127MOL    H9125543   0.918   7.000   3.704  0.0704 -0.0519  0.2880
  127MOL    O9225544   0.841   7.107   3.850  0.2341  0.3332 -0.2585
  127MOL    C9325545   0.727   7.138   3.916 -0.0593  0.2274 -0.2688
  127MOL    C9425546   0.748   7.271   3.989 -0.3230 -0.4843 -0.0470
  127MOL    C9525547   0.873   7.259   4.083  0.0447  0.1774  1.1858
  127MOL    H9625548   0.694   7.060   3.985  0.5809  0.4209  0.2655
  127MOL    H9725549   0.649   7.147   3.840  0.3527 -0.7174 -0.8169
  127MOL    H9825550   0.777   7.355   3.925  1.1763  0.7985  2.2549
  127MOL    H9925551   0.654   7.299   4.036 -0.9985 -1.7251 -0.6376
  127MOL   H10025552   0.961   7.249   4.020  0.8564  1.0045  2.1765
  127MOL   H10125553   0.857   7.170   4.145 -0.3860  0.7053  1.8343
  127MOL   O10225554   0.893   7.373   4.168  0.7031  0.5564  0.6815
  127MOL   C10325555   0.999   7.356   4.256 -1.2669 -0.6061  0.2846
  127MOL   C10425556   1.001   7.466   4.368  0.1804 -0.4377  0.1942
  127MOL   C10525557   0.892   7.451   4.476  0.0264  0.3354 -0.1480
  127MOL   H10625558   1.078   7.371   4.182 -0.2655  0.5237  1.5557
  127MOL   H10725559   1.012   7.261   4.308 -1.3961 -0.5480  0.4225
  127MOL   H10825560   1.096   7.450   4.420 -0.8072  0.3330  2.2994
  127MOL   H10925561   1.004   7.565   4.323  2.1710 -0.9615 -0.9038
  127MOL   H11025562   0.885   7.348   4.510  0.0610 -0.4506 -2.4059
  127MOL   H11125563   0.796   7.467   4.426  0.9123  0.0613 -1.9665
  127MOL   O11225564   0.916   7.544   4.575 -0.5613  0.0981  0.0874
  127MOL   C11325565   1.029   7.518   4.662  0.8453  0.2284  0.1755
  127MOL   C11425566   1.031   7.630   4.761  0.2765 -0.4670  0.2689
  127MOL   C11525567   1.134   7.610   4.872  0.5238  0.2357 -0.4063
  127MOL   H11625568   1.119   7.530   4.601 -1.2746 -0.3757 -3.1949
  127MOL   H11725569   1.028   7.424   4.717  0.0254  0.1984  0.1085
  127MOL   H11825570   1.063   7.720   4.708  0.7591 -1.5940 -1.3739
  127MOL   H11925571   0.931   7.651   4.799  0.6124  3.0414 -0.5794
  127MOL   H12025572   1.236   7.614   4.833  1.3086 -1.2419  1.3825
  127MOL   H12125573   1.131   7.511   4.917  0.1345  0.3388 -0.2067
  127MOL   O12225574   1.113   7.693   4.974 -0.1535  0.3705  0.0553
  127MOL   C12325575   1.209   7.693   5.078 -1.0874 -0.0739  0.2075
  127MOL   C12425576   1.180   0.029   5.158  0.1653  0.4176 -0.2983
  127MOL   C12525577   1.277   0.036   5.279 -0.0600 -0.1303  0.1708
  127MOL   H12625578   1.309   7.705   5.038 -0.7215 -1.3132  0.7075
  127MOL   H12725579   1.200   7.602   5.139  1.5901  0.3328  1.2709
  127MOL   H12825580   1.186   0.120   5.098 -0.1186  0.8523  0.3291
  127MOL   H12925581   1.075   0.020   5.184  0.3124 -2.6888 -0.5845
  127MOL   H13025582   1.266   0.132   5.329  0.9856  0.3233 -0.4573
  127MOL   H13125583   1.381   0.042   5.246  0.1446  1.5415  1.0561
  127MOL   O13225584   1.258   7.714   5.362  0.1166  0.1886 -0.2765
  127MOL   C13325585   1.307   7.735   5.494  0.6490  0.9953 -0.0037
  127MOL   C13425586   1.286   7.604   5.585 -0.8279  0.0771 -0.0289
  127MOL   C13525587   1.342   7.619   5.725  0.1872 -0.1084  0.6355
  127MOL   H13625588   1.237   0.019   5.534  0.3515  1.2554 -0.9674
  127MOL   H13725589   1.413   7.758   5.503  0.7673  1.1678 -1.6734
  127MOL   H13825590   1.180   7.580   5.598 -0.1325 -2.0026  2.2062
  127MOL   H13925591   1.339   7.525   5.534  0.1082  2.1895 -2.4032
  127MOL   H14025592   1.309   7.710   5.775 -3.0475 -0.3869 -0.8921
  127MOL   H14125593   1.450   7.609   5.720  0.3091  1.2829  0.5518
  127MOL   O14225594   1.293   7.515   5.808 -0.0497 -0.4561 -0.5065
  127MOL   C14325595   1.354   7.524   5.935 -0.8543  0.1248  0.1452
  127MOL   C14425596   1.277   7.460   6.053  0.4889 -0.2829  0.6683
  127MOL   C14525597   1.361   7.460   6.176 -0.3716 -0.6245  0.2999
  127MOL   H14625598   1.367   7.627   5.968  0.6137  0.3185 -0.9698
  127MOL   H14725599   1.455   7.485   5.926 -2.0573 -2.8465 -1.3525
  127MOL   H14825600   1.183   7.514   6.055  1.2101  1.4089 -3.8217
  127MOL   H14925601   1.245   7.358   6.029 -0.2492  0.6680 -2.6838
  127MOL   H15025602   1.453   7.401   6.173  0.1094  0.0866  0.7814
  127MOL   H15125603   1.300   7.412   6.253 -1.1540  1.0839  0.7705
  127MOL   O15225604   1.369   7.593   6.219  0.9441 -1.0653  0.2085
  127MOL   C15325605   1.420   7.612   6.349 -0.3792  0.0237  0.0914
  127MOL   C15425606   1.419   7.761   6.394 -0.2419  0.0756 -0.5139
  127MOL   C15525607   1.465   7.764   6.542 -0.3320  0.5503 -0.3904
  127MOL   H15625608   1.518   7.574   6.378 -1.3719 -1.7394  1.2862
  127MOL   H15725609   1.348   7.560   6.413 -0.8298  0.1272 -0.3347
  127MOL   H15825610   1.489   0.036   6.339  1.6760 -1.3468  0.2613
  127MOL   H15925611   1.324   0.024   6.376  0.8994  2.3247 -0.3916
  127MOL   H16025612   1.552   7.700   6.554  0.2266  1.1096 -1.3670
  127MOL   H16125613   1.397   7.708   6.608 -0.1146  1.3598  0.5283
  127MOL   O16225614   1.474   0.109   6.584  0.5905  0.7858 -0.0201
  127MOL   C16325615   1.548   0.123   6.708  0.1880  0.0241  0.0600
  127MOL   C16425616   1.532   0.262   6.772 -0.2995  0.2242  0.1132
  127MOL   C16525617   1.579   0.266   6.917  0.8489 -0.1829 -0.6733
  127MOL   H16625618   1.653   0.104   6.686 -0.1879 -2.4113  0.2733
  127MOL   H16725619   1.517   0.037   6.767 -1.5235  0.0929 -0.7112
  127MOL   H16825620   1.587   0.331   6.708  3.7459 -2.3120  0.6567
  127MOL   H16925621   1.424   0.276   6.768 -0.3202  0.8058  2.3921
  127MOL   H17025622   1.672   0.214   6.942 -0.2988 -1.3085  1.3891
  127MOL   H17125623   1.493   0.218   6.962  1.0182  1.2994  1.2694
  127MOL   O17225624   1.579   0.396   6.971  0.3659  0.1972  0.1390
  127MOL   C17325625   1.623   0.390   7.108 -0.1477  0.5143  0.0107
  127MOL   C17425626   1.603   0.525   7.175 -0.3866 -0.6207 -0.2222
  127MOL   C17525627   1.674   0.535   7.316 -0.6551 -0.0501 -0.5307
  127MOL   H17625628   1.730   0.369   7.101 -0.0019  1.5130 -0.8526
  127MOL   H17725629   1.587   0.313   7.176  0.2208  1.1959  0.9930
  127MOL   H17825630   1.651   0.597   7.109  1.4713  1.4567  3.2265
  127MOL   H17925631   1.499   0.557   7.174  0.1097  1.0168 -1.5839
  127MOL   H18025632   1.663   0.640   7.343  0.5319  0.8083 -3.1721
  127MOL   H18125633   1.779   0.511   7.301  0.1338  1.3449  2.4047
  127MOL   O18225634   1.605   0.448   7.404  0.2954 -0.0243 -0.5611
  127MOL   C18325635   1.673   0.469   7.533  0.0249 -0.7499  0.2827
  127MOL   C18425636   1.594   0.405   7.651 -0.1495  0.6650 -0.2076
  127MOL   C18525637   1.682   0.408   7.777  0.2256  0.2336 -0.2323
  127MOL   H18625638   1.658   0.574   7.561  0.6149 -0.2382 -1.2812
  127MOL   H18725639   1.774   0.430   7.542 -0.7306 -2.7821  0.1862
  127MOL   H18825640   1.497   0.448   7.673 -0.5936  0.7950 -2.3631
  127MOL   H18925641   1.581   0.299   7.631  1.3246  0.6845 -1.4049
  127MOL   H19025642   1.627   0.384   0.080  2.3253 -1.3506  0.6660
  127MOL   H19125643   1.732   0.504   0.003  0.6794  0.1910 -1.4918
  127MOL   O19225644   1.783   0.308   7.761  0.4139 -0.1675  0.0579
  127MOL   C19325645   1.867   0.296   0.082  0.1788 -0.3008  0.0990
  127MOL   C19425646   2.013   0.281   0.031  0.5197  0.6427 -0.5671
  127MOL   C19525647   2.114   0.224   0.133 -0.3732 -0.5484 -0.9451
  127MOL   H19625648   1.834   0.210   0.140 -1.7512  0.7696  0.6329
  127MOL   H19725649   1.848   0.369   0.160 -0.6637 -0.7501  0.3265
  127MOL   H19825650   2.001   0.199   7.748  2.8147 -0.9246  0.7778
  127MOL   H19925651   2.054   0.361   7.758 -0.4010  3.0540  1.9087
  127MOL   H20025652   2.067   0.136   0.176  1.9330 -0.8886  0.9865
  127MOL   H20125653   2.140   0.290   0.216  0.5210 -0.4734 -1.2865
  127MOL   H20225654   2.208   0.186   0.095  0.3810  0.6530 -0.3432
  128MOL     O125655   2.989   5.760   2.677 -0.4137  0.4169 -0.2188
  128MOL     C225656   2.882   5.840   2.634 -0.2934  0.7320  0.4448
  128MOL     C325657   2.945   5.926   2.520  0.1968 -0.3222 -0.0026
  128MOL     C425658   2.870   6.056   2.501 -0.4094 -0.0210 -0.5260
  128MOL     H525659   2.853   5.907   2.715  2.6258  2.0696  0.4608
  128MOL     H625660   2.799   5.792   2.582  0.4518  0.5599 -0.6123
  128MOL     H725661   3.047   5.956   2.544 -0.9915  1.7346  2.7611
  128MOL     H825662   2.941   5.879   2.422  1.8937  1.6945 -1.0834
  128MOL     H925663   2.869   6.108   2.597 -1.0820 -0.0228 -0.5248
  128MOL    H1025664   2.767   6.051   2.466 -0.6422 -1.9276  0.3163
  128MOL    H1125665   2.958   5.695   2.738 -0.0548  0.3720 -0.0864
  128MOL    O1225666   2.954   6.126   2.406 -0.2310 -0.0756 -0.1719
  128MOL    C1325667   2.895   6.249   2.366 -0.0395 -0.0261 -0.3478
  128MOL    C1425668   2.993   6.314   2.273  0.5717 -0.6662  0.4362
  128MOL    C1525669   2.953   6.453   2.227 -0.1677  0.2466  0.1251
  128MOL    H1625670   2.856   6.312   2.446  0.6761 -0.7384  0.5821
  128MOL    H1725671   2.808   6.219   2.308  0.5082 -0.9963 -0.6820
  128MOL    H1825672   3.093   6.321   2.316  0.3639  0.8033  0.6815
  128MOL    H1925673   3.010   6.250   2.186 -1.0105 -2.7373  1.5968
  128MOL    H2025674   2.955   6.515   2.316 -0.0324 -0.6362  0.7400
  128MOL    H2125675   2.855   6.448   2.178 -0.2694 -0.0812  0.3588
  128MOL    O2225676   3.046   6.507   2.138  0.3170 -0.1103  0.4975
  128MOL    C2325677   3.012   6.645   2.100  0.4766  0.6417  1.1317
  128MOL    C2425678   3.117   6.704   2.002 -0.2172 -0.0710 -0.0573
  128MOL    C2525679   3.130   6.622   1.878  0.2374  0.2660  0.4277
  128MOL    H2625680   3.005   6.693   2.198 -0.3921  0.5425  1.1212
  128MOL    H2725681   2.914   6.645   2.052  1.3424  3.0792 -0.7262
  128MOL    H2825682   3.089   6.808   1.982 -4.0474 -0.9000  0.6815
  128MOL    H2925683   3.218   6.715   2.042  0.1815  3.3168 -1.7739
  128MOL    H3025684   3.032   6.593   1.842 -0.2349  0.4964  1.5122
  128MOL    H3125685   3.190   6.535   1.902  0.8137  0.3432 -0.7047
  128MOL    O3225686   3.206   6.701   1.786 -0.0330  0.0115  0.2920
  128MOL    C3325687   3.267   6.626   1.683 -0.5390  0.1676  0.1345
  128MOL    C3425688   3.373   6.711   1.608 -0.3230 -0.0528  0.0984
  128MOL    C3525689   3.446   6.621   1.501 -0.1010  0.4716  0.9331
  128MOL    H3625690   3.196   6.601   1.604 -0.8729  2.3588 -0.2723
  128MOL    H3725691   3.306   6.530   1.719 -0.5120 -0.3061 -1.1350
  128MOL    H3825692   3.316   6.793   1.565 -1.4802 -0.6106  0.5606
  128MOL    H3925693   3.452   6.748   1.673 -0.1461  0.0372 -0.1670
  128MOL    H4025694   3.504   6.546   1.553 -0.7957  0.4466  1.6745
  128MOL    H4125695   3.507   6.682   1.435  2.3963 -0.9294  1.9026
  128MOL    O4225696   3.351   6.551   1.415  0.1914  0.8928 -1.0912
  128MOL    C4325697   3.360   6.594   1.275 -0.9881  0.3679  0.0521
  128MOL    C4425698   3.265   6.516   1.191 -0.4611  0.3089  0.2211
  128MOL    C4525699   3.268   6.542   1.045  0.0964 -0.2568 -0.4481
  128MOL    H4625700   3.464   6.565   1.260 -1.2484 -1.6021  1.8964
  128MOL    H4725701   3.344   6.702   1.264  0.4701  0.5952  0.0311
  128MOL    H4825702   3.277   6.409   1.210  2.5288  0.4914 -0.3900
  128MOL    H4925703   3.165   6.532   1.232 -0.9591 -0.1027 -0.8135
  128MOL    H5025704   3.365   6.535   0.996  0.5678  2.5797  0.0125
  128MOL    H5125705   3.238   6.645   1.028  0.3341 -0.2606 -0.9028
  128MOL    O5225706   3.167   6.457   0.980  0.4802  0.1423 -0.0030
  128MOL    C5325707   3.192   6.449   0.841  0.1534 -0.3888  0.0310
  128MOL    C5425708   3.087   6.369   0.770 -0.6566 -0.1002 -0.1951
  128MOL    C5525709   3.125   6.353   0.628 -0.2943 -0.5055 -0.5200
  128MOL    H5625710   3.291   6.407   0.824  0.6899  0.5042  0.8843
  128MOL    H5725711   3.186   6.555   0.815  0.7041 -0.8935 -2.2005
  128MOL    H5825712   3.094   6.267   0.811  0.5646  0.8675  2.1250
  128MOL    H5925713   2.984   6.397   0.792  0.6606  2.1661  3.5122
  128MOL    H6025714   3.232   6.339   0.612  0.2234  0.1001  2.2244
  128MOL    H6125715   3.077   6.436   0.577  2.8702  0.4046 -2.1534
  128MOL    O6225716   3.075   6.224   0.581 -0.3639  0.2859  0.3179
  128MOL    C6325717   3.129   6.178   0.458 -0.3407  0.6696 -0.3366
  128MOL    C6425718   3.033   6.073   0.407  0.1620 -1.0757 -0.7178
  128MOL    C6525719   3.069   6.020   0.267  0.3125 -0.7968  0.0482
  128MOL    H6625720   3.227   6.133   0.471 -0.2464  0.4924 -1.5853
  128MOL    H6725721   3.125   6.262   0.388 -0.1640  0.1786 -0.9432
  128MOL    H6825722   3.028   5.983   0.468  1.0480 -1.4436 -1.1872
  128MOL    H6925723   2.930   6.106   0.394  0.4896 -0.5737 -2.1065
  128MOL    H7025724   3.006   5.940   0.229  0.4187 -1.8348  2.0091
  128MOL    H7125725   3.169   5.975   0.261  1.5908  1.9001  0.1748
  128MOL    O7225726   3.051   6.131   0.185  0.7247  0.4301 -0.3595
  128MOL    C7325727   3.064   6.118   0.044 -0.4476  0.4173  0.4773
  128MOL    C7425728   2.954   6.037   7.757  0.0635  0.6324  0.1526
  128MOL    C7525729   2.955   6.048   7.609 -0.0799  0.2323  0.3915
  128MOL    H7625730   3.169   6.105   0.018  0.5676  2.9477  3.0595
  128MOL    H7725731   3.058   6.224   0.019  1.5516  0.8882  1.9127
  128MOL    H7825732   2.961   5.933   0.003  0.1006  0.9104  0.9946
  128MOL    H7925733   2.857   6.065   0.010  0.3467  1.5162  0.2184
  128MOL    H8025734   3.056   6.049   7.568 -1.1758  0.2934 -2.3866
  128MOL    H8125735   2.900   6.132   7.565  1.8243  1.8571  1.0571
  128MOL    O8225736   2.884   5.936   7.553 -0.0520  0.6384 -0.2053
  128MOL    C8325737   2.880   5.930   7.415  0.1790 -0.0637 -0.8782
  128MOL    C8425738   2.793   5.806   7.391  0.6396  0.6014  0.3531
  128MOL    C8525739   2.837   5.727   7.266  0.8572  0.2758 -0.2015
  128MOL    H8625740   2.986   5.913   7.393 -0.0316 -1.8453 -0.5943
  128MOL    H8725741   2.847   6.024   7.371 -0.4430  1.0885  1.9429
  128MOL    H8825742   2.813   5.753   7.484  1.1856  1.6243  0.8308
  128MOL    H8925743   2.686   5.826   7.387  0.8391  1.5632 -0.4749
  128MOL    H9025744   2.939   5.692   7.282 -0.1899 -2.6376  0.5304
  128MOL    H9125745   2.834   5.791   7.178  2.9861 -1.0003 -1.2450
  128MOL    O9225746   2.742   5.613   7.262 -0.1499 -0.3880  0.4875
  128MOL    C9325747   2.774   5.533   7.146  0.3473 -0.3797  0.7319
  128MOL    C9425748   2.685   5.409   7.137 -0.5869 -0.0574 -0.4372
  128MOL    C9525749   2.723   5.306   7.033  0.2286  0.3580 -0.5762
  128MOL    H9625750   2.879   5.505   7.151  0.3029 -0.3892  1.5459
  128MOL    H9725751   2.767   5.584   7.049 -1.3511 -0.0180  1.0258
  128MOL    H9825752   2.681   5.357   7.233  1.2513 -0.2321 -0.4406
  128MOL    H9925753   2.585   5.449   7.121 -1.9640 -2.1706  2.3760
  128MOL   H10025754   2.663   5.217   7.055 -1.7399  1.2525 -2.1313
  128MOL   H10125755   2.827   5.275   7.034 -0.0894 -0.7470 -0.2960
  128MOL   O10225756   2.688   5.350   6.906 -0.3252  0.2292 -0.1118
  128MOL   C10325757   2.718   5.249   6.811  0.0339  0.0894 -0.2693
  128MOL   C10425758   2.667   5.296   6.672 -0.8321  0.3467 -0.0751
  128MOL   C10525759   2.740   5.422   6.639  0.7066 -0.0621 -0.1896
  128MOL   H10625760   2.672   5.152   6.830 -1.1724  0.8626  0.8669
  128MOL   H10725761   2.823   5.239   6.785  0.5180  2.7333  0.4991
  128MOL   H10825762   2.677   5.226   6.589 -2.5993  0.6944 -0.5967
  128MOL   H10925763   2.560   5.306   6.689 -1.3065 -1.5530 -1.7603
  128MOL   H11025764   2.821   5.392   6.572  0.8269  0.4998 -0.2951
  128MOL   H11125765   2.774   5.483   6.722 -0.0154  0.1502 -0.0515
  128MOL   O11225766   2.644   5.499   6.562  0.4551  0.2232  0.7302
  128MOL   C11325767   2.710   5.616   6.508  0.3245 -0.6674 -0.2433
  128MOL   C11425768   2.596   5.698   6.449 -0.9089  0.3504 -0.4530
  128MOL   C11525769   2.633   5.833   6.398  0.2471 -0.3722  0.2755
  128MOL   H11625770   2.779   5.580   6.431  3.2780  1.0108  1.5030
  128MOL   H11725771   2.763   5.674   6.584 -0.8769 -0.1555  0.2118
  128MOL   H11825772   2.537   5.633   6.384 -0.2295 -0.4301 -0.2936
  128MOL   H11925773   2.527   5.716   6.532 -0.4814  1.9464 -0.4262
  128MOL   H12025774   2.662   5.890   6.486 -4.9095  1.6613  0.8167
  128MOL   H12125775   2.547   5.881   6.351 -1.3992 -1.5817  1.9767
  128MOL   O12225776   2.736   5.823   6.304 -0.0448 -0.5075 -0.4137
  128MOL   C12325777   2.779   5.951   6.258  0.0165 -0.2621  0.1972
  128MOL   C12425778   2.886   5.921   6.150  0.3524 -0.2918  0.1631
  128MOL   C12525779   2.830   5.898   6.007 -0.4251 -0.2097 -0.0879
  128MOL   H12625780   2.814   6.013   6.339  0.3080 -1.0672  0.6932
  128MOL   H12725781   2.703   6.010   6.207  1.2900 -0.0707 -1.5074
  128MOL   H12825782   2.939   6.016   6.150 -0.9669  0.4493 -1.3729
  128MOL   H12925783   2.943   5.831   6.175 -0.5673 -1.3108 -1.3224
  128MOL   H13025784   2.771   5.984   5.974 -3.5997 -2.2502  0.0362
  128MOL   H13125785   2.765   5.810   6.010  0.7890 -1.1023  0.3590
  128MOL   O13225786   2.936   5.873   5.922 -0.3916 -0.1355  0.0494
  128MOL   C13325787   2.994   5.993   5.865 -0.8180 -0.0931  0.6965
  128MOL   C13425788   3.123   5.970   5.794 -1.0236 -0.2439  0.1334
  128MOL   C13525789   3.194   6.096   5.735 -0.2660  0.4504 -0.8680
  128MOL   H13625790   3.021   6.054   5.951 -0.2601  0.8014 -0.1051
  128MOL   H13725791   2.928   6.049   5.798 -0.3841  1.4060  1.5053
  128MOL   H13825792   3.197   5.911   5.849  0.9075  1.4463 -0.5728
  128MOL   H13925793   3.094   5.910   5.708 -0.1197 -0.1859 -0.2263
  128MOL   H14025794   3.127   6.141   5.661 -0.7971  3.0510  1.1475
  128MOL   H14125795   3.271   6.056   5.668 -1.0586 -1.3695 -0.7139
  128MOL   O14225796   3.236   6.191   5.839  0.6192 -0.1158  0.4078
  128MOL   C14325797   3.273   6.320   5.787  0.3749  0.2410  0.1806
  128MOL   C14425798   3.290   6.416   5.908  0.3565  1.7031  0.2533
  128MOL   C14525799   3.156   6.438   5.977 -0.1594  0.4361  0.1610
  128MOL   H14625800   3.192   6.350   5.721 -1.1500 -4.2541 -0.1587
  128MOL   H14725801   3.365   6.302   5.730  0.4635  0.6614  0.1869
  128MOL   H14825802   3.364   6.372   5.975 -1.4807  1.1727  2.0051
  128MOL   H14925803   3.324   6.517   5.885  0.4705  1.7126  0.4634
  128MOL   H15025804   3.127   6.341   6.019 -1.1855  0.4654 -0.4714
  128MOL   H15125805   3.084   6.473   5.904  0.1625 -1.5861 -1.1580
  128MOL   O15225806   3.164   6.540   6.084 -0.5854  0.1185  0.0549
  128MOL   C15325807   3.142   6.674   6.038 -0.6672  0.0670  0.0450
  128MOL   C15425808   3.164   6.768   6.157  1.1393  1.0463 -0.6401
  128MOL   C15525809   3.124   6.914   6.137 -0.0292  0.1681 -0.4729
  128MOL   H15625810   3.043   6.685   5.995 -0.7219 -0.1706  0.1053
  128MOL   H15725811   3.215   6.702   5.962  1.5552 -0.6348  1.8578
  128MOL   H15825812   3.096   6.730   6.233  1.4982  0.0407 -0.8103
  128MOL   H15925813   3.265   6.767   6.198  0.5003  2.7464  1.0478
  128MOL   H16025814   3.015   6.911   6.136 -0.0275 -3.8809  1.3426
  128MOL   H16125815   3.177   6.947   6.048 -0.5054 -1.4774 -1.3745
  128MOL   O16225816   3.168   6.987   6.251  0.0315  0.2457 -0.0887
  128MOL   C16325817   3.158   7.125   6.240 -0.2537 -0.4151 -0.2403
  128MOL   C16425818   3.235   7.189   6.345 -0.4454 -0.1377 -0.7138
  128MOL   C16525819   3.190   7.333   6.372  0.0378 -0.1619 -0.3707
  128MOL   H16625820   3.051   7.146   6.240 -0.0828  1.1158  4.3027
  128MOL   H16725821   3.179   7.164   6.140  2.2621  1.5493  0.9722
  128MOL   H16825822   3.239   7.131   6.437 -0.5940 -0.3653 -0.8513
  128MOL   H16925823   3.340   7.191   6.316  0.3550  2.5510  2.1014
  128MOL   H17025824   3.092   7.341   6.420  1.2459 -1.4324  2.3961
  128MOL   H17125825   3.180   7.385   6.277  1.0563 -2.3554 -1.7216
  128MOL   O17225826   3.296   7.375   6.453  0.3554  0.1194  0.3264
  128MOL   C17325827   3.290   7.511   6.494 -0.6463  0.5366 -0.2858
  128MOL   C17425828   3.191   7.525   6.608 -0.1097 -0.1903 -0.2051
  128MOL   C17525829   3.195   7.663   6.674 -0.2137  0.2788  0.5507
  128MOL   H17625830   3.270   7.581   6.412 -0.0174  1.3579  0.2601
  128MOL   H17725831   3.389   7.528   6.536 -0.1747 -1.5281 -0.4996
  128MOL   H17825832   3.094   7.505   6.564 -0.2903 -0.8851  0.4921
  128MOL   H17925833   3.194   7.446   6.683 -2.1674  0.5972  0.7504
  128MOL   H18025834   3.103   7.678   6.731 -0.2829 -0.6894  0.7113
  128MOL   H18125835   3.194   7.744   6.601 -1.8460  0.4301  0.7298
  128MOL   O18225836   3.305   7.662   6.764  0.4052 -0.0619 -0.1845
  128MOL   C18325837   3.320   7.785   6.831 -0.7410  0.0257  0.1596
  128MOL   C18425838   3.435   7.765   6.931  0.5784 -0.0063 -0.0411
  128MOL   C18525839   3.477   0.111   6.999 -0.0626  1.0216 -0.7287
  128MOL   H18625840   3.227   0.024   6.880 -1.0881 -0.5048 -0.1868
  128MOL   H18725841   3.351   0.073   6.759 -1.9968 -0.3787 -0.8304
  128MOL   H18825842   3.412   7.688   7.005 -0.9106  0.1047 -0.3674
  128MOL   H18925843   3.524   7.732   6.876  1.0970  0.1935  0.6798
  128MOL   H19025844   3.496   0.181   6.917  0.9163  1.3145 -0.2514
  128MOL   H19125845   3.569   0.098   7.056  0.1567 -0.6020 -1.4199
  128MOL   O19225846   3.371   0.143   7.087  0.4686  0.2896 -0.1801
  128MOL   C19325847   3.365   0.278   7.130 -0.0084  0.0174  0.1141
  128MOL   C19425848   3.238   0.303   7.213  0.2499 -0.2068  0.4120
  128MOL   C19525849   3.110   0.296   7.123  0.1945  0.6872  0.4169
  128MOL   H19625850   3.367   0.338   7.039  0.4814 -0.5473 -0.2437
  128MOL   H19725851   3.459   0.304   7.181  0.2287 -1.1672  0.2886
  128MOL   H19825852   3.236   0.235   7.298 -2.5689  1.9971  2.2022
  128MOL   H19925853   3.238   0.403   7.258 -2.9842  0.6790 -1.3765
  128MOL   H20025854   3.108   0.369   7.042 -2.4283 -0.4682 -0.6342
  128MOL   H20125855   3.012   0.316   7.167 -0.6131  0.2215 -1.1260
  128MOL   H20225856   3.119   0.192   7.091  0.1610  1.1861 -1.2261
  129MOL     O125857   0.480   2.208   6.635  0.8517  0.3006 -0.2330
  129MOL     C225858   0.528   2.198   6.766 -0.2519  0.7015  0.1497
  129MOL     C325859   0.492   2.048   6.817  0.5117  0.0447 -0.5959
  129MOL     C425860   0.548   2.013   6.951 -0.5048 -0.0305 -0.4990
  129MOL     H525861   0.488   2.281   6.824 -0.5346  2.3060 -2.2452
  129MOL     H625862   0.635   2.213   6.771 -0.4997  1.8733  2.3177
  129MOL     H725863   0.384   2.041   6.828  0.6000 -1.4491 -0.5425
  129MOL     H825864   0.524   1.984   6.735 -1.1474 -0.5975 -0.7649
  129MOL     H925865   0.513   2.087   7.023  1.4917  0.4949 -0.0218
  129MOL    H1025866   0.657   2.019   6.943 -0.2669  0.4761  2.5903
  129MOL    H1125867   0.518   2.283   6.593  2.1020  0.3971  1.0436
  129MOL    O1225868   0.515   1.887   6.983  0.4652  0.6742  0.0413
  129MOL    C1325869   0.577   1.824   7.093  0.7440 -0.0821 -0.0782
  129MOL    C1425870   0.536   1.679   7.126  0.4369 -0.4292 -0.4924
  129MOL    C1525871   0.399   1.646   7.193 -0.5204  0.1815 -0.4740
  129MOL    H1625872   0.577   1.885   7.183  6.0976  0.6353 -0.4028
  129MOL    H1725873   0.682   1.817   7.066  0.1572 -0.2423 -2.4043
  129MOL    H1825874   0.535   1.626   7.031 -0.2644 -1.2210 -0.0476
  129MOL    H1925875   0.618   1.643   7.189  1.1332  0.3326 -0.9408
  129MOL    H2025876   0.412   1.553   7.249 -2.0097 -0.0607 -0.4892
  129MOL    H2125877   0.314   1.642   7.125  0.2602  2.5065 -1.6350
  129MOL    O2225878   0.377   1.744   7.290 -0.2426 -1.1574  0.2396
  129MOL    C2325879   0.256   1.713   7.358 -0.7807 -0.3416 -0.8140
  129MOL    C2425880   0.196   1.835   7.435 -0.0863 -0.7055 -0.0836
  129MOL    C2525881   0.076   1.798   7.519 -0.1849 -0.1991 -0.5577
  129MOL    H2625882   0.273   1.635   7.432 -0.1764 -0.1712 -0.7668
  129MOL    H2725883   0.181   1.674   7.289 -2.0597 -1.3745  1.1144
  129MOL    H2825884   0.278   1.870   7.497 -0.4712 -1.0455  0.6161
  129MOL    H2925885   0.162   1.914   7.367  1.1405  0.3689  0.5168
  129MOL    H3025886   0.097   1.718   7.589 -0.9134  0.4070  0.3687
  129MOL    H3125887   7.788   1.768   7.448 -1.0208  2.6970 -0.9674
  129MOL    O3225888   0.047   1.902   7.607  0.2179  0.2700 -0.0097
  129MOL    C3325889   7.711   1.906   7.688 -0.3309 -0.4460 -0.2618
  129MOL    C3425890   7.739   2.017   0.009 -0.2608  0.6069 -0.1996
  129MOL    C3525891   7.608   2.034   0.103  0.0498 -0.0976 -0.1171
  129MOL    H3625892   7.707   1.812   7.742 -0.9130 -0.6582 -0.6728
  129MOL    H3725893   7.621   1.921   7.629 -0.6249  1.0497  0.5406
  129MOL    H3825894   0.034   1.984   0.072 -2.0777 -0.6946  1.5734
  129MOL    H3925895   7.758   2.113   7.749  0.4273  0.7088  0.2615
  129MOL    H4025896   7.623   2.113   0.175 -0.0693  0.2264 -0.4457
  129MOL    H4125897   7.590   1.942   0.159  1.4892 -0.9153 -0.9590
  129MOL    O4225898   7.505   2.064   0.013 -0.0532 -0.2757  0.2572
  129MOL    C4325899   7.382   2.090   0.083 -0.0730 -0.4684 -0.0816
  129MOL    C4425900   7.287   2.152   7.765 -0.4263  0.2300  0.2291
  129MOL    C4525901   7.231   2.060   7.660 -0.6045 -0.2659  0.4868
  129MOL    H4625902   7.405   2.153   0.169  1.4768 -0.5843 -0.3904
  129MOL    H4725903   7.347   1.996   0.124  0.9311 -0.2511  1.3270
  129MOL    H4825904   7.194   2.189   0.020 -1.0095  0.3369 -1.0809
  129MOL    H4925905   7.343   2.229   7.713  3.2344 -1.5432  1.4214
  129MOL    H5025906   7.152   2.006   7.712 -2.4401  0.8486 -1.0636
  129MOL    H5125907   7.315   1.997   7.630 -2.3135 -1.6987 -1.4885
  129MOL    O5225908   7.173   2.131   7.548  0.1282 -0.4486 -0.1358
  129MOL    C5325909   7.116   2.050   7.440  0.7676  0.0126  0.1860
  129MOL    C5425910   7.063   2.145   7.331  0.2938  0.1423  0.5860
  129MOL    C5525911   7.001   2.067   7.218  0.4169  0.1278 -0.0433
  129MOL    H5625912   7.035   1.990   7.482  0.3259  0.2649 -0.3064
  129MOL    H5725913   7.196   1.988   7.400 -0.1919 -0.8939 -0.3351
  129MOL    H5825914   6.989   2.216   7.369  1.9098  1.2631  1.6979
  129MOL    H5925915   7.147   2.210   7.307 -0.3953  1.6174  2.0818
  129MOL    H6025916   6.911   2.011   7.244  0.0113  0.7274 -0.1468
  129MOL    H6125917   7.064   1.987   7.180  1.2902  1.3710 -1.2366
  129MOL    O6225918   6.969   2.158   7.113 -0.2653 -0.0213 -0.2131
  129MOL    C6325919   6.937   2.108   6.988 -0.5667  0.5880 -0.7031
  129MOL    C6425920   6.901   2.217   6.896 -0.0631  0.0214 -0.5047
  129MOL    C6525921   6.844   2.164   6.763 -0.0246  0.3206  0.2638
  129MOL    H6625922   6.868   2.025   7.001 -1.1565  1.3242  1.0683
  129MOL    H6725923   7.031   2.066   6.952  0.2579  3.0547 -1.5566
  129MOL    H6825924   6.835   2.284   6.952 -0.6072 -0.3052 -0.7430
  129MOL    H6925925   6.995   2.271   6.888 -1.2443  2.2679  0.4507
  129MOL    H7025926   6.743   2.124   6.772  0.4340 -1.3359 -1.5664
  129MOL    H7125927   6.904   2.083   6.720 -2.1540 -1.4179  0.4682
  129MOL    O7225928   6.841   2.273   6.674 -0.0554 -0.2432  0.1263
  129MOL    C7325929   6.770   2.233   6.555  0.3808 -0.3780  0.1788
  129MOL    C7425930   6.809   2.352   6.457 -0.7745 -0.1368 -0.4254
  129MOL    C7525931   6.715   2.359   6.336 -0.4245  0.3630  0.4567
  129MOL    H7625932   6.661   2.224   6.564  0.3629  0.7304  1.2113
  129MOL    H7725933   6.812   2.144   6.509  0.3552  0.2567 -1.1081
  129MOL    H7825934   6.797   2.448   6.508  1.7795  0.1241 -0.2370
  129MOL    H7925935   6.913   2.336   6.426 -0.4507  1.5107 -0.2297
  129MOL    H8025936   6.609   2.382   6.347 -0.6792  0.2199 -1.4431
  129MOL    H8125937   6.713   2.261   6.289 -0.6804  0.0097  1.2074
  129MOL    O8225938   6.755   2.438   6.229  0.0145 -0.3484  0.0133
  129MOL    C8325939   6.766   2.573   6.258  0.3140  0.1067 -0.1133
  129MOL    C8425940   6.917   2.615   6.243 -0.1711 -0.3146 -0.5974
  129MOL    C8525941   6.936   2.761   6.276 -0.7194  0.5247 -0.4937
  129MOL    H8625942   6.724   2.606   6.353  0.8985  1.6381 -0.3745
  129MOL    H8725943   6.712   2.629   6.182 -2.2304  0.8826  2.1934
  129MOL    H8825944   6.974   2.564   6.320  0.6270 -1.2424 -1.7893
  129MOL    H8925945   6.952   2.606   6.140  1.7430 -0.3142  0.0332
  129MOL    H9025946   6.903   2.795   6.374 -0.9314  0.9817 -0.7223
  129MOL    H9125947   6.891   2.827   6.202 -1.3839  1.9576  1.1656
  129MOL    O9225948   7.073   2.771   6.283 -0.4806  0.6268  0.7261
  129MOL    C9325949   7.104   2.906   6.319 -0.0035  0.0453 -0.5245
  129MOL    C9425950   7.263   2.906   6.292  0.2989 -0.1509  0.1608
  129MOL    C9525951   7.342   3.008   6.380 -0.4566  0.2192  0.0584
  129MOL    H9625952   7.084   2.934   6.423 -0.6274  1.0562 -0.9124
  129MOL    H9725953   7.057   2.981   6.257  0.6463 -0.3801 -1.5384
  129MOL    H9825954   7.307   2.811   6.321 -0.3701 -0.2068  1.0311
  129MOL    H9925955   7.286   2.916   6.186 -2.5956 -1.0589 -0.6076
  129MOL   H10025956   7.448   2.982   6.376 -0.6054 -0.3346 -0.3666
  129MOL   H10125957   7.321   3.005   6.487 -0.3247  0.6420  0.0988
  129MOL   O10225958   7.332   3.133   6.319  0.2560  0.5806 -0.2326
  129MOL   C10325959   7.410   3.243   6.369 -0.0601 -0.0469 -0.6456
  129MOL   C10425960   7.422   3.347   6.259 -0.0337 -0.2869  0.0598
  129MOL   C10525961   7.497   3.470   6.305 -0.4101 -0.0843 -0.2124
  129MOL   H10625962   7.511   3.219   6.404 -0.3285 -0.2378  0.0140
  129MOL   H10725963   7.354   3.284   6.453 -1.5032 -3.8564  0.3538
  129MOL   H10825964   7.477   3.306   6.173 -0.5954 -0.6736 -0.1218
  129MOL   H10925965   7.325   3.375   6.219  0.4949 -1.3501 -2.0815
  129MOL   H11025966   7.585   3.440   6.361 -1.3229 -1.5766  0.4521
  129MOL   H11125967   7.444   3.544   6.365  0.0405  0.7180 -0.7971
  129MOL   O11225968   7.541   3.549   6.193 -0.1427 -0.0286  0.3652
  129MOL   C11325969   7.595   3.669   6.248 -0.7721 -0.0165 -0.3181
  129MOL   C11425970   7.672   3.744   6.137  0.4675 -1.4038 -0.0054
  129MOL   C11525971   7.767   3.840   6.201  0.3315  0.1396  0.7595
  129MOL   H11625972   7.665   3.644   6.327 -1.9889  1.0921  1.1231
  129MOL   H11725973   7.513   3.725   6.293  1.4794  1.3545  2.1908
  129MOL   H11825974   7.728   3.671   6.079 -0.3489 -3.2196  1.4398
  129MOL   H11925975   7.599   3.788   6.068 -0.2593 -1.9039  0.4418
  129MOL   H12025976   0.042   3.799   6.280  0.3705  0.4427  0.8884
  129MOL   H12125977   7.708   3.916   6.253 -1.8149  0.1494 -1.6108
  129MOL   O12225978   0.067   3.886   6.100  0.2322  0.7092  0.3921
  129MOL   C12325979   0.147   3.997   6.147 -0.3121 -0.0938 -0.2778
  129MOL   C12425980   0.210   4.068   6.031  0.5631  0.3422  0.2163
  129MOL   C12525981   0.279   4.202   6.065 -0.3203  0.6092 -0.4530
  129MOL   H12625982   0.216   3.982   6.230  0.5445  0.9896 -0.7881
  129MOL   H12725983   0.074   4.060   6.198  0.4006 -0.1276  0.7925
  129MOL   H12825984   0.280   4.000   5.984  0.7551  0.1421  0.7927
  129MOL   H12925985   0.127   4.076   5.960  0.7941  2.4511  0.1372
  129MOL   H13025986   0.364   4.191   6.132 -0.8411 -0.6309  0.0150
  129MOL   H13125987   0.213   4.272   6.117  0.1445  0.4907  0.3046
  129MOL   O13225988   0.318   4.273   5.948 -0.3154 -0.2191  0.9162
  129MOL   C13325989   0.384   4.397   5.971 -0.2650 -0.0542 -0.3177
  129MOL   C13425990   0.287   4.520   5.958  0.0266 -0.5109 -0.6081
  129MOL   C13525991   0.240   4.559   5.813  0.0219 -0.5205 -0.7009
  129MOL   H13625992   0.450   4.412   5.886 -2.7591  0.9029 -2.1576
  129MOL   H13725993   0.438   4.414   6.063 -1.5410  2.4883  0.0026
  129MOL   H13825994   0.200   4.501   6.021  1.5878 -0.6022  1.5789
  129MOL   H13925995   0.336   4.602   6.010  0.2623 -1.2977  0.4100
  129MOL   H14025996   0.173   4.480   5.777  0.9947 -0.9767 -1.5410
  129MOL   H14125997   0.325   4.564   5.745  0.8431  0.2103  0.3833
  129MOL   O14225998   0.171   4.684   5.808 -0.4686 -0.2293 -0.0159
  129MOL   C14325999   0.091   4.705   5.692  0.2819 -0.8697 -0.4588
  129MOL   C14426000   0.010   4.835   5.708  0.4200  0.9754  0.2703
  129MOL   C14526001   7.677   4.853   5.611  0.0600  0.4522  0.1527
  129MOL   H14626002   0.024   4.620   5.683 -1.0720 -0.0055  0.9914
  129MOL   H14726003   0.150   4.711   5.601 -2.2425  4.2174 -1.9849
  129MOL   H14826004   7.748   4.830   5.805  0.1453  0.0325  0.0835
  129MOL   H14926005   0.078   4.920   5.709 -0.8136  1.9666  0.5448
  129MOL   H15026006   7.621   4.941   5.641 -2.5559  0.7788 -5.1534
  129MOL   H15126007   7.613   4.765   5.601 -0.1525  0.5630  0.5157
  129MOL   O15226008   7.731   4.896   5.487 -0.5525 -0.2218 -0.2574
  129MOL   C15326009   7.646   4.901   5.378 -0.0493 -0.4477  0.2244
  129MOL   C15426010   7.731   4.947   5.258 -0.4094 -0.1187  0.1254
  129MOL   C15526011   7.646   4.980   5.131  0.1312 -0.4803  0.4603
  129MOL   H15626012   7.562   4.968   5.394  0.7154  0.7680 -0.7960
  129MOL   H15726013   7.608   4.800   5.361  0.9131 -0.7758 -0.0293
  129MOL   H15826014   0.010   5.029   5.283  1.2548 -0.9427 -1.5386
  129MOL   H15926015   0.003   4.858   5.243  1.6923  0.9542  1.8028
  129MOL   H16026016   7.637   5.089   5.137  1.8386 -0.2904 -0.2518
  129MOL   H16126017   7.550   4.930   5.141 -0.6178  1.2150  1.9978
  129MOL   O16226018   7.712   4.936   5.010 -0.3348  0.5732  0.1745
  129MOL   C16326019   7.679   5.012   4.889 -0.1898 -0.6343  0.5122
  129MOL   C16426020   0.014   4.992   4.802 -1.4615 -0.0428 -0.7073
  129MOL   C16526021   0.021   4.851   4.743 -0.4440 -0.5905  0.0191
  129MOL   H16626022   7.661   5.116   4.915  3.2530 -0.2955  1.7706
  129MOL   H16726023   7.586   4.968   4.853 -1.3086  0.7562  1.6556
  129MOL   H16826024   0.023   5.064   4.720  3.2524  0.7111  0.3516
  129MOL   H16926025   0.101   5.007   4.866 -2.8100  2.4829  0.6158
  129MOL   H17026026   7.725   4.844   4.674  0.1225 -2.0473 -0.5247
  129MOL   H17126027   0.017   4.768   4.813 -0.1674 -1.1995 -0.6721
  129MOL   O17226028   0.146   4.835   4.673 -0.4354 -0.0402  0.2431
  129MOL   C17326029   0.159   4.709   4.602 -0.6009 -0.3607 -0.2474
  129MOL   C17426030   0.298   4.689   4.535  0.7041 -0.7409 -0.8344
  129MOL   C17526031   0.293   4.567   4.444 -0.2105 -0.5176  0.0325
  129MOL   H17626032   0.074   4.699   4.534 -2.2022  0.4210  1.5785
  129MOL   H17726033   0.147   4.631   4.677 -2.0052 -0.2827 -0.3656
  129MOL   H17826034   0.341   4.767   4.472  0.4300 -1.1686 -1.5501
  129MOL   H17926035   0.373   4.665   4.611  0.0788  1.7182  0.6360
  129MOL   H18026036   0.224   4.589   4.363 -0.2834 -1.4475 -0.1620
  129MOL   H18126037   0.269   4.475   4.498  1.8843 -0.3723  1.2489
  129MOL   O18226038   0.424   4.547   4.395  0.0761  0.4178 -0.2585
  129MOL   C18326039   0.433   4.452   4.285 -0.4109  0.2163 -0.0068
  129MOL   C18426040   0.556   4.486   4.204  0.1511  0.7842 -0.6488
  129MOL   C18526041   0.539   4.613   4.120  0.2526  0.2627 -0.4593
  129MOL   H18626042   0.346   4.449   4.219 -0.4617  2.0479 -0.0361
  129MOL   H18726043   0.434   4.350   4.324  0.1629  0.8779  1.7473
  129MOL   H18826044   0.650   4.492   4.260  0.7968  0.3297 -1.6768
  129MOL   H18926045   0.554   4.397   4.141  0.5088  0.0359  0.3697
  129MOL   H19026046   0.529   4.693   4.193  2.3144  1.2166 -1.1818
  129MOL   H19126047   0.443   4.614   4.067 -0.5334 -2.5913  0.8421
  129MOL   O19226048   0.651   4.617   4.031 -0.0758 -0.1430 -0.3490
  129MOL   C19326049   0.684   4.744   3.977 -0.6309 -0.1630 -0.1163
  129MOL   C19426050   0.778   4.712   3.864 -0.2206  0.2738  0.7560
  129MOL   C19526051   0.721   4.604   3.771  0.1769 -0.2017  0.1186
  129MOL   H19626052   0.731   4.814   4.047 -0.9535  0.5137 -0.5646
  129MOL   H19726053   0.597   4.786   3.928 -1.4275 -0.9641  0.6069
  129MOL   H19826054   0.812   4.799   3.808  0.8538 -0.6522 -0.0522
  129MOL   H19926055   0.871   4.673   3.905 -0.3530  0.3822  1.1661
  129MOL   H20026056   0.686   4.512   3.819  1.7021 -1.8787 -1.8757
  129MOL   H20126057   0.798   4.573   3.700  2.1796  3.3760  0.6316
  129MOL   H20226058   0.639   4.636   3.707 -0.1510 -0.0812  0.5982
  130MOL     O126059   6.269   6.384   5.503  0.1907 -0.7741 -0.1280
  130MOL     C226060   6.169   6.488   5.483 -1.2132  0.3734 -0.1958
  130MOL     C326061   6.190   6.602   5.589  0.6919  0.2502 -0.5572
  130MOL     C426062   6.073   6.701   5.576  0.0688  0.7925  0.1397
  130MOL     H526063   6.073   6.440   5.504 -0.2313 -1.4970  0.0992
  130MOL     H626064   6.159   6.533   5.385 -0.5427  0.6578 -0.1337
  130MOL     H726065   6.202   6.575   5.694  0.9954 -1.0536 -0.9214
  130MOL     H826066   6.280   6.663   5.577  0.1175  1.2135 -0.0213
  130MOL     H926067   5.973   6.658   5.575 -0.0369  1.0487 -0.4322
  130MOL    H1026068   6.085   6.759   5.484  2.1432  0.0298 -0.1006
  130MOL    H1126069   6.338   6.412   5.446 -0.0111  0.6090  0.2819
  130MOL    O1226070   6.082   6.819   5.657 -0.0061  0.1127  0.5142
  130MOL    C1326071   6.035   6.804   5.789  0.9687  0.2929  0.8667
  130MOL    C1426072   6.019   6.926   5.869 -0.3256 -0.3817  0.9649
  130MOL    C1526073   5.964   6.894   6.015  0.5923 -0.5208  0.1963
  130MOL    H1626074   6.089   6.723   5.838 -0.8684 -0.6340  1.3970
  130MOL    H1726075   5.935   6.762   5.778  0.7803  0.5835  1.4330
  130MOL    H1826076   6.111   6.978   5.895 -1.2226  1.7479 -0.0445
  130MOL    H1926077   5.952   7.000   5.824  0.8369  1.1783  1.7800
  130MOL    H2026078   5.937   6.980   6.077  0.7537 -0.6059  0.3874
  130MOL    H2126079   6.055   6.864   6.067  0.4366 -1.5229 -0.0970
  130MOL    O2226080   5.857   6.793   6.014 -0.1103 -0.4459 -0.5565
  130MOL    C2326081   5.746   6.826   6.096 -0.8685 -0.0514  0.0416
  130MOL    C2426082   5.627   6.725   6.085 -0.4561 -0.6454  0.4203
  130MOL    C2526083   5.499   6.788   6.144  0.7801  0.2515  1.1379
  130MOL    H2626084   5.713   6.928   6.072  0.7334  1.1773  2.8990
  130MOL    H2726085   5.774   6.837   6.200 -3.5449 -0.7046  0.8893
  130MOL    H2826086   5.608   6.692   5.983 -4.8266  0.7629  0.6741
  130MOL    H2926087   5.643   6.629   6.134 -3.4933 -3.0950 -3.1375
  130MOL    H3026088   5.482   6.885   6.098  1.8229 -0.1646 -0.1572
  130MOL    H3126089   5.515   6.799   6.251  1.9762  1.6685  0.8220
  130MOL    O3226090   5.402   6.683   6.139  0.0469 -0.3670  0.0714
  130MOL    C3326091   5.263   6.712   6.164 -0.2404 -0.2383  0.4262
  130MOL    C3426092   5.178   6.587   6.133 -0.1740 -0.0790 -1.2428
  130MOL    C3526093   5.165   6.501   6.263 -0.8739  0.4004 -0.8205
  130MOL    H3626094   5.234   6.794   6.100 -2.5342  0.6589  2.5214
  130MOL    H3726095   5.253   6.751   6.265 -1.4023 -0.8956  0.5767
  130MOL    H3826096   5.077   6.616   6.104 -0.9008 -1.7774 -0.5042
  130MOL    H3926097   5.223   6.535   6.049  1.3078  3.3421 -2.6236
  130MOL    H4026098   5.116   6.559   6.341 -0.8114 -0.8783  0.1826
  130MOL    H4126099   5.264   6.474   6.300 -1.7252 -1.5016  0.1477
  130MOL    O4226100   5.087   6.388   6.242 -0.8539 -0.6321 -0.0263
  130MOL    C4326101   5.105   6.295   6.342  0.1205  0.6782 -0.3221
  130MOL    C4426102   5.051   6.156   6.294 -0.0611  0.2180 -0.7292
  130MOL    C4526103   5.131   6.091   6.174  0.3291 -0.6269  0.6525
  130MOL    H4626104   5.049   6.326   6.430 -0.3448 -1.1567  0.0455
  130MOL    H4726105   5.211   6.293   6.369  0.3715 -1.3266 -1.3230
  130MOL    H4826106   5.059   6.087   6.378  1.6691 -0.2488 -1.2692
  130MOL    H4926107   4.947   6.163   6.259  0.1683  0.4559 -1.3722
  130MOL    H5026108   5.236   6.087   6.202  0.0199 -2.2094  1.6290
  130MOL    H5126109   5.125   6.153   6.084 -0.7794 -2.3596 -0.4831
  130MOL    O5226110   5.087   5.958   6.153  0.1189 -0.1617  0.5167
  130MOL    C5326111   5.155   5.903   6.042 -0.0812 -0.3448  0.1508
  130MOL    C5426112   5.129   5.754   6.032  0.8673 -0.2927  0.5504
  130MOL    C5526113   5.211   5.678   5.923  0.0120  0.2323  0.2763
  130MOL    H5626114   5.263   5.910   6.057 -0.0467 -0.5367 -0.0065
  130MOL    H5726115   5.125   5.950   5.948  3.1899 -0.5857 -1.0920
  130MOL    H5826116   5.150   5.703   6.126 -3.2719 -0.9872  1.2246
  130MOL    H5926117   5.024   5.724   6.019  1.2700 -1.0786 -1.1057
  130MOL    H6026118   5.315   5.703   5.944 -0.2840  0.9442  0.9114
  130MOL    H6126119   5.198   5.716   5.822  0.6216  4.7124  1.7734
  130MOL    O6226120   5.191   5.540   5.930 -0.5960 -0.1797 -0.4610
  130MOL    C6326121   5.184   5.476   5.802 -0.0424  0.4892  0.3198
  130MOL    C6426122   5.158   5.327   5.814 -1.1014  0.1286 -0.3178
  130MOL    C6526123   5.155   5.262   5.678  0.3759  0.8514  0.0471
  130MOL    H6626124   5.270   5.500   5.739 -0.3015  0.5546 -0.0071
  130MOL    H6726125   5.101   5.524   5.750 -0.4389 -0.7360 -0.2014
  130MOL    H6826126   5.238   5.299   5.882 -1.0722  1.9875  0.4333
  130MOL    H6926127   5.062   5.319   5.864 -2.6082  0.1308 -3.1213
  130MOL    H7026128   5.241   5.277   5.613  0.3241 -2.3030 -0.8288
  130MOL    H7126129   5.066   5.304   5.630  0.9357  1.7157 -0.2499
  130MOL    O7226130   5.128   5.125   5.695 -0.3683 -0.3656  0.6291
  130MOL    C7326131   5.150   5.058   5.571 -0.1039 -0.1428  0.6734
  130MOL    C7426132   5.087   4.916   5.584  0.3741  0.3664 -0.1408
  130MOL    C7526133   5.157   4.824   5.679 -0.3547 -0.1697  0.0312
  130MOL    H7626134   5.255   5.061   5.545 -0.4978 -0.1532 -0.9599
  130MOL    H7726135   5.100   5.117   5.494 -0.4502  1.0555  1.8072
  130MOL    H7826136   4.982   4.937   5.606  0.1854 -0.5215 -0.1812
  130MOL    H7926137   5.097   4.877   5.483 -1.4344 -0.6451  0.0475
  130MOL    H8026138   5.112   4.849   5.775 -0.2655 -1.9701  0.5594
  130MOL    H8126139   5.261   4.853   5.691 -0.6739  1.2763 -0.6311
  130MOL    O8226140   5.121   4.687   5.655  0.6723  0.3102  0.5867
  130MOL    C8326141   5.195   4.594   5.725 -0.0679 -0.8930  0.7074
  130MOL    C8426142   5.103   4.474   5.751 -0.2634  0.0268  0.6264
  130MOL    C8526143   5.039   4.398   5.631  0.1764 -0.0363 -0.8685
  130MOL    H8626144   5.238   4.637   5.816  0.3686  0.1872  0.0011
  130MOL    H8726145   5.273   4.574   5.652 -0.2550  0.6425  0.0703
  130MOL    H8826146   5.168   4.402   5.801  1.4056 -0.4725 -2.1510
  130MOL    H8926147   5.024   4.498   5.822 -0.3940  0.3059  0.3877
  130MOL    H9026148   5.099   4.381   5.542  2.9763 -2.1565  1.3802
  130MOL    H9126149   4.955   4.461   5.600 -0.6372 -1.4924 -1.6938
  130MOL    O9226150   4.992   4.275   5.679  0.1808  0.1875 -0.0594
  130MOL    C9326151   4.910   4.206   5.588  0.4920 -0.2247 -0.1567
  130MOL    C9426152   4.883   4.063   5.642  0.2891 -0.5414 -0.3882
  130MOL    C9526153   5.003   3.977   5.646 -0.1688 -0.2062 -0.6711
  130MOL    H9626154   4.952   4.206   5.488  0.5972 -4.2685 -0.2054
  130MOL    H9726155   4.808   4.245   5.590 -0.1552 -1.7986 -1.1824
  130MOL    H9826156   4.846   4.063   5.745  1.1087 -1.7038 -0.0848
  130MOL    H9926157   4.804   4.017   5.583  0.1682 -0.2192 -0.4758
  130MOL   H10026158   5.065   3.999   5.733 -1.6369  1.6441 -0.0441
  130MOL   H10126159   5.057   3.997   5.553  0.4764  0.4152 -0.1699
  130MOL   O10226160   4.963   3.833   5.653  0.1578 -0.4855  0.3733
  130MOL   C10326161   5.079   3.748   5.652 -0.4139  0.1538 -0.5401
  130MOL   C10426162   5.044   3.607   5.653 -0.9765 -0.1065 -0.5239
  130MOL   C10526163   5.169   3.522   5.642 -0.0055  0.2123  0.0363
  130MOL   H10626164   5.134   3.788   5.737 -2.6270  1.2765  0.4120
  130MOL   H10726165   5.134   3.772   5.561  0.7243  0.0643  0.1126
  130MOL   H10826166   4.997   3.584   5.749  1.0285  1.1405  0.8014
  130MOL   H10926167   4.972   3.574   5.579 -0.3583  0.1854 -1.2581
  130MOL   H11026168   5.244   3.557   5.713  0.4870 -0.5700 -0.0904
  130MOL   H11126169   5.209   3.536   5.542  0.0229 -1.0898 -0.1412
  130MOL   O11226170   5.118   3.387   5.651 -0.1815 -0.5595  0.1511
  130MOL   C11326171   5.222   3.296   5.647 -0.0416 -0.1104  0.4549
  130MOL   C11426172   5.166   3.162   5.678 -1.2837  0.5187 -0.3974
  130MOL   C11526173   5.293   3.061   5.676 -0.1269 -0.9558  0.2473
  130MOL   H11626174   5.299   3.319   5.721 -1.9430  0.6704  2.2132
  130MOL   H11726175   5.276   3.298   5.552 -0.9641 -0.3260 -0.0836
  130MOL   H11826176   5.133   3.154   5.781 -0.1006 -1.8160 -0.1690
  130MOL   H11926177   5.086   3.127   5.613  0.0318 -1.1394 -1.1762
  130MOL   H12026178   5.309   3.033   5.572 -0.6528  0.1485 -0.1365
  130MOL   H12126179   5.271   2.978   5.743  0.7399  1.5464  3.7933
  130MOL   O12226180   5.402   3.117   5.747 -0.3236  0.1829  0.4254
  130MOL   C12326181   5.521   3.041   5.744 -0.2116 -0.1767  0.0932
  130MOL   C12426182   5.597   3.095   5.867 -0.4522  0.0423  0.1693
  130MOL   C12526183   5.728   3.032   5.900 -0.0283 -0.0431 -0.5249
  130MOL   H12626184   5.577   3.059   5.653 -0.8451  3.6991  0.3866
  130MOL   H12726185   5.495   2.938   5.771 -1.1369 -0.4498 -1.8184
  130MOL   H12826186   5.605   3.204   5.860  1.7139 -0.0136  1.2246
  130MOL   H12926187   5.538   3.089   5.958  0.9458  2.7607  1.3182
  130MOL   H13026188   5.802   3.052   5.822  1.2074 -0.3995  0.5232
  130MOL   H13126189   5.734   2.925   5.922  0.7080  0.2992  0.9920
  130MOL   O13226190   5.780   3.099   6.008  0.5242 -0.0653 -0.5163
  130MOL   C13326191   5.925   3.117   5.996 -0.4302 -0.3268 -0.2078
  130MOL   C13426192   5.976   3.165   6.129  0.4469  0.7068 -0.0063
  130MOL   C13526193   6.127   3.178   6.135 -0.9094  0.2672  0.6422
  130MOL   H13626194   5.959   3.187   5.919 -0.1659  0.9517  1.0521
  130MOL   H13726195   5.968   3.020   5.973  0.1000 -0.2254  0.3549
  130MOL   H13826196   5.933   3.264   6.147  1.5482  1.6689 -2.5331
  130MOL   H13926197   5.944   3.099   6.210  1.1495  2.5095  1.7966
  130MOL   H14026198   6.183   3.086   6.151  1.0530  1.4911  0.9454
  130MOL   H14126199   6.151   3.216   6.234  0.8817  1.1711 -0.1210
  130MOL   O14226200   6.174   3.255   6.023  0.3958  0.3045  0.3598
  130MOL   C14326201   6.316   3.279   6.031  0.1026  0.0757 -0.7381
  130MOL   C14426202   6.368   3.355   5.912  0.7144 -0.2902  0.0694
  130MOL   C14526203   6.518   3.381   5.898 -0.2320 -0.6821  0.4597
  130MOL   H14626204   6.372   3.186   6.043 -0.1238  0.0809  0.4596
  130MOL   H14726205   6.345   3.344   6.113 -2.6054  1.3597 -0.7538
  130MOL   H14826206   6.350   3.305   5.817  2.3756  1.6894 -1.3465
  130MOL   H14926207   6.312   3.447   5.897 -0.6403 -1.1082  0.0694
  130MOL   H15026208   6.556   3.280   5.910  0.4536 -0.7441 -1.9902
  130MOL   H15126209   6.564   3.440   5.978 -1.1148 -0.4994  0.8384
  130MOL   O15226210   6.549   3.440   5.770  0.0134 -0.1455 -0.1141
  130MOL   C15326211   6.678   3.444   5.727  0.6138  0.3155 -0.2811
  130MOL   C15426212   6.725   3.305   5.676  0.9710  0.0430  0.0075
  130MOL   C15526213   6.860   3.312   5.615 -0.2871 -0.0410  0.3190
  130MOL   H15626214   6.736   3.473   5.815 -1.0735  2.1113  0.2767
  130MOL   H15726215   6.676   3.522   5.651  1.1833  1.0801  0.4821
  130MOL   H15826216   6.707   3.230   5.753 -0.3871 -0.9154 -1.2087
  130MOL   H15926217   6.658   3.272   5.595 -2.2364 -2.2289  3.4137
  130MOL   H16026218   6.859   3.385   5.534  2.8745  1.4134  1.5062
  130MOL   H16126219   6.884   3.209   5.588  0.7998  0.8126 -2.1745
  130MOL   O16226220   6.944   3.366   5.718 -0.0795  0.3600  0.5563
  130MOL   C16326221   7.079   3.347   5.679  0.7955 -0.7876 -0.2059
  130MOL   C16426222   7.163   3.375   5.803  1.0218  0.8035 -0.0736
  130MOL   C16526223   7.159   3.271   5.918 -0.0599 -0.8734  0.3060
  130MOL   H16626224   7.102   3.409   5.592 -0.7167 -0.1201 -0.1436
  130MOL   H16726225   7.100   3.245   5.645  3.2889 -0.9503  1.6816
  130MOL   H16826226   7.268   3.373   5.771  1.2515  0.8388  0.6588
  130MOL   H16926227   7.145   3.476   5.840  0.5717 -0.0603  2.1474
  130MOL   H17026228   7.054   3.269   5.948 -0.0355  1.6874  0.6575
  130MOL   H17126229   7.216   3.298   6.006  1.2679  0.5262 -0.9608
  130MOL   O17226230   7.202   3.145   5.860 -0.5290 -0.0960 -0.2376
  130MOL   C17326231   7.173   3.037   5.951 -0.0947 -0.5331 -0.3186
  130MOL   C17426232   7.045   2.955   5.932  0.1911  0.0756  0.2241
  130MOL   C17526233   6.911   3.011   5.959  1.1259 -0.4103  0.0301
  130MOL   H17626234   7.182   3.071   6.054 -1.8068  2.3305 -1.0475
  130MOL   H17726235   7.257   2.968   5.945 -0.1592 -0.4482 -3.3464
  130MOL   H17826236   7.044   2.916   5.830  0.7443 -0.3395  0.3758
  130MOL   H17926237   7.058   2.874   6.004  1.8035  0.1909  0.0797
  130MOL   H18026238   6.881   3.080   5.880 -3.4319 -1.0568  1.0722
  130MOL   H18126239   6.897   3.063   6.053  0.2163 -1.5352  0.5235
  130MOL   O18226240   6.816   2.909   5.965 -0.0247  0.2084  0.4255
  130MOL   C18326241   6.688   2.945   6.007 -0.0146 -0.6164  0.1590
  130MOL   C18426242   6.591   2.836   5.965 -0.5152 -0.4983 -0.2347
  130MOL   C18526243   6.467   2.817   6.057 -0.5742 -0.6990  0.5900
  130MOL   H18626244   6.650   3.035   5.958  0.5321  0.3764  1.5357
  130MOL   H18726245   6.687   2.960   6.115  0.1871  1.0437 -0.0573
  130MOL   H18826246   6.547   2.843   5.866 -1.0218 -1.5817 -0.0918
  130MOL   H18926247   6.641   2.741   5.947 -0.8081 -0.9467  1.2327
  130MOL   H19026248   6.388   2.766   6.002 -0.6713  0.8303 -0.7326
  130MOL   H19126249   6.436   2.917   6.086 -0.2250 -0.7082  1.0054
  130MOL   O19226250   6.500   2.742   6.171 -0.0853 -0.1082  0.1377
  130MOL   C19326251   6.405   2.759   6.281  0.6603 -0.3820 -0.8773
  130MOL   C19426252   6.465   2.688   6.396 -0.1942  0.2452  0.5043
  130MOL   C19526253   6.571   2.776   6.479  0.1270  0.1285  0.8691
  130MOL   H19626254   6.310   2.715   6.249  1.0434 -0.4693 -1.9145
  130MOL   H19726255   6.398   2.865   6.303  0.4266 -0.6998  0.6255
  130MOL   H19826256   6.383   2.660   6.463 -0.1269  2.2335  1.4437
  130MOL   H19926257   6.508   2.593   6.364 -0.3798 -0.0484  1.1132
  130MOL   H20026258   6.516   2.860   6.520  0.1515  0.1352  0.8865
  130MOL   H20126259   6.661   2.801   6.423  2.0817 -3.3992  2.2739
  130MOL   H20226260   6.615   2.708   6.552  1.8192  0.8804  0.5658
  131MOL     O126261   7.701   6.815   7.010  0.6816 -0.3618  0.6060
  131MOL     C226262   7.637   6.910   6.939  0.4890 -0.3760 -0.8138
  131MOL     C326263   7.739   6.973   6.849  0.3922 -0.4693 -0.2911
  131MOL     C426264   0.085   7.026   6.913  0.4380  0.1754  1.2527
  131MOL     H526265   7.592   6.973   7.015  1.9455  0.0168 -0.2481
  131MOL     H626266   7.551   6.874   6.883 -0.7314  1.3005 -0.0703
  131MOL     H726267   7.763   6.901   6.771  0.4296 -1.4556  0.6122
  131MOL     H826268   7.691   7.063   6.810  0.2181  0.2750  1.5598
  131MOL     H926269   0.144   6.953   6.968  0.0285 -2.0177 -1.1406
  131MOL    H1026270   0.066   7.113   6.977 -0.1938 -0.4304  1.8972
  131MOL    H1126271   7.648   6.790   7.085  0.5152 -1.9903 -0.0464
  131MOL    O1226272   0.161   7.076   6.806 -0.4479  0.5209  0.1415
  131MOL    C1326273   0.301   7.097   6.835 -0.8593  0.0578  0.1375
  131MOL    C1426274   0.366   7.160   6.710 -0.4274  0.0794  0.2822
  131MOL    C1526275   0.505   7.220   6.728 -0.5191  0.0767 -0.5374
  131MOL    H1626276   0.354   7.009   6.870 -2.3286  0.1074  2.6369
  131MOL    H1726277   0.319   7.170   6.914  0.2674  0.3506 -0.3859
  131MOL    H1826278   0.388   7.083   6.636  1.4629  0.1839  0.7276
  131MOL    H1926279   0.304   7.233   6.657  0.6981 -0.6994 -2.1704
  131MOL    H2026280   0.580   7.153   6.768 -1.0338 -0.4755 -0.4933
  131MOL    H2126281   0.483   7.303   6.796 -0.5047 -0.3300 -0.0370
  131MOL    O2226282   0.551   7.280   6.606  0.4095  0.4446 -0.0469
  131MOL    C2326283   0.628   7.204   6.520  0.6591  0.1630 -0.0001
  131MOL    C2426284   0.776   7.242   6.535 -0.1646 -0.2662 -0.0915
  131MOL    C2526285   0.867   7.177   6.420 -0.4086  0.3182 -0.0421
  131MOL    H2626286   0.606   7.229   6.416  1.5577 -0.8491 -0.4424
  131MOL    H2726287   0.606   7.098   6.531  0.5899 -0.1254 -2.5415
  131MOL    H2826288   0.791   7.350   6.525  1.5598 -0.4592  0.2618
  131MOL    H2926289   0.808   7.206   6.632 -0.5011  0.5475  0.3267
  131MOL    H3026290   0.973   7.203   6.425 -1.1642  3.3202  1.1363
  131MOL    H3126291   0.831   7.212   6.324  0.9149 -0.5211 -0.8679
  131MOL    O3226292   0.839   7.038   6.430 -0.1295 -0.1757 -0.3583
  131MOL    C3326293   0.871   6.961   6.321  0.5179 -0.3353  0.3429
  131MOL    C3426294   0.807   6.818   6.321 -0.6852 -0.3647 -0.2331
  131MOL    C3526295   0.847   6.720   6.207 -0.2158 -0.3365  0.2442
  131MOL    H3626296   0.979   6.951   6.323  0.3700 -1.8544  1.3952
  131MOL    H3726297   0.841   6.998   6.223  0.9413  0.6369  0.5765
  131MOL    H3826298   0.844   6.772   6.412 -1.5729 -3.0904 -1.1947
  131MOL    H3926299   0.699   6.826   6.331 -0.5031  1.3371  0.5374
  131MOL    H4026300   0.953   6.694   6.213  0.2852  1.0820 -2.1109
  131MOL    H4126301   0.813   6.762   6.112 -0.1870  0.2380  0.4867
  131MOL    O4226302   0.782   6.594   6.219  0.1090  0.1030 -0.4308
  131MOL    C4326303   0.847   6.486   6.150 -0.3546  0.3398  0.5818
  131MOL    C4426304   0.802   6.361   6.219 -0.6638 -0.6015 -0.0555
  131MOL    C4526305   0.662   6.331   6.188 -0.6729 -0.5696  0.8738
  131MOL    H4626306   0.956   6.482   6.143 -0.4547  0.8955 -1.3930
  131MOL    H4726307   0.818   6.479   6.045  0.5274  3.4295  0.0831
  131MOL    H4826308   0.864   6.284   6.172  2.5141  1.9608 -0.2209
  131MOL    H4926309   0.821   6.369   6.326 -4.3167 -2.7388  0.8459
  131MOL    H5026310   0.647   6.291   6.087  1.4556 -0.2220  0.3788
  131MOL    H5126311   0.604   6.423   6.179  0.2483 -0.0815 -0.2815
  131MOL    O5226312   0.608   6.250   6.287  0.0632  0.2718 -0.6580
  131MOL    C5326313   0.467   6.226   6.286  0.4678 -0.0224  0.1432
  131MOL    C5426314   0.426   6.172   6.421  0.3104  0.4039  0.0211
  131MOL    C5526315   0.464   6.023   6.440 -0.4448 -0.0402 -0.2901
  131MOL    H5626316   0.437   6.148   6.217  1.5540  0.9314 -1.4315
  131MOL    H5726317   0.410   6.315   6.259  0.6518 -0.6162 -2.2532
  131MOL    H5826318   0.487   6.227   6.493  0.6403  0.1957 -0.1021
  131MOL    H5926319   0.331   6.214   6.453  0.3481 -0.1140  0.8475
  131MOL    H6026320   0.472   6.000   6.546 -0.4623  2.3767  0.2812
  131MOL    H6126321   0.555   6.007   6.381  0.3137 -0.5142  0.9823
  131MOL    O6226322   0.357   5.952   6.391  0.3443  0.5266 -0.1313
  131MOL    C6326323   0.375   5.809   6.393 -0.4069 -0.6836 -0.2804
  131MOL    C6426324   0.254   5.736   6.330 -0.2734  0.9263 -0.0878
  131MOL    C6526325   0.259   5.581   6.350 -0.1646  0.3741 -1.0089
  131MOL    H6626326   0.380   5.782   6.498  0.4212  2.1581  0.4557
  131MOL    H6726327   0.467   5.791   6.338 -0.0956  2.9715 -1.0754
  131MOL    H6826328   0.170   5.773   6.389 -0.7313 -0.8703  0.3951
  131MOL    H6926329   0.239   5.761   6.225 -0.8697  1.2846  0.0790
  131MOL    H7026330   0.280   5.568   6.456  3.2154  2.0546 -1.4043
  131MOL    H7126331   0.344   5.544   6.293  0.7429 -0.3489  0.7595
  131MOL    O7226332   0.141   5.516   6.306 -0.6395  0.1271  0.4573
  131MOL    C7326333   0.155   5.376   6.290 -0.1782  0.3225  0.5850
  131MOL    C7426334   0.018   5.313   6.274 -0.0893  0.0715  0.8997
  131MOL    C7526335   7.740   5.273   6.402 -0.5477  0.4503 -0.7274
  131MOL    H7626336   0.206   5.329   6.374  0.0814  2.1865  1.5070
  131MOL    H7726337   0.212   5.363   6.198 -0.1590 -0.8074  0.7529
  131MOL    H7826338   7.748   5.368   6.200  1.1906 -1.2279 -1.1138
  131MOL    H7926339   0.036   5.220   6.220  2.5081  1.9958 -1.7180
  131MOL    H8026340   7.711   5.369   6.444 -0.2699 -0.3756  1.4329
  131MOL    H8126341   0.024   5.231   6.472  0.0036  2.2050 -0.2043
  131MOL    O8226342   7.630   5.184   6.373  0.4538 -0.4074  0.3126
  131MOL    C8326343   7.551   5.151   6.479  0.0621  0.5057 -0.0172
  131MOL    C8426344   7.444   5.052   6.438  0.1795 -0.5068 -0.2581
  131MOL    C8526345   7.341   5.030   6.548  0.0386 -0.1393 -0.0265
  131MOL    H8626346   7.512   5.244   6.518  0.7423  0.8552 -0.1569
  131MOL    H8726347   7.618   5.110   6.554 -0.7914  0.2683  0.6201
  131MOL    H8826348   7.398   5.087   6.346  0.0135  0.4114  0.1705
  131MOL    H8926349   7.492   4.958   6.409 -1.9169 -2.4696  2.3209
  131MOL    H9026350   7.387   4.994   6.641  0.1536  0.0915  0.0069
  131MOL    H9126351   7.274   4.948   6.523 -3.2962  2.0960  1.2796
  131MOL    O9226352   7.266   5.146   6.572 -0.2256 -0.4189 -0.2891
  131MOL    C9326353   7.161   5.114   6.660 -0.6231 -0.4225  0.2167
  131MOL    C9426354   7.079   5.240   6.656  0.2862 -0.2122 -0.1151
  131MOL    C9526355   7.133   5.350   6.754  0.1101 -0.8569 -0.4421
  131MOL    H9626356   7.198   5.097   6.761  1.9173 -0.3405 -0.6503
  131MOL    H9726357   7.107   5.024   6.632  2.4128 -1.8633 -1.2705
  131MOL    H9826358   7.075   5.285   6.557  1.0826  0.5081  0.1745
  131MOL    H9926359   6.976   5.218   6.683 -0.5301 -0.6227 -3.3492
  131MOL   H10026360   7.240   5.365   6.737  0.1634 -2.6350 -1.8203
  131MOL   H10126361   7.137   5.307   6.854 -0.0796  1.6222  0.6619
  131MOL   O10226362   7.068   5.471   6.743 -0.2118  0.2992  0.1667
  131MOL   C10326363   7.094   5.562   6.845 -0.7040 -0.4971 -0.1441
  131MOL   C10426364   7.021   5.689   6.814 -0.5684  0.6497  0.4502
  131MOL   C10526365   7.032   5.800   6.924  0.2916  0.6843  0.2989
  131MOL   H10626366   7.199   5.587   6.860 -0.7515 -0.4960  0.1865
  131MOL   H10726367   7.050   5.515   6.933  1.7118  0.0958  1.4403
  131MOL   H10826368   7.062   5.738   6.725 -0.8457 -0.1656 -0.1305
  131MOL   H10926369   6.917   5.664   6.794 -0.1871 -0.1002 -0.5951
  131MOL   H11026370   7.140   5.811   6.934  0.1160  1.3240  1.4993
  131MOL   H11126371   7.003   5.760   7.021  0.7132 -0.1509  0.0881
  131MOL   O11226372   6.966   5.920   6.879 -0.3551 -0.8807  0.2774
  131MOL   C11326373   6.936   6.019   6.974 -0.0525 -0.2277 -0.6128
  131MOL   C11426374   6.991   6.144   6.909  0.5578  0.1176 -0.4416
  131MOL   C11526375   6.968   6.271   6.989  0.2853 -0.3850  0.1148
  131MOL   H11626376   6.983   6.014   7.073 -0.3466  3.6631 -0.2125
  131MOL   H11726377   6.833   6.024   7.007  0.0535  1.1728 -0.4835
  131MOL   H11826378   7.094   6.115   6.886 -0.0581 -2.1489 -0.4797
  131MOL   H11926379   6.939   6.158   6.815  0.7036  1.2320 -0.3668
  131MOL   H12026380   7.000   6.258   7.092  0.2209  2.2083  0.4898
  131MOL   H12126381   6.860   6.279   6.996  0.1239 -2.7447  0.7637
  131MOL   O12226382   7.021   6.385   6.926 -0.2496  0.0165  0.4513
  131MOL   C12326383   7.156   6.403   6.963 -0.4569  0.1570  0.4433
  131MOL   C12426384   7.219   6.506   6.870 -0.0311  0.6770 -0.0839
  131MOL   C12526385   7.130   6.632   6.856 -0.0508 -0.2880 -0.3518
  131MOL   H12626386   7.213   6.312   6.982  2.7007  1.3924 -2.6587
  131MOL   H12726387   7.158   6.439   7.066  1.8656 -0.1171  0.5115
  131MOL   H12826388   7.316   6.541   6.905 -0.1418  1.1955 -0.2860
  131MOL   H12926389   7.239   6.459   6.774  0.1337 -1.0479  0.7698
  131MOL   H13026390   7.102   6.665   6.956  3.5584 -0.3078  0.7181
  131MOL   H13126391   7.035   6.610   6.808  0.3290 -0.7225 -0.8998
  131MOL   O13226392   7.190   6.754   6.802  0.1367 -0.0238  0.8728
  131MOL   C13326393   7.236   6.739   6.665 -0.7462 -0.0173 -0.8068
  131MOL   C13426394   7.316   6.861   6.624 -0.3146  0.0174  0.1385
  131MOL   C13526395   7.232   6.974   6.575  0.1936 -0.0945 -0.8394
  131MOL   H13626396   7.157   6.715   6.593  0.2022 -1.2392 -1.4662
  131MOL   H13726397   7.318   6.668   6.659 -0.4656  0.2262  0.1260
  131MOL   H13826398   7.381   6.889   6.707  1.2414 -0.5909 -0.8622
  131MOL   H13926399   7.391   6.841   6.548 -2.1089 -3.6272 -0.7675
  131MOL   H14026400   7.298   7.061   6.581 -0.4935  0.2738  1.6117
  131MOL   H14126401   7.142   6.986   6.635  1.4615  1.3121  0.8464
  131MOL   O14226402   7.198   6.956   6.437  0.1580  0.1865 -0.0368
  131MOL   C14326403   7.149   7.083   6.388  0.4674 -0.2191  0.1129
  131MOL   C14426404   7.101   7.062   6.248  0.0110 -0.4269 -0.4796
  131MOL   C14526405   7.057   7.193   6.178 -0.4407 -0.5434  0.0596
  131MOL   H14626406   7.226   7.159   6.382 -0.6071  0.9298  0.6373
  131MOL   H14726407   7.060   7.126   6.434 -0.5491 -1.5231 -0.6106
  131MOL   H14826408   7.179   7.010   6.193 -1.9305 -1.8918 -1.9207
  131MOL   H14926409   7.017   6.994   6.259 -0.7292  0.5246 -0.1123
  131MOL   H15026410   7.145   7.258   6.175  0.3601 -1.6179 -0.1008
  131MOL   H15126411   6.970   7.232   6.230 -1.6898 -1.2671 -1.4659
  131MOL   O15226412   7.024   7.161   6.049  0.2469  0.3121  0.5210
  131MOL   C15326413   6.967   7.276   5.987  0.4032  0.0743  0.2848
  131MOL   C15426414   6.918   7.232   5.850 -0.8322 -0.3145  0.3439
  131MOL   C15526415   6.841   7.339   5.773  0.0905  0.6094  0.3071
  131MOL   H15626416   7.034   7.361   5.979 -0.0354  0.1757 -2.7265
  131MOL   H15726417   6.878   7.303   6.045  0.5441  1.1033  0.0277
  131MOL   H15826418   7.002   7.190   5.796 -0.8745  1.4497 -1.1509
  131MOL   H15926419   6.861   7.143   5.875 -0.5554 -0.9315 -1.1754
  131MOL   H16026420   6.911   7.411   5.730  1.1052 -0.0905  0.7450
  131MOL   H16126421   6.765   7.393   5.829 -0.4003  1.7505 -1.4520
  131MOL   O16226422   6.772   7.267   5.668  0.1461  0.5111 -0.3358
  131MOL   C16326423   6.706   7.357   5.585  0.7136 -0.1284 -0.0029
  131MOL   C16426424   6.581   7.408   5.658 -0.3179  0.1895  0.5476
  131MOL   C16526425   6.483   7.481   5.573  0.1039 -0.5181 -0.4983
  131MOL   H16626426   6.667   7.306   5.497 -1.1645  1.6067 -0.2259
  131MOL   H16726427   6.767   7.434   5.537  1.3841 -0.6135  0.0627
  131MOL   H16826428   6.535   7.323   5.707 -1.0209 -1.7175 -3.2876
  131MOL   H16926429   6.618   7.481   5.731 -1.2812 -1.6847  2.9629
  131MOL   H17026430   6.403   7.502   5.644 -0.4820 -2.0931 -0.6610
  131MOL   H17126431   6.449   7.420   5.489 -0.3142  1.8163 -2.0619
  131MOL   O17226432   6.521   7.606   5.520 -0.1660  0.1349 -0.1291
  131MOL   C17326433   6.413   7.694   5.479 -0.0098 -0.4678  0.2531
  131MOL   C17426434   6.487   0.034   5.446  0.4828 -0.1451 -0.0812
  131MOL   C17526435   6.396   0.151   5.412  0.1420 -0.1768 -0.4539
  131MOL   H17626436   6.338   7.712   5.556 -0.7019 -0.3316 -0.4449
  131MOL   H17726437   6.368   7.657   5.387  0.2631  1.0131 -0.4840
  131MOL   H17826438   6.550   0.067   5.528  0.9168 -0.2652 -0.3644
  131MOL   H17926439   6.552   0.022   5.359  1.2888 -1.8343  0.7356
  131MOL   H18026440   6.318   0.112   5.346  0.1855 -1.9258  0.5038
  131MOL   H18126441   6.450   0.227   5.355  1.8092 -1.2662 -0.3716
  131MOL   O18226442   6.341   0.207   5.528 -0.5509  0.6495  0.4004
  131MOL   C18326443   6.428   0.299   5.596  0.0217  0.0220  0.3739
  131MOL   C18426444   6.350   0.349   5.722 -0.4711 -0.7880  0.1604
  131MOL   C18526445   6.239   0.443   5.679  1.1359 -0.3923  0.0029
  131MOL   H18626446   6.457   0.388   5.541  2.0744 -0.6366  0.3590
  131MOL   H18726447   6.521   0.255   5.631 -0.6045 -1.2991  0.4216
  131MOL   H18826448   6.309   0.275   5.790 -1.5069 -0.7517 -0.4146
  131MOL   H18926449   6.419   0.406   5.785  0.1352 -1.0272 -0.2859
  131MOL   H19026450   6.155   0.401   5.624 -0.9281  2.7546  0.6778
  131MOL   H19126451   6.282   0.516   5.610 -0.6223 -1.4568 -2.2862
  131MOL   O19226452   6.185   0.517   5.792  0.3798  0.4742  0.5391
  131MOL   C19326453   6.135   0.649   5.773 -0.0114  0.3857  0.0886
  131MOL   C19426454   6.094   0.697   5.917  0.4826  0.2465 -0.6275
  131MOL   C19526455   6.213   0.719   6.017 -0.2560  0.3008  0.1486
  131MOL   H19626456   6.050   0.642   5.705  0.6605  4.2818 -1.2570
  131MOL   H19726457   6.208   0.712   5.723  0.9730 -0.5468  0.3373
  131MOL   H19826458   6.030   0.785   5.912 -1.1081 -0.9803 -2.3885
  131MOL   H19926459   6.025   0.623   5.959  2.8729 -2.2821 -0.9905
  131MOL   H20026460   6.290   0.787   5.978 -0.1174 -0.3768 -0.7950
  131MOL   H20126461   6.274   0.630   6.028  0.5570  1.0003  1.4503
  131MOL   H20226462   6.197   0.759   6.117 -0.0833  1.5887 -0.3232
  132MOL     O126463   1.134   1.780   2.545 -0.8287 -0.0788  0.7086
  132MOL     C226464   1.063   1.835   2.656  0.0456  0.0908 -0.1798
  132MOL     C326465   1.019   1.727   2.756  0.6855  0.6988 -0.5517
  132MOL     C426466   0.981   1.793   2.895 -0.2639  0.4006  0.4562
  132MOL     H526467   0.970   1.874   2.613  0.6626  1.0995 -0.5987
  132MOL     H626468   1.113   1.924   2.694 -2.1032  0.7896  1.1236
  132MOL     H726469   0.936   1.669   2.714 -1.1142  2.7260  0.1457
  132MOL     H826470   1.104   1.665   2.783  0.3525  0.3682 -0.2515
  132MOL     H926471   0.908   1.872   2.878  0.2528  1.0725  1.3483
  132MOL    H1026472   1.076   1.832   2.931 -0.0403 -1.3680  1.8539
  132MOL    H1126473   1.103   1.694   2.522 -0.3584 -0.3446  1.0591
  132MOL    O1226474   0.926   1.702   2.982 -0.2677  0.2344  0.4561
  132MOL    C1326475   0.894   1.763   3.107 -0.0019  0.0036 -0.4387
  132MOL    C1426476   0.840   1.650   3.194  0.3763 -0.0460  0.1593
  132MOL    C1526477   0.850   1.666   3.347  0.4942  0.1157 -1.1093
  132MOL    H1626478   0.826   1.848   3.094  0.2931 -0.1988 -3.5505
  132MOL    H1726479   0.984   1.803   3.154  0.6484 -2.2922  0.3051
  132MOL    H1826480   0.732   1.651   3.175  0.5508  0.1698 -0.8586
  132MOL    H1926481   0.872   1.554   3.155 -1.1723 -0.7626  0.6063
  132MOL    H2026482   0.787   1.748   3.380  0.1212  0.1704 -1.9505
  132MOL    H2126483   0.956   1.691   3.356  0.3381  1.0951 -2.0252
  132MOL    O2226484   0.808   1.547   3.415  0.0418 -0.6244  0.1548
  132MOL    C2326485   0.821   1.561   3.557 -0.1071 -0.7074  0.1653
  132MOL    C2426486   0.737   1.443   3.622 -0.3871 -0.3082 -0.5208
  132MOL    C2526487   0.766   1.437   3.779  0.8611  0.6924  0.2551
  132MOL    H2626488   0.790   1.655   3.602 -1.3489  0.0722 -2.2509
  132MOL    H2726489   0.923   1.545   3.593  0.2954  0.6503 -0.3653
  132MOL    H2826490   0.631   1.453   3.599 -0.3431 -0.6680 -0.8942
  132MOL    H2926491   0.770   1.346   3.583 -2.8998 -2.2974  2.0521
  132MOL    H3026492   0.736   1.533   3.821 -1.3857  0.5486 -0.9584
  132MOL    H3126493   0.870   1.410   3.798  0.5871 -0.3449  0.3016
  132MOL    O3226494   0.683   1.335   3.838  0.2493 -0.6730 -0.2872
  132MOL    C3326495   0.673   1.344   3.984 -0.3891 -0.1028 -0.2519
  132MOL    C3426496   0.590   1.225   4.042  0.4938  0.2619 -0.5075
  132MOL    C3526497   0.443   1.208   4.008  0.2173  0.3153  0.0135
  132MOL    H3626498   0.618   1.430   4.022 -1.7617 -0.4509 -1.3997
  132MOL    H3726499   0.771   1.355   4.031 -1.0236 -0.8700  1.2946
  132MOL    H3826500   0.636   1.133   4.007  1.1321  0.2943  0.2201
  132MOL    H3926501   0.606   1.227   4.150 -0.3993 -1.4719 -0.3168
  132MOL    H4026502   0.403   1.121   4.059 -1.1596  2.1661  2.2335
  132MOL    H4126503   0.428   1.188   3.902 -1.1562  1.2305  0.0257
  132MOL    O4226504   0.367   1.332   4.049 -0.6145  0.8483  0.0068
  132MOL    C4326505   0.237   1.343   3.994 -0.1047  0.2012 -0.4256
  132MOL    C4426506   0.250   1.429   3.860 -0.1678  0.3632 -0.0771
  132MOL    C4526507   0.323   1.558   3.866 -0.5288  0.3966  0.0676
  132MOL    H4626508   0.169   1.397   4.060 -0.2460 -0.9574  0.3935
  132MOL    H4726509   0.188   1.247   3.978 -0.7901  0.2608  1.2215
  132MOL    H4826510   0.276   1.360   3.780 -1.4880 -1.4042  0.9820
  132MOL    H4926511   0.157   1.479   3.831  0.8783  0.9064 -2.5929
  132MOL    H5026512   0.423   1.541   3.906 -0.2540 -1.8870 -1.4747
  132MOL    H5126513   0.279   1.633   3.931 -0.7451 -0.9351  1.5053
  132MOL    O5226514   0.336   1.610   3.737 -0.3897  0.1157 -0.0711
  132MOL    C5326515   0.383   1.742   3.751 -0.3801  0.0419  0.0763
  132MOL    C5426516   0.463   1.798   3.638  0.0129 -0.5654 -0.4944
  132MOL    C5526517   0.512   1.942   3.666  0.5181  0.9338  0.0717
  132MOL    H5626518   0.439   1.758   3.843  0.2407 -0.4973 -0.2021
  132MOL    H5726519   0.289   1.795   3.768  0.0350  0.3018  1.6388
  132MOL    H5826520   0.545   1.728   3.622  0.7683 -0.0962  1.2324
  132MOL    H5926521   0.405   1.798   3.545  0.6457  1.7742 -0.9033
  132MOL    H6026522   0.586   1.978   3.595 -0.3616  1.1587 -0.7445
  132MOL    H6126523   0.569   1.949   3.759 -0.7110  2.8105  0.7161
  132MOL    O6226524   0.395   2.027   3.672 -0.2188 -0.1762 -0.1254
  132MOL    C6326525   0.434   2.161   3.692 -0.0249  0.3495 -0.5600
  132MOL    C6426526   0.312   2.259   3.703  1.2590 -0.5295  0.0995
  132MOL    C6526527   0.352   2.404   3.724  0.5466 -0.7608 -0.4225
  132MOL    H6626528   0.486   2.192   3.601  0.4535  0.3649 -0.2850
  132MOL    H6726529   0.496   2.166   3.782 -0.8161 -1.2005  0.0923
  132MOL    H6826530   0.257   2.247   3.610  0.8734 -0.6710  0.3477
  132MOL    H6926531   0.253   2.235   3.791  1.1362  2.6546  0.9771
  132MOL    H7026532   0.390   2.446   3.631  1.1763  0.4566  0.3686
  132MOL    H7126533   0.424   2.414   3.806  3.9448 -0.6500 -3.3324
  132MOL    O7226534   0.245   2.473   3.776  0.0339  0.3581 -0.3399
  132MOL    C7326535   0.277   2.612   3.796 -0.7289 -0.1469 -0.4592
  132MOL    C7426536   0.172   2.657   3.895  0.8044  0.1169 -0.0364
  132MOL    C7526537   0.025   2.652   3.845  0.9867  0.3459  0.1482
  132MOL    H7626538   0.289   2.662   3.700  1.5101  0.6301  0.1926
  132MOL    H7726539   0.366   2.626   3.858 -1.5106 -2.0710  1.1341
  132MOL    H7826540   0.188   2.602   3.988  1.7050  0.3203 -0.0652
  132MOL    H7926541   0.200   2.761   3.914  0.2271  0.1065  0.9165
  132MOL    H8026542   0.007   2.554   3.801  2.0920  0.6741 -1.0540
  132MOL    H8126543   0.021   2.728   3.768  0.4718 -1.4674 -1.6489
  132MOL    O8226544   7.724   2.686   3.944  0.3428 -0.4627  0.4988
  132MOL    C8326545   7.593   2.707   3.915  0.1042  0.2071 -0.4414
  132MOL    C8426546   7.506   2.694   4.041 -0.4566  0.2391  0.2051
  132MOL    C8526547   7.569   2.738   4.173  0.2575 -0.0043  0.1326
  132MOL    H8626548   7.558   2.619   3.861 -2.0031  0.7980 -0.1106
  132MOL    H8726549   7.575   2.798   3.858 -2.2225  0.5428  0.7346
  132MOL    H8826550   7.413   2.751   4.042  0.0943  1.1487  2.1915
  132MOL    H8926551   7.456   2.597   4.042 -2.0737  1.0421 -0.3632
  132MOL    H9026552   7.569   2.846   4.186  1.0154  0.0139  0.0127
  132MOL    H9126553   7.672   2.703   4.167 -0.0078 -0.7155 -0.3900
  132MOL    O9226554   7.507   2.679   4.278 -0.4558 -0.4939  0.3260
  132MOL    C9326555   7.552   2.745   4.401  0.4299 -0.4543 -0.8442
  132MOL    C9426556   7.692   2.708   4.450 -0.5669 -0.5272  0.0218
  132MOL    C9526557   7.706   2.564   4.478  0.0716 -0.4575 -0.2177
  132MOL    H9626558   7.483   2.716   4.481  0.7314  0.5474 -0.2062
  132MOL    H9726559   7.551   2.853   4.387 -0.1129 -0.3055  0.2516
  132MOL    H9826560   7.763   2.745   4.376 -1.7096  1.4540 -0.1434
  132MOL    H9926561   7.713   2.770   4.537  1.3203 -0.9728 -0.1040
  132MOL   H10026562   7.689   2.512   4.383 -2.3234  1.2893 -0.8206
  132MOL   H10126563   7.640   2.531   4.558  1.0504 -0.1578  0.7139
  132MOL   O10226564   0.051   2.537   4.526 -0.8708  0.6553  0.0105
  132MOL   C10326565   0.073   2.399   4.552 -1.4281  0.0105 -0.5472
  132MOL   C10426566   0.227   2.381   4.557  0.1285  0.7023 -0.2274
  132MOL   C10526567   0.249   2.234   4.603  0.0778 -1.3646  0.2225
  132MOL   H10626568   0.035   2.335   4.472  1.1489  0.2519 -2.0374
  132MOL   H10726569   0.021   2.377   4.645  0.3761  0.8195  0.6733
  132MOL   H10826570   0.270   2.390   4.457  1.9277 -2.3339  0.2135
  132MOL   H10926571   0.261   2.465   4.617  0.4924  0.8924 -0.6962
  132MOL   H11026572   0.199   2.176   4.525  1.9663 -2.8862  0.0854
  132MOL   H11126573   0.218   2.206   4.703 -1.0647  0.2760  0.3471
  132MOL   O11226574   0.393   2.207   4.586 -0.3047 -0.1594  0.7052
  132MOL   C11326575   0.418   2.071   4.594 -0.1898  0.2441  0.5430
  132MOL   C11426576   0.567   2.037   4.556  0.0587 -0.6260  0.0817
  132MOL   C11526577   0.597   1.883   4.557  0.0803  0.0120 -0.1415
  132MOL   H11626578   0.355   2.015   4.524 -1.1598  2.4904 -0.4035
  132MOL   H11726579   0.391   2.043   4.696  2.0112 -0.0538  1.0685
  132MOL   H11826580   0.595   2.079   4.459  0.2490  0.5134  0.6299
  132MOL   H11926581   0.628   2.089   4.629 -0.0754 -0.3630  0.0075
  132MOL   H12026582   0.539   1.839   4.475 -3.3977  1.2580  1.5331
  132MOL   H12126583   0.577   1.837   4.654  0.0390 -0.3228 -0.3052
  132MOL   O12226584   0.732   1.857   4.545  0.3454  0.4870 -0.1146
  132MOL   C12326585   0.756   1.715   4.529 -0.3946 -0.4966 -0.6863
  132MOL   C12426586   0.914   1.708   4.541 -0.0807 -1.1055  0.2185
  132MOL   C12526587   0.980   1.566   4.537 -0.1241  0.0713  0.3888
  132MOL   H12626588   0.714   1.692   4.431  1.0465  0.0003 -1.4500
  132MOL   H12726589   0.709   1.665   4.613  0.0129 -0.3709 -0.3797
  132MOL   H12826590   0.948   1.776   4.463 -1.2291 -0.8043 -0.0288
  132MOL   H12926591   0.938   1.754   4.637  0.2514 -2.8885  1.0072
  132MOL   H13026592   0.937   1.502   4.613 -0.5519  1.9851  1.7941
  132MOL   H13126593   1.087   1.575   4.558 -0.4015 -1.4209  2.5902
  132MOL   O13226594   0.964   1.505   4.414  0.4756  0.0972  0.0203
  132MOL   C13326595   1.030   1.377   4.384  0.3882 -0.7130 -0.2782
  132MOL   C13426596   0.964   1.305   4.267  0.6812 -0.0809  0.5349
  132MOL   C13526597   1.026   1.173   4.218  0.0683 -0.0065 -0.2041
  132MOL   H13626598   1.041   1.306   4.465  1.3727  0.5516  0.7060
  132MOL   H13726599   1.133   1.392   4.349 -0.6441 -1.9586 -4.1163
  132MOL   H13826600   0.858   1.284   4.286  0.5985 -3.2211 -2.9802
  132MOL   H13926601   0.957   1.379   4.188 -0.0014  0.5457  1.1593
  132MOL   H14026602   1.131   1.200   4.205  0.1961  0.5770  1.7532
  132MOL   H14126603   0.980   1.138   4.126 -0.9741  0.0974  0.2784
  132MOL   O14226604   1.021   1.073   4.321  0.0468  0.4488  0.4031
  132MOL   C14326605   1.121   0.965   4.300  0.4093 -0.1910 -0.6541
  132MOL   C14426606   1.088   0.860   4.409  0.1030 -0.0766  0.3296
  132MOL   C14526607   1.135   0.926   4.543 -0.8313 -1.1881  0.6910
  132MOL   H14626608   1.223   1.002   4.311 -0.0236  0.2171  2.3408
  132MOL   H14726609   1.109   0.909   4.207  0.9679 -2.1876  0.4319
  132MOL   H14826610   0.980   0.851   4.419 -0.1213 -0.7696 -2.2401
  132MOL   H14926611   1.135   0.762   4.398  1.6637  0.7106 -0.1800
  132MOL   H15026612   1.090   1.023   4.567  0.0805  0.0308 -2.3205
  132MOL   H15126613   1.244   0.934   4.541 -0.8462 -0.8333  1.1285
  132MOL   O15226614   1.093   0.847   4.658 -0.7630 -0.1731 -0.3176
  132MOL   C15326615   1.159   0.723   4.669  0.2162 -0.1936  0.5571
  132MOL   C15426616   1.099   0.643   4.783  0.5296  0.4456  0.4146
  132MOL   C15526617   1.126   0.687   4.922 -0.0250  0.4478 -0.0101
  132MOL   H15626618   1.267   0.729   4.672  0.3062 -0.7673 -1.3819
  132MOL   H15726619   1.135   0.663   4.581  0.4431 -1.3221  1.2497
  132MOL   H15826620   0.991   0.652   4.766  0.7617 -0.5556 -1.6580
  132MOL   H15926621   1.131   0.539   4.779 -0.4853  0.0851  1.4307
  132MOL   H16026622   1.079   0.785   4.925 -1.7390 -0.4314  2.7387
  132MOL   H16126623   1.235   0.692   4.926  0.0271 -0.8342  0.3966
  132MOL   O16226624   1.083   0.594   5.021 -0.1378  0.1455  0.1920
  132MOL   C16326625   1.086   0.669   5.144  0.2828 -0.4159 -0.4714
  132MOL   C16426626   1.011   0.587   5.258 -0.1269 -0.0563  0.1490
  132MOL   C16526627   1.050   0.435   5.271 -0.0129 -0.1322  0.5540
  132MOL   H16626628   1.026   0.760   5.134 -1.9531 -1.7893  0.1440
  132MOL   H16726629   1.190   0.686   5.170 -0.2204  1.7171  0.2911
  132MOL   H16826630   1.038   0.647   5.345  0.9215 -0.4136  0.0804
  132MOL   H16926631   0.904   0.591   5.239 -0.0004 -1.5262 -0.9425
  132MOL   H17026632   1.155   0.417   5.249 -0.5089  2.2239 -4.2064
  132MOL   H17126633   0.986   0.384   5.199 -1.2004  0.9472  0.8320
  132MOL   O17226634   1.044   0.387   5.401 -0.5986 -0.0496 -0.0258
  132MOL   C17326635   0.990   0.258   5.420 -0.1887 -0.1523 -0.1583
  132MOL   C17426636   0.836   0.247   5.393 -0.4794  0.2932  0.9611
  132MOL   C17526637   0.750   0.334   5.476 -0.6144  0.3686 -0.2639
  132MOL   H17626638   1.017   0.218   5.517  2.5448  3.3554  0.6421
  132MOL   H17726639   1.036   0.187   5.350 -0.5608 -0.6758  0.1332
  132MOL   H17826640   0.811   0.262   5.288 -0.7027  0.0606  0.9798
  132MOL   H17926641   0.805   0.145   5.419 -0.7048  0.5303  1.6382
  132MOL   H18026642   0.777   0.438   5.455 -0.6559  0.4083 -0.1199
  132MOL   H18126643   0.761   0.325   5.584 -0.3977  2.3248 -0.1085
  132MOL   O18226644   0.612   0.326   5.429  0.0352 -0.3086 -0.2943
  132MOL   C18326645   0.536   0.442   5.430  0.2488 -0.1246 -0.3948
  132MOL   C18426646   0.524   0.507   5.562  0.0102 -0.6697 -1.0211
  132MOL   C18526647   0.468   0.410   5.670 -0.1717  0.0417 -0.4645
  132MOL   H18626648   0.436   0.412   5.398 -0.1983 -0.3600  1.1775
  132MOL   H18726649   0.576   0.507   5.352  1.3565  1.2241  1.2733
  132MOL   H18826650   0.622   0.547   5.591 -1.1784  2.7337 -1.4909
  132MOL   H18926651   0.470   0.600   5.544 -0.4920 -0.6429  0.6330
  132MOL   H19026652   0.534   0.324   5.681  2.8549  2.3552  0.1509
  132MOL   H19126653   0.367   0.380   5.645 -1.8613  4.9526 -0.1295
  132MOL   O19226654   0.457   0.473   5.797  0.1368 -0.0124  0.0875
  132MOL   C19326655   0.565   0.457   5.887 -0.0536 -0.6163 -0.3523
  132MOL   C19426656   0.562   0.580   5.985 -0.2204  0.0504  0.1293
  132MOL   C19526657   0.441   0.584   6.076  0.4977  0.4098 -0.5968
  132MOL   H19626658   0.659   0.464   5.832 -0.3557  2.1911 -0.5843
  132MOL   H19726659   0.559   0.366   5.946 -0.7176  0.2886  0.9946
  132MOL   H19826660   0.655   0.570   6.040 -0.5722 -2.3372  0.3509
  132MOL   H19926661   0.562   0.674   5.930 -0.4712  0.8106  1.4070
  132MOL   H20026662   0.465   0.510   6.153 -0.0960 -0.0423 -0.8445
  132MOL   H20126663   0.350   0.543   6.033 -0.0746  1.2291 -0.1961
  132MOL   H20226664   0.424   0.681   6.124  2.1846  0.0063  0.8826
  133MOL     O126665   1.920   6.037   5.364  0.5304  0.4231  0.1068
  133MOL     C226666   1.955   5.923   5.428  0.7018 -0.5460  0.0483
  133MOL     C326667   1.941   5.941   5.588  0.3568 -0.0357  0.0798
  133MOL     C426668   1.998   5.821   5.663 -0.4240  0.2558  0.6692
  133MOL     H526669   2.058   5.895   5.405  1.1260  2.1088 -1.4469
  133MOL     H626670   1.887   5.841   5.405  0.8194 -1.0679  1.4871
  133MOL     H726671   2.005   6.026   5.614  0.7490 -1.1369  2.8915
  133MOL     H826672   1.842   5.971   5.621 -0.5240 -1.5920 -1.0978
  133MOL     H926673   1.911   5.756   5.672 -1.0486  1.0995  0.8859
  133MOL    H1026674   2.029   5.865   5.758  0.4510  2.8927 -0.7736
  133MOL    H1126675   1.921   6.022   5.270  3.1266 -0.8526  0.2931
  133MOL    O1226676   2.113   5.765   5.599  0.5782 -0.0177 -0.0650
  133MOL    C1326677   2.157   5.650   5.662 -0.1539  0.1964 -0.1331
  133MOL    C1426678   2.236   5.573   5.555 -0.4998  0.1784  0.3391
  133MOL    C1526679   2.361   5.647   5.516 -0.5306 -1.1195  0.1021
  133MOL    H1626680   2.070   5.591   5.689 -0.5193  1.0595  0.6260
  133MOL    H1726681   2.219   5.672   5.749 -1.0611  1.5104  0.2045
  133MOL    H1826682   2.251   5.473   5.595 -0.7025 -0.0446 -0.1446
  133MOL    H1926683   2.165   5.573   5.473 -1.1036 -0.4845  0.8534
  133MOL    H2026684   2.423   5.681   5.599  0.3730  0.6161 -1.2788
  133MOL    H2126685   2.326   5.735   5.463  0.8838  0.2843  1.4555
  133MOL    O2226686   2.439   5.577   5.425  0.1647  0.4288 -0.4751
  133MOL    C2326687   2.512   5.663   5.344 -0.0135  0.2259  0.1368
  133MOL    C2426688   2.602   5.581   5.249  0.7383  0.5774 -0.3315
  133MOL    C2526689   2.657   5.657   5.128  0.4966 -0.6724  0.2094
  133MOL    H2626690   2.574   5.723   5.410 -0.4974 -0.2482  1.0452
  133MOL    H2726691   2.445   5.722   5.282 -1.7446  0.9316  2.5722
  133MOL    H2826692   2.686   5.534   5.300  0.2244 -1.2527 -1.1502
  133MOL    H2926693   2.539   5.504   5.204  0.9742  0.2576 -0.1141
  133MOL    H3026694   2.577   5.715   5.081  1.0200  1.6335  2.0588
  133MOL    H3126695   2.700   5.585   5.059  2.1306  0.4165  0.0707
  133MOL    O3226696   2.750   5.754   5.177 -0.1006 -0.0055  0.5476
  133MOL    C3326697   2.833   5.808   5.064 -0.5564  0.0327 -0.2872
  133MOL    C3426698   2.882   5.945   5.120  0.6219 -0.2508  0.0508
  133MOL    C3526699   2.978   5.938   5.238  0.8507  0.8224  0.6255
  133MOL    H3626700   2.777   5.811   4.971 -3.5689 -1.2758  1.4063
  133MOL    H3726701   2.919   5.744   5.049 -0.5359  0.5084 -2.3372
  133MOL    H3826702   2.934   5.998   5.040 -0.7988  2.4308  0.8556
  133MOL    H3926703   2.797   6.012   5.133  2.7876  2.6151 -0.0439
  133MOL    H4026704   3.060   5.868   5.222 -0.7927 -1.0495  0.1797
  133MOL    H4126705   2.930   5.893   5.324 -0.7204  1.7507  0.2578
  133MOL    O4226706   3.014   6.074   5.259  0.7260  0.4315  0.2794
  133MOL    C4326707   3.108   6.094   5.363 -0.0272 -0.1637  0.2643
  133MOL    C4426708   3.117   6.241   5.385  0.5607 -0.1128  0.6079
  133MOL    C4526709   3.161   6.338   5.266  0.3120  0.7386  0.9516
  133MOL    H4626710   3.203   6.046   5.341  0.4696  1.4855 -1.2346
  133MOL    H4726711   3.069   6.042   5.451 -2.6779  0.2928 -0.5916
  133MOL    H4826712   3.017   6.269   5.418 -0.3745 -0.8695 -1.4511
  133MOL    H4926713   3.182   6.267   5.468 -0.1811  0.0533  1.1431
  133MOL    H5026714   3.093   6.328   5.181  1.6115  1.5160 -0.1844
  133MOL    H5126715   3.257   6.317   5.221 -0.9593  0.1210 -1.5813
  133MOL    O5226716   3.148   6.479   5.306 -0.2122 -0.0896 -0.1743
  133MOL    C5326717   3.150   6.559   5.195  0.3557  0.8136  0.6517
  133MOL    C5426718   3.137   6.707   5.227  0.3329 -0.0982  0.5765
  133MOL    C5526719   3.160   6.784   5.093  0.2011 -0.3494  0.4298
  133MOL    H5626720   3.069   6.541   5.125  2.2768  0.6669 -1.6391
  133MOL    H5726721   3.237   6.532   5.134  0.5924  0.9738  0.9159
  133MOL    H5826722   3.034   6.712   5.262  0.3082  0.3209  0.4435
  133MOL    H5926723   3.212   6.725   5.304  1.1665 -0.1234 -0.2151
  133MOL    H6026724   3.103   6.739   5.012  0.3936 -0.8897  0.5870
  133MOL    H6126725   3.264   6.786   5.059 -0.6757 -0.8613 -2.4058
  133MOL    O6226726   3.111   6.914   5.094  0.1125  0.4154 -0.4180
  133MOL    C6326727   3.113   6.978   4.965  0.4735  0.0631  0.4964
  133MOL    C6426728   3.040   7.114   4.975 -0.0467 -0.2012  0.2403
  133MOL    C6526729   2.892   7.100   4.995  0.1619 -0.0951  0.1242
  133MOL    H6626730   3.071   6.910   4.891 -0.2192 -1.5213  2.3141
  133MOL    H6726731   3.214   6.999   4.929 -0.1824 -0.8224 -1.9748
  133MOL    H6826732   3.082   7.172   5.057 -0.1483  1.0639 -0.6062
  133MOL    H6926733   3.060   7.166   4.882 -0.4807 -2.0568 -0.9269
  133MOL    H7026734   2.854   7.202   4.994 -0.8928 -0.4978 -1.3934
  133MOL    H7126735   2.881   7.043   5.088 -0.5969  0.6804  0.5164
  133MOL    O7226736   2.851   7.010   4.896 -0.1443  0.6839 -0.2176
  133MOL    C7326737   2.714   6.987   4.898  0.2914 -1.1546 -0.3593
  133MOL    C7426738   2.667   6.885   5.002 -0.3911  0.3007  0.6040
  133MOL    C7526739   2.748   6.754   5.019 -0.3657 -0.3387  0.3484
  133MOL    H7626740   2.684   6.953   4.799  1.1036  0.8160 -1.3065
  133MOL    H7726741   2.662   7.082   4.893 -0.1765 -1.3575  0.5781
  133MOL    H7826742   2.662   6.932   5.101 -0.4298 -0.6905  1.0782
  133MOL    H7926743   2.563   6.857   4.986 -0.7759  1.4049  1.1159
  133MOL    H8026744   2.851   6.787   5.036 -0.2472  0.4080 -1.6217
  133MOL    H8126745   2.759   6.693   4.929  0.1919  0.6583 -0.2749
  133MOL    O8226746   2.697   6.674   5.117 -0.2611  0.0595  0.2202
  133MOL    C8326747   2.774   6.563   5.165  0.1730  0.0614  0.2975
  133MOL    C8426748   2.675   6.449   5.217 -0.0904  0.2378  0.4420
  133MOL    C8526749   2.727   6.317   5.258 -0.0401 -0.1982 -0.4296
  133MOL    H8626750   2.839   6.609   5.239  1.2470  1.4462 -1.4780
  133MOL    H8726751   2.833   6.521   5.084 -0.9226 -0.0927 -0.4397
  133MOL    H8826752   2.621   6.479   5.307 -0.5337 -1.5105  0.7788
  133MOL    H8926753   2.597   6.436   5.141  0.0875  1.1321  0.1047
  133MOL    H9026754   2.806   6.339   5.330  0.7829 -1.3363 -0.9700
  133MOL    H9126755   2.766   6.252   5.180  1.0684 -0.4855  0.3528
  133MOL    O9226756   2.632   6.239   5.333 -0.5075  0.3618 -0.1611
  133MOL    C9326757   2.697   6.143   5.424 -0.3935  0.0437  1.3103
  133MOL    C9426758   2.576   6.046   5.457  0.4852  0.3336 -0.2381
  133MOL    C9526759   2.592   5.962   5.585 -0.0131  0.1860  0.1428
  133MOL    H9626760   2.736   6.183   5.518  1.2587  0.4998  0.4352
  133MOL    H9726761   2.784   6.096   5.379 -0.0910  2.3305 -0.5627
  133MOL    H9826762   2.483   6.102   5.445  0.6753  0.3211 -1.9768
  133MOL    H9926763   2.564   5.967   5.383  2.1984 -2.4573  2.3491
  133MOL   H10026764   2.508   5.892   5.591  0.3658 -0.2073  0.8433
  133MOL   H10126765   2.592   6.031   5.669 -0.8546  0.5951 -0.1810
  133MOL   O10226766   2.713   5.886   5.577 -0.5929  0.2987 -0.1685
  133MOL   C10326767   2.722   5.790   5.680  0.3010  0.4648  0.4030
  133MOL   C10426768   2.852   5.709   5.668 -0.3386 -0.7634 -0.0816
  133MOL   C10526769   2.874   5.607   5.781  0.2781 -0.4245 -0.1998
  133MOL   H10626770   2.647   5.716   5.652 -0.2185  1.7856 -1.8375
  133MOL   H10726771   2.718   5.840   5.776  0.3906  2.7060 -0.7237
  133MOL   H10826772   2.867   5.650   5.578 -0.2723 -0.1750 -0.4651
  133MOL   H10926773   2.935   5.780   5.672 -1.1187  0.1638 -0.1163
  133MOL   H11026774   2.800   5.622   5.859 -0.9340 -0.9270 -1.2343
  133MOL   H11126775   2.964   5.630   5.838 -1.3709  1.7315  1.6289
  133MOL   O11226776   2.878   5.481   5.728  0.5666  0.2684 -0.4759
  133MOL   C11326777   2.875   5.383   5.834 -0.4716 -0.2306 -0.1458
  133MOL   C11426778   2.906   5.242   5.779  0.4007 -0.0353 -0.5493
  133MOL   C11526779   2.890   5.129   5.883  0.3293 -0.6475  0.2239
  133MOL   H11626780   2.785   5.386   5.896  1.1217 -0.9006  2.2781
  133MOL   H11726781   2.952   5.407   5.907 -0.8309 -0.6958  0.3894
  133MOL   H11826782   2.842   5.208   5.697  1.0135 -1.5372 -0.4096
  133MOL   H11926783   3.008   5.257   5.745 -0.2571 -1.6087 -3.3888
  133MOL   H12026784   2.967   5.145   5.958  0.3231 -1.4448  0.4139
  133MOL   H12126785   2.912   5.035   5.833 -0.5074  0.2402 -1.8630
  133MOL   O12226786   2.765   5.120   5.935 -0.4896 -0.2014 -0.5516
  133MOL   C12326787   2.746   4.995   6.005 -0.0853  0.4701 -0.4461
  133MOL   C12426788   2.616   4.999   6.079 -0.0207 -0.4252  0.1679
  133MOL   C12526789   2.633   5.094   6.198 -0.0550 -0.3513 -0.4730
  133MOL   H12626790   2.827   5.000   6.078 -0.8429  2.9791  0.2697
  133MOL   H12726791   2.740   4.916   5.929 -0.9281 -0.6087  0.7194
  133MOL   H12826792   2.551   5.040   6.002  1.3730  1.2264 -0.1587
  133MOL   H12926793   2.574   4.901   6.103 -3.0303  0.6562 -0.4120
  133MOL   H13026794   2.670   5.192   6.168 -1.7574  0.3013 -0.4579
  133MOL   H13126795   2.705   5.064   6.274  0.8606  0.6068 -0.9442
  133MOL   O13226796   2.504   5.123   6.250 -0.0911 -0.5044  0.1956
  133MOL   C13326797   2.498   5.252   6.310  0.0738  0.4144  0.0172
  133MOL   C13426798   2.351   5.282   6.354 -0.4311 -0.2304  0.2577
  133MOL   C13526799   2.325   5.427   6.371  0.0687  0.2675 -0.2683
  133MOL   H13626800   2.543   5.332   6.252 -0.1430  1.1716  0.8739
  133MOL   H13726801   2.559   5.237   6.400 -1.1836 -1.6219  0.5649
  133MOL   H13826802   2.285   5.238   6.279 -0.5427 -0.3422  0.4210
  133MOL   H13926803   2.338   5.230   6.449 -1.6801 -0.6673 -0.1384
  133MOL   H14026804   2.352   5.468   6.274 -1.5128  0.5547 -0.6074
  133MOL   H14126805   2.388   5.471   6.449  0.4467 -1.0723  0.1940
  133MOL   O14226806   2.188   5.452   6.396  0.1386  0.4667 -0.2007
  133MOL   C14326807   2.158   5.586   6.433 -0.2597 -0.3750 -0.6128
  133MOL   C14426808   2.001   5.599   6.459  0.2239  0.7424 -0.1474
  133MOL   C14526809   1.953   5.534   6.586 -0.6983  0.1689  0.1154
  133MOL   H14626810   2.203   5.656   6.363 -1.6068  0.0243 -1.1100
  133MOL   H14726811   2.202   5.619   6.527  2.8598 -2.3871 -1.3099
  133MOL   H14826812   1.965   5.701   6.466 -1.8227  0.0067  0.4177
  133MOL   H14926813   1.942   5.563   6.374 -1.2892 -0.3727  1.3285
  133MOL   H15026814   1.964   5.603   6.670  0.3600 -0.4219  0.4734
  133MOL   H15126815   2.007   5.443   6.608 -0.2945  0.4454  0.2694
  133MOL   O15226816   1.815   5.500   6.573  0.2924 -0.0027 -0.0360
  133MOL   C15326817   1.765   5.432   6.683 -0.4763 -0.0533  0.3384
  133MOL   C15426818   1.614   5.421   6.656 -0.2724  0.2247 -0.4135
  133MOL   C15526819   1.544   5.348   6.772  0.1250  0.6570 -0.7177
  133MOL   H15626820   1.783   5.487   6.776  0.6781  1.5481 -0.7966
  133MOL   H15726821   1.819   5.341   6.712 -0.8327 -0.2589  0.3605
  133MOL   H15826822   1.582   5.524   6.639  2.6865  1.3653  0.6097
  133MOL   H15926823   1.603   5.371   6.560  0.4361 -0.0116 -0.3796
  133MOL   H16026824   1.565   5.410   6.860  0.9534  0.8147 -1.0139
  133MOL   H16126825   1.593   5.251   6.772 -0.5511  0.3182 -0.0256
  133MOL   O16226826   1.404   5.341   6.743 -0.1865  0.2882 -0.2826
  133MOL   C16326827   1.333   5.265   6.836 -0.5093 -0.3849  0.0477
  133MOL   C16426828   1.185   5.254   6.814 -0.2041 -0.2874 -0.2670
  133MOL   C16526829   1.117   5.376   6.866  0.3784  0.0588  0.7263
  133MOL   H16626830   1.360   5.304   6.934  0.2974 -1.2918  0.1949
  133MOL   H16726831   1.376   5.166   6.819 -0.4089 -0.4150  0.4790
  133MOL   H16826832   1.144   5.229   6.716  0.3326 -0.1283 -0.5346
  133MOL   H16926833   1.157   5.173   6.882 -0.9804  0.3776  0.2017
  133MOL   H17026834   1.170   5.461   6.822  2.8080 -2.9495 -2.4974
  133MOL   H17126835   1.119   5.373   6.975  0.4208 -0.9565  0.7015
  133MOL   O17226836   0.984   5.374   6.825  0.6740 -0.1029  0.4795
  133MOL   C17326837   0.915   5.495   6.832  0.1858  0.2526 -0.0390
  133MOL   C17426838   0.887   5.533   6.974  0.0619 -0.0442  0.4564
  133MOL   C17526839   0.766   5.453   7.035 -0.6672 -0.1605  0.9344
  133MOL   H17626840   0.826   5.485   6.770 -1.3030 -1.9614  2.3717
  133MOL   H17726841   0.976   5.571   6.782  1.2369 -0.2837  0.4231
  133MOL   H17826842   0.982   5.523   7.026 -0.4401 -0.8805  1.2234
  133MOL   H17926843   0.860   5.639   6.975 -0.0006 -0.0286 -1.1821
  133MOL   H18026844   0.784   5.351   7.068 -1.9627 -1.0447 -1.0191
  133MOL   H18126845   0.681   5.441   6.968 -0.4956  0.9005  0.5079
  133MOL   O18226846   0.732   5.521   7.158 -0.0277  0.0141  0.1577
  133MOL   C18326847   0.617   5.462   7.221 -0.0220 -0.2227 -0.0699
  133MOL   C18426848   0.570   5.565   7.324  0.1621 -0.0166  0.1659
  133MOL   C18526849   0.513   5.697   7.264  0.5189 -0.2267 -0.7212
  133MOL   H18626850   0.637   5.367   7.271 -3.0452 -0.7258  0.2709
  133MOL   H18726851   0.539   5.448   7.147  1.5242 -0.7512 -1.6404
  133MOL   H18826852   0.493   5.529   7.392 -1.8967  3.5749 -0.1546
  133MOL   H18926853   0.655   5.582   7.390  2.6498  0.9054 -3.0762
  133MOL   H19026854   0.409   5.685   7.233  0.2548 -0.8547  0.3687
  133MOL   H19126855   0.565   5.727   7.174  0.4241  0.6928 -0.4698
  133MOL   O19226856   0.529   5.796   7.368  0.0116  0.3311 -0.3061
  133MOL   C19326857   0.483   5.925   7.330 -0.1022  0.1910 -0.3699
  133MOL   C19426858   0.528   6.019   7.438 -0.2749 -0.1833  0.1598
  133MOL   C19526859   0.520   6.166   7.388  0.0863 -1.2640  0.7456
  133MOL   H19626860   0.374   5.913   7.334  0.0069 -0.1738  2.0302
  133MOL   H19726861   0.526   5.953   7.234  1.1570  3.0992  0.9932
  133MOL   H19826862   0.484   5.998   7.535  3.4301 -1.4223  1.6859
  133MOL   H19926863   0.634   5.994   7.449 -0.2127  0.2266  0.5210
  133MOL   H20026864   0.581   6.175   7.299  1.4330 -2.1000  1.5597
  133MOL   H20126865   0.550   6.243   7.459  0.4986 -1.6345  0.9746
  133MOL   H20226866   0.425   6.188   7.339  0.9568  3.0374  0.8079
  134MOL     O126867   2.744   1.740   1.487  0.1115  0.3143  0.5896
  134MOL     C226868   2.604   1.748   1.495 -0.5575  0.7160  0.1641
  134MOL     C326869   2.552   1.814   1.365  0.2933  0.1551 -0.4629
  134MOL     C426870   2.403   1.809   1.357 -0.3687  0.5215  0.2119
  134MOL     H526871   2.586   1.814   1.580  0.2126  0.4121  0.5713
  134MOL     H626872   2.570   1.644   1.503  2.0243 -0.0937  1.1091
  134MOL     H726873   2.580   1.919   1.375  1.6569 -0.3143  0.6978
  134MOL     H826874   2.603   1.772   1.278 -0.8716  0.0745 -1.1279
  134MOL     H926875   2.357   1.850   1.447  1.9884  2.0339  0.7600
  134MOL    H1026876   2.371   1.705   1.344  1.5953 -0.1066  0.2337
  134MOL    H1126877   2.783   1.664   1.527 -2.0381 -0.5447  1.0767
  134MOL    O1226878   2.366   1.881   1.240 -0.5909  0.1181 -0.0604
  134MOL    C1326879   2.230   1.894   1.212  0.8858 -0.7234  0.1601
  134MOL    C1426880   2.226   1.976   1.080 -0.3356  0.6462  0.2960
  134MOL    C1526881   2.087   1.970   1.006  0.2631 -0.1633 -0.3263
  134MOL    H1626882   2.169   1.938   1.291  1.7386  2.1815 -0.7765
  134MOL    H1726883   2.198   1.793   1.184  0.1786 -0.3360 -0.4378
  134MOL    H1826884   2.254   2.081   1.093  2.7699  0.0273 -0.9555
  134MOL    H1926885   2.296   1.931   1.010 -2.6229 -1.2722 -0.8151
  134MOL    H2026886   2.084   2.010   0.905  2.9262  2.2856  0.5019
  134MOL    H2126887   2.015   2.026   1.066 -1.2785 -0.9629 -1.4028
  134MOL    O2226888   2.034   1.839   0.993 -0.2381  0.2507 -0.4808
  134MOL    C2326889   1.896   1.838   0.972 -0.3430  0.0429  0.5118
  134MOL    C2426890   1.853   1.695   0.987  0.2166  0.0159 -0.0081
  134MOL    C2526891   1.697   1.687   0.969  0.0504  0.1042  0.1369
  134MOL    H2626892   1.874   1.878   0.873  0.4309 -1.2545 -0.2122
  134MOL    H2726893   1.850   1.890   1.055 -1.1229  0.3705 -0.1223
  134MOL    H2826894   1.908   1.649   0.905  1.5690  0.7425  0.4716
  134MOL    H2926895   1.883   1.644   1.078  1.0355 -3.1053 -1.9613
  134MOL    H3026896   1.667   1.584   0.954 -0.2220  0.1836  0.1390
  134MOL    H3126897   1.680   1.740   0.876  0.3281  0.8095  0.4812
  134MOL    O3226898   1.625   1.761   1.070  0.0765  0.1655 -0.1850
  134MOL    C3326899   1.486   1.735   1.072 -0.4262 -0.8473 -0.1236
  134MOL    C3426900   1.419   1.834   1.175 -0.4157  0.2240  0.2821
  134MOL    C3526901   1.451   1.803   1.320 -0.1187  0.1641 -0.7328
  134MOL    H3626902   1.480   1.632   1.107 -0.7632  0.2744  3.3428
  134MOL    H3726903   1.459   1.753   0.968 -0.7399  0.4888  0.1787
  134MOL    H3826904   1.440   1.937   1.149 -1.3531  0.6229  1.0935
  134MOL    H3926905   1.312   1.819   1.162 -0.5276 -1.7161  2.8848
  134MOL    H4026906   1.559   1.812   1.326  0.1077 -0.4622 -3.1958
  134MOL    H4126907   1.425   1.702   1.350 -1.9956  0.2667 -1.9082
  134MOL    O4226908   1.391   1.896   1.413  0.0863  0.1611  0.2509
  134MOL    C4326909   1.464   2.018   1.427 -0.0664 -0.0880  0.2557
  134MOL    C4426910   1.375   2.125   1.494  0.1358 -0.3284  0.3552
  134MOL    C4526911   1.440   2.256   1.520 -0.3388  0.5292  0.4695
  134MOL    H4626912   1.517   2.054   1.339  1.3541 -0.5509  0.9080
  134MOL    H4726913   1.541   2.002   1.502  0.6601  0.7499 -0.3064
  134MOL    H4826914   1.283   2.135   1.437  0.5896 -1.8328 -0.6663
  134MOL    H4926915   1.341   2.082   1.589  0.6756  4.3932  2.8245
  134MOL    H5026916   1.472   2.298   1.425 -1.0395 -1.5947 -0.7579
  134MOL    H5126917   1.536   2.236   1.567 -0.0532  1.1122  0.1404
  134MOL    O5226918   1.362   2.341   1.599 -0.1570 -0.4011 -0.3303
  134MOL    C5326919   1.418   2.477   1.596  0.6746 -0.0201  0.2989
  134MOL    C5426920   1.368   2.542   1.735  0.3500 -0.0420  0.2733
  134MOL    C5526921   1.225   2.568   1.738  0.3053 -1.1033 -0.7165
  134MOL    H5626922   1.399   2.536   1.507  1.0035 -0.3300  0.0210
  134MOL    H5726923   1.526   2.473   1.607  0.9566  0.2641 -2.1569
  134MOL    H5826924   1.393   2.480   1.821  1.4849 -1.8741 -1.3492
  134MOL    H5926925   1.421   2.636   1.751 -2.3913  1.8226 -1.1077
  134MOL    H6026926   1.174   2.472   1.733  0.5564 -1.2126 -1.2038
  134MOL    H6126927   1.193   2.622   1.649 -1.1073  1.2215  1.1619
  134MOL    O6226928   1.194   2.633   1.868  0.1245 -0.2698  0.4636
  134MOL    C6326929   1.070   2.705   1.876  0.7772 -0.3360  0.2762
  134MOL    C6426930   1.087   2.843   1.798 -0.2726 -0.0446  0.1643
  134MOL    C6526931   0.949   2.917   1.790 -0.8441 -0.4537 -0.3188
  134MOL    H6626932   1.047   2.724   1.980 -0.2581 -1.8856  0.3502
  134MOL    H6726933   0.985   2.643   1.849 -0.3499  1.4695 -0.3849
  134MOL    H6826934   1.157   2.913   1.845 -0.4911  1.7102 -2.0430
  134MOL    H6926935   1.118   2.805   1.701 -1.8712 -1.2560  0.1148
  134MOL    H7026936   0.899   2.921   1.887  3.0387 -1.2344  1.8441
  134MOL    H7126937   0.888   2.858   1.722  1.1888 -1.5484 -1.2405
  134MOL    O7226938   0.970   3.053   1.742  0.0270 -0.5726 -0.0343
  134MOL    C7326939   0.850   3.120   1.723  0.0830  0.1596  0.1216
  134MOL    C7426940   0.869   3.226   1.615 -0.6303 -0.4163  0.0184
  134MOL    C7526941   0.978   3.321   1.651 -0.2124 -0.2196  0.4285
  134MOL    H7626942   0.822   3.163   1.819 -2.0037 -1.3001  0.2234
  134MOL    H7726943   0.769   3.052   1.694  0.2266  1.3710 -3.3376
  134MOL    H7826944   0.887   3.188   1.515 -0.9607  0.5577 -0.4243
  134MOL    H7926945   0.772   3.275   1.608 -1.1245 -1.3960 -0.0309
  134MOL    H8026946   1.068   3.261   1.656  0.2199  0.2269 -1.3818
  134MOL    H8126947   0.953   3.357   1.751  0.1143  1.1551  0.0218
  134MOL    O8226948   0.979   3.423   1.556 -0.1912 -0.2808  0.0749
  134MOL    C8326949   1.061   3.530   1.602  0.4119  0.1359 -0.3558
  134MOL    C8426950   1.023   3.645   1.516  0.2990  0.2482 -0.1647
  134MOL    C8526951   1.080   3.782   1.549  0.4545  0.4077  0.2219
  134MOL    H8626952   1.168   3.513   1.592  0.9137  0.6799  3.2823
  134MOL    H8726953   1.047   3.560   1.706 -0.2648  0.4835 -0.5473
  134MOL    H8826954   1.043   3.625   1.411  3.0640  1.5706  0.0392
  134MOL    H8926955   0.916   3.663   1.524  0.1925 -0.2495 -0.5052
  134MOL    H9026956   1.189   3.785   1.546  0.4385 -0.0377 -1.4967
  134MOL    H9126957   1.042   3.814   1.646 -2.1255 -2.5372  0.2361
  134MOL    O9226958   1.024   3.868   1.455 -0.4145 -0.4062 -0.4607
  134MOL    C9326959   1.059   4.000   1.479  0.2328 -0.0279  0.0447
  134MOL    C9426960   0.960   4.077   1.396 -0.4851 -0.4248 -0.9086
  134MOL    C9526961   1.001   4.226   1.407  0.2084 -0.1306  0.1174
  134MOL    H9626962   1.159   4.005   1.436 -0.4814 -1.9835 -1.9511
  134MOL    H9726963   1.051   4.035   1.582 -4.0524 -0.9664  0.1462
  134MOL    H9826964   0.982   4.042   1.296 -0.3499 -1.1818 -0.6168
  134MOL    H9926965   0.859   4.058   1.432  0.1950 -1.2430  0.6200
  134MOL   H10026966   1.099   4.254   1.369  0.5732  0.0588  1.1752
  134MOL   H10126967   1.003   4.258   1.511  0.5161 -0.7846  0.3169
  134MOL   O10226968   0.912   4.299   1.325 -0.0145  0.4826 -0.3824
  134MOL   C10326969   0.902   4.436   1.349  0.0205  0.1819  0.0905
  134MOL   C10426970   0.782   4.497   1.286 -0.4173  0.4442 -0.2577
  134MOL   C10526971   0.762   4.642   1.317  0.0350  0.6948 -0.2660
  134MOL   H10626972   0.989   4.493   1.317  0.4430 -0.4038  0.1815
  134MOL   H10726973   0.888   4.447   1.457  2.7616  2.9976  0.2291
  134MOL   H10826974   0.789   4.484   1.178 -1.6940 -0.3109 -0.2640
  134MOL   H10926975   0.690   4.441   1.307 -0.2235 -0.5382 -1.9407
  134MOL   H11026976   0.846   4.693   1.273 -0.2260  2.4028  1.1640
  134MOL   H11126977   0.757   4.651   1.426 -2.5244 -1.8692 -0.0670
  134MOL   O11226978   0.644   4.675   1.247  0.7403  0.1383  0.1442
  134MOL   C11326979   0.607   4.816   1.253 -0.4009  0.6639  0.2237
  134MOL   C11426980   0.475   4.829   1.190  0.1706 -0.5374  0.4470
  134MOL   C11526981   0.443   4.975   1.173  0.1217 -0.7298 -0.0541
  134MOL   H11626982   0.681   4.882   1.208  0.9186  0.3992  1.9693
  134MOL   H11726983   0.613   4.852   1.356  0.6305  3.4276 -0.7385
  134MOL   H11826984   0.481   4.791   1.088  3.0021 -0.8140  0.6872
  134MOL   H11926985   0.407   4.768   1.249  0.6704  0.7923  2.4433
  134MOL   H12026986   0.525   5.041   1.143  0.1420 -1.1754 -1.0014
  134MOL   H12126987   0.404   5.005   1.271  0.1108 -2.8876  0.6118
  134MOL   O12226988   0.342   4.993   1.073 -0.1072  0.2660  0.3843
  134MOL   C12326989   0.269   5.114   1.093 -0.2040  0.3574  0.3679
  134MOL   C12426990   0.315   5.239   1.015  0.7934 -0.4231 -0.2168
  134MOL   C12526991   0.225   5.355   1.042 -0.3099 -0.5495  0.1661
  134MOL   H12626992   0.257   5.146   1.196 -0.2597  2.8613 -0.3863
  134MOL   H12726993   0.165   5.094   1.065 -0.3608  1.3779  0.2205
  134MOL   H12826994   0.415   5.251   1.057 -0.1321 -1.8474  2.5162
  134MOL   H12926995   0.321   5.224   0.908  0.5534  2.2256 -0.6355
  134MOL   H13026996   0.123   5.317   1.051 -0.1976 -1.0337 -0.6269
  134MOL   H13126997   0.218   5.421   0.956  1.0609 -1.0189 -0.3006
  134MOL   O13226998   0.266   5.423   1.161 -0.2471 -0.1577  0.1749
  134MOL   C13326999   0.198   5.548   1.174  0.0614 -0.2684 -0.0431
  134MOL   C13427000   0.259   5.635   1.275 -0.1047  0.2063  0.6556
  134MOL   C13527001   0.230   5.787   1.264 -0.5577 -0.5459 -0.6365
  134MOL   H13627002   0.089   5.548   1.184 -0.2056  0.4204 -2.5730
  134MOL   H13727003   0.212   5.610   1.085  2.5011 -0.3253  0.2644
  134MOL   H13827004   0.239   5.595   1.375 -0.0986  1.4251  1.1564
  134MOL   H13927005   0.367   5.620   1.272 -0.4530 -2.2631 -0.5883
  134MOL   H14027006   0.124   5.811   1.276  0.0454  3.1341 -2.0591
  134MOL   H14127007   0.266   5.820   1.166 -0.6087  1.5741  0.0328
  134MOL   O14227008   0.311   5.843   1.366 -0.2366  0.1430  0.1603
  134MOL   C14327009   0.312   5.986   1.362  1.0977 -0.2479  0.3470
  134MOL   C14427010   0.440   6.023   1.437  0.2260  0.3728  0.3121
  134MOL   C14527011   0.421   6.001   1.584  0.5822  0.1541 -0.2695
  134MOL   H14627012   0.223   6.022   1.414  2.3764  0.2854  2.2313
  134MOL   H14727013   0.299   6.026   1.262  1.0683 -0.1636  0.3844
  134MOL   H14827014   0.530   5.972   1.404 -0.4971 -2.9880  3.2076
  134MOL   H14927015   0.465   6.128   1.431  5.6312 -0.8817 -1.3266
  134MOL   H15027016   0.419   5.893   1.603 -0.0246  0.1805 -0.1743
  134MOL   H15127017   0.320   6.031   1.613  0.0093  0.6195 -2.6407
  134MOL   O15227018   0.528   6.059   1.653  0.1787  0.3325  0.5163
  134MOL   C15327019   0.636   5.967   1.661  0.0860  0.7111  0.1696
  134MOL   C15427020   0.744   6.021   1.756  0.6039 -0.1950  0.1612
  134MOL   C15527021   0.693   6.027   1.900 -0.2243  0.5299  0.9349
  134MOL   H15627022   0.673   5.962   1.559 -0.5785 -0.1135 -0.0405
  134MOL   H15727023   0.609   5.867   1.693 -1.1663  1.4847  1.6514
  134MOL   H15827024   0.830   5.955   1.745  1.1438  0.1339  2.3148
  134MOL   H15927025   0.776   6.122   1.727  0.6458 -0.0134  0.8318
  134MOL   H16027026   0.606   6.092   1.896 -0.0943  0.5815 -2.1441
  134MOL   H16127027   0.775   6.066   1.961  3.1225 -0.7261 -2.5083
  134MOL   O16227028   0.661   5.898   1.942 -0.1046 -0.7785 -0.3824
  134MOL   C16327029   0.610   5.884   2.076 -0.1963 -0.8296  0.0287
  134MOL   C16427030   0.596   5.745   2.133  0.0945  0.9176  1.0232
  134MOL   C16527031   0.549   5.757   2.275 -0.1045  0.0224  0.1420
  134MOL   H16627032   0.511   5.931   2.073 -0.7774 -2.0995 -1.7504
  134MOL   H16727033   0.671   5.939   2.147  3.3529  0.2142 -3.6486
  134MOL   H16827034   0.525   5.687   2.074  1.9589 -1.0054  0.6106
  134MOL   H16927035   0.689   5.687   2.131  1.2709  2.7945 -1.1438
  134MOL   H17027036   0.618   5.808   2.341 -1.1821  1.3963  0.2384
  134MOL   H17127037   0.544   5.660   2.323 -0.4608 -1.7144 -3.2650
  134MOL   O17227038   0.423   5.808   2.267 -0.2458  0.6033  0.6502
  134MOL   C17327039   0.365   5.867   2.386  0.4541 -0.2166  0.6802
  134MOL   C17427040   0.238   5.946   2.357  0.3161  0.3116  0.1635
  134MOL   C17527041   0.187   6.019   2.480 -0.1926  0.3653 -0.6040
  134MOL   H17627042   0.442   5.922   2.440  1.0728 -1.4887  1.1190
  134MOL   H17727043   0.340   5.783   2.451  0.6139 -0.6277  0.2125
  134MOL   H17827044   0.248   6.013   2.272  0.1845 -1.0197 -0.9197
  134MOL   H17927045   0.166   5.873   2.321 -2.3949  3.7236 -1.4863
  134MOL   H18027046   0.170   5.947   2.559  0.6773  0.3601 -0.4119
  134MOL   H18127047   0.089   6.061   2.459 -0.7653 -0.9827 -0.6194
  134MOL   O18227048   0.279   6.112   2.523  0.3221 -0.1190  0.1566
  134MOL   C18327049   0.253   6.251   2.501  0.0520  0.2937  0.1611
  134MOL   C18427050   0.385   6.327   2.538  0.3634 -0.6130  0.8835
  134MOL   C18527051   0.371   6.479   2.503 -0.4079  0.7095 -1.1714
  134MOL   H18627052   0.167   6.304   2.541  1.8698  3.5914 -0.1302
  134MOL   H18727053   0.232   6.258   2.394 -1.6851  0.4521  0.5011
  134MOL   H18827054   0.400   6.302   2.643 -2.3836  0.0397  1.4495
  134MOL   H18927055   0.467   6.288   2.478  1.3596 -0.6387  2.2364
  134MOL   H19027056   0.305   6.521   2.578  0.1204 -0.3023 -0.1351
  134MOL   H19127057   0.315   6.489   2.410 -2.0976  3.3399  0.0685
  134MOL   O19227058   0.496   6.538   2.510 -0.5097  0.5188  0.7365
  134MOL   C19327059   0.553   6.572   2.635  0.4464  0.0555 -0.8860
  134MOL   C19427060   0.623   6.703   2.609 -0.6157  0.6680  0.8456
  134MOL   C19527061   0.656   6.772   2.747 -0.1196  0.0658  0.4658
  134MOL   H19627062   0.615   6.484   2.648 -0.1574 -0.2645 -0.1134
  134MOL   H19727063   0.481   6.589   2.715 -0.0044 -2.5273 -0.7044
  134MOL   H19827064   0.716   6.683   2.555 -0.9747 -0.6196  0.6844
  134MOL   H19927065   0.565   6.770   2.546 -0.0907  1.1564  0.8753
  134MOL   H20027066   0.693   6.701   2.821 -0.5306 -0.5286  0.1105
  134MOL   H20127067   0.563   6.817   2.781 -1.0068 -1.6263  0.3862
  134MOL   H20227068   0.747   6.831   2.737 -0.1406 -0.2451 -2.0854
  135MOL     O127069   1.557   6.810   4.346  0.2934  0.2655 -0.0775
  135MOL     C227070   1.583   6.822   4.486 -0.7829  0.1925  0.7631
  135MOL     C327071   1.707   6.906   4.496 -0.1215  0.5415  0.5992
  135MOL     C427072   1.707   6.942   4.644 -0.6316 -0.3080  1.1837
  135MOL     H527073   1.593   6.724   4.534 -2.2730 -0.7702 -0.8454
  135MOL     H627074   1.495   6.872   4.527 -1.0959  2.1383 -2.1489
  135MOL     H727075   1.802   6.855   4.485 -0.5712  0.1154 -1.5907
  135MOL     H827076   1.702   6.992   4.428  0.3006  0.3007  0.2653
  135MOL     H927077   1.707   6.859   4.715  0.3656  0.8187  2.5180
  135MOL    H1027078   1.632   7.014   4.675 -1.3613 -0.7973  0.5603
  135MOL    H1127079   1.481   6.861   4.324 -1.8117 -2.8830 -0.4974
  135MOL    O1227080   1.824   7.013   4.674 -0.3722 -0.1587 -0.0565
  135MOL    C1327081   1.847   7.051   4.810  0.6707  1.3569  0.3248
  135MOL    C1427082   1.793   7.196   4.844  0.0134  0.7043 -1.0145
  135MOL    C1527083   1.824   7.229   4.995 -0.9093 -0.3797  0.3167
  135MOL    H1627084   1.953   7.047   4.833  0.7539 -0.1606 -0.2816
  135MOL    H1727085   1.800   6.976   4.873  1.8819 -0.6022 -1.0400
  135MOL    H1827086   1.846   7.272   4.787  1.3557 -0.9530 -2.0279
  135MOL    H1927087   1.687   7.209   4.825 -0.1474  0.4476 -0.3208
  135MOL    H2027088   1.832   7.338   5.000  3.1520 -0.3893 -2.6922
  135MOL    H2127089   1.918   7.193   5.038 -0.4219  0.7380  0.2120
  135MOL    O2227090   1.724   7.176   5.069  0.2137  0.4648 -0.0727
  135MOL    C2327091   1.720   7.244   5.195  0.8163  0.1920 -0.4188
  135MOL    C2427092   1.627   7.158   5.279 -0.0944  0.5523  0.2064
  135MOL    C2527093   1.594   7.220   5.406 -0.2281  0.4176 -0.1956
  135MOL    H2627094   1.685   7.347   5.187  1.9914  0.5651 -0.8302
  135MOL    H2727095   1.815   7.254   5.247 -0.3307  1.2180  1.5247
  135MOL    H2827096   1.542   7.148   5.212 -0.8043 -1.6692  1.3944
  135MOL    H2927097   1.666   7.057   5.292 -0.1172  0.4060 -0.8741
  135MOL    H3027098   1.529   7.149   5.457  0.5052 -1.2714 -1.5849
  135MOL    H3127099   1.543   7.315   5.390 -0.1221  0.1803 -1.9427
  135MOL    O3227100   1.717   7.240   5.480 -0.3712  0.0152  1.0653
  135MOL    C3327101   1.689   7.292   5.606 -0.5837 -0.1324 -0.9427
  135MOL    C3427102   1.805   7.302   5.707  0.5613 -0.2553  0.2887
  135MOL    C3527103   1.873   7.173   5.747  0.5139 -0.2018  0.8381
  135MOL    H3627104   1.613   7.230   5.653 -1.2003  0.8436 -0.6376
  135MOL    H3727105   1.653   7.393   5.586 -0.7854 -0.7967 -4.1258
  135MOL    H3827106   1.869   7.389   5.688  1.4110 -1.2473 -1.5639
  135MOL    H3927107   1.748   7.322   5.798 -2.3516 -0.3424 -1.4459
  135MOL    H4027108   1.938   7.146   5.665  0.5174  0.1074  0.7367
  135MOL    H4127109   1.796   7.101   5.775  0.2762  0.0321  0.8012
  135MOL    O4227110   1.946   7.191   5.862  0.0287  0.1055 -0.4274
  135MOL    C4327111   2.023   7.069   5.889 -0.3081 -0.6199  0.3941
  135MOL    C4427112   2.068   7.073   6.031 -0.9911  0.8717  0.3396
  135MOL    C4527113   2.130   6.937   6.072 -1.3157  0.4143  0.1321
  135MOL    H4627114   2.106   7.066   5.819 -0.0600  1.3947  0.5738
  135MOL    H4727115   1.964   6.979   5.873  0.8334 -1.4128  0.6330
  135MOL    H4827116   2.139   7.155   6.044  0.2407  0.1945 -1.7433
  135MOL    H4927117   1.994   7.100   6.107 -0.8077  0.7941  0.5459
  135MOL    H5027118   2.184   6.947   6.166 -0.2214 -4.3032  0.1074
  135MOL    H5127119   2.209   6.899   6.008 -1.4555  2.2938 -1.2095
  135MOL    O5227120   2.017   6.853   6.089  0.0891 -0.3146 -0.5282
  135MOL    C5327121   2.041   6.723   6.135 -0.0266 -0.0045  0.2361
  135MOL    C5427122   1.921   6.630   6.140 -0.1602 -0.5893 -0.6638
  135MOL    C5527123   1.922   6.508   6.232  0.6053 -0.0015 -0.2462
  135MOL    H5627124   2.074   6.731   6.238  0.5377  0.2350  0.0407
  135MOL    H5727125   2.112   6.662   6.079  0.8021  0.8390  0.3481
  135MOL    H5827126   1.839   6.692   6.179  0.1718 -0.7649  0.3077
  135MOL    H5927127   1.895   6.608   6.037 -0.0967 -0.9116 -0.6099
  135MOL    H6027128   2.007   6.442   6.213  0.8872  0.0068  0.9629
  135MOL    H6127129   1.829   6.453   6.218  0.4141 -0.1197  1.3622
  135MOL    O6227130   1.942   6.542   6.363  0.6585 -0.2778  0.3094
  135MOL    C6327131   1.958   6.426   6.449  0.3454  0.7648  0.3136
  135MOL    C6427132   1.981   6.478   6.599  0.2160  0.1279 -0.6346
  135MOL    C6527133   1.960   6.367   6.702 -0.1308 -0.2688 -0.3266
  135MOL    H6627134   2.036   6.361   6.410 -0.8612 -1.5576  1.6712
  135MOL    H6727135   1.868   6.364   6.446  1.0885 -0.2282 -2.1914
  135MOL    H6827136   2.072   6.538   6.609 -0.5588  1.6600 -2.4560
  135MOL    H6927137   1.907   6.557   6.613  0.3873  0.3380 -0.8923
  135MOL    H7027138   2.036   6.289   6.703 -1.5045 -1.6234 -0.9294
  135MOL    H7127139   1.855   6.343   6.688 -0.8044  1.4473  1.3933
  135MOL    O7227140   1.967   6.420   6.835 -0.2326  0.0208  0.2903
  135MOL    C7327141   1.917   6.321   6.927 -0.3223 -0.2005  0.4378
  135MOL    C7427142   1.928   6.359   7.074  0.5932 -0.0501 -0.4604
  135MOL    C7527143   1.915   6.241   7.173 -0.3043 -0.1363 -0.6954
  135MOL    H7627144   1.975   6.230   6.913 -0.7744 -0.4905  0.4509
  135MOL    H7727145   1.810   6.303   6.917 -0.2871  0.7648 -1.9917
  135MOL    H7827146   2.019   6.417   7.094  0.1588 -0.2279  2.1469
  135MOL    H7927147   1.856   6.439   7.089  0.5659 -0.0934 -0.3666
  135MOL    H8027148   1.989   6.163   7.155  1.8002  1.0787  2.3407
  135MOL    H8127149   1.818   6.198   7.147  0.2720 -1.2138 -1.0846
  135MOL    O8227150   1.906   6.282   7.312  1.0083  0.1874 -0.0124
  135MOL    C8327151   1.879   6.175   7.397  0.0117  0.0819 -0.3740
  135MOL    C8427152   1.879   6.218   7.546 -0.3327 -0.0906 -0.0008
  135MOL    C8527153   1.844   6.103   7.640  0.0908 -0.5570 -0.0532
  135MOL    H8627154   1.963   6.106   7.391  0.4514  0.5380  0.3922
  135MOL    H8727155   1.781   6.141   7.365 -0.8925  2.4785 -0.2463
  135MOL    H8827156   1.983   6.248   7.564  0.2310 -1.7549 -0.3343
  135MOL    H8927157   1.813   6.304   7.555 -0.9296 -0.6310  0.8730
  135MOL    H9027158   1.903   6.012   7.638  0.9230  0.0008 -1.4499
  135MOL    H9127159   1.740   6.078   7.619 -0.5111  0.4790  1.5834
  135MOL    O9227160   1.855   6.148   7.774  0.1808  0.4503 -0.4787
  135MOL    C9327161   1.804   6.054   0.083 -0.1992  0.2404 -0.3945
  135MOL    C9427162   1.797   6.116   0.224 -0.5851 -0.5375 -0.6256
  135MOL    C9527163   1.751   6.022   0.338 -0.0009 -0.1966  0.0498
  135MOL    H9627164   1.870   5.968   0.076  2.2826  2.1814 -2.0653
  135MOL    H9727165   1.708   6.022   0.044  0.1792  1.8126 -2.7492
  135MOL    H9827166   1.894   6.160   0.245 -2.0829  2.6368 -0.0267
  135MOL    H9927167   1.726   6.199   0.230 -0.3989 -0.4535  0.7248
  135MOL   H10027168   1.765   6.074   0.433  0.0375  1.9188 -1.0854
  135MOL   H10127169   1.809   5.930   0.342  0.0774 -0.1445  0.1075
  135MOL   O10227170   1.623   5.971   0.324  0.2813  0.2248  0.0511
  135MOL   C10327171   1.554   5.942   0.443 -0.5252 -0.1876 -0.0725
  135MOL   C10427172   1.494   6.074   0.497  0.2246  0.2649 -0.3174
  135MOL   C10527173   1.381   6.054   0.599  0.4274  0.8909 -0.0660
  135MOL   H10627174   1.623   5.897   0.515  0.2863  0.8243 -0.1953
  135MOL   H10727175   1.468   5.879   0.420 -1.8987  1.1131  1.3630
  135MOL   H10827176   1.578   6.127   0.541  0.8250 -0.9177 -0.0227
  135MOL   H10927177   1.455   6.130   0.412  0.8338  1.0578 -0.0764
  135MOL   H11027178   1.419   6.013   0.692  0.0307  0.9092  0.1048
  135MOL   H11127179   1.307   5.986   0.558  1.0627 -0.8066  1.5548
  135MOL   O11227180   1.320   6.179   0.633  0.1175 -0.5512  0.8552
  135MOL   C11327181   1.240   6.173   0.755 -0.0011  0.1133 -0.4258
  135MOL   C11427182   1.310   6.263   0.857  0.0185 -0.4892 -0.6465
  135MOL   C11527183   1.455   6.233   0.882 -0.6361 -0.2649  0.0790
  135MOL   H11627184   1.220   6.073   0.793 -1.5585  0.7474  0.4621
  135MOL   H11727185   1.143   6.220   0.740 -0.6821 -1.5859 -1.5534
  135MOL   H11827186   1.294   6.368   0.832 -1.3958 -0.2868  0.9994
  135MOL   H11927187   1.265   6.253   0.956 -0.6277 -1.6802 -1.0500
  135MOL   H12027188   1.504   6.292   0.959  0.3636 -1.6874  0.5435
  135MOL   H12127189   1.519   6.235   0.793 -0.9743 -0.4180 -0.1688
  135MOL   O12227190   1.469   6.099   0.942 -0.0746 -0.0438 -0.2331
  135MOL   C12327191   1.590   6.035   0.912 -0.5157  0.2045 -0.3620
  135MOL   C12427192   1.577   5.895   0.955  0.4453 -0.0721  0.0088
  135MOL   C12527193   1.714   5.821   0.957 -0.0786 -0.0683 -0.0410
  135MOL   H12627194   1.668   6.077   0.976 -0.8004  0.8209 -0.4138
  135MOL   H12727195   1.623   6.037   0.808  2.8480 -1.1503  0.5913
  135MOL   H12827196   1.545   5.883   1.059 -2.6842  3.2050 -0.4914
  135MOL   H12927197   1.503   5.855   0.886 -0.4295  0.8213  0.4224
  135MOL   H13027198   1.775   5.835   1.046 -1.2081 -0.3450  0.7946
  135MOL   H13127199   1.774   5.851   0.871  2.7642  0.2838  1.9825
  135MOL   O13227200   1.678   5.688   0.945  0.2139 -0.0748 -0.0302
  135MOL   C13327201   1.783   5.591   0.974  0.1924  0.1421 -0.4030
  135MOL   C13427202   1.740   5.446   0.975  0.2348 -0.0976  0.1721
  135MOL   C13527203   1.859   5.356   1.013 -0.4702  0.1932 -0.2694
  135MOL   H13627204   1.814   5.606   1.077  0.0209  0.0468 -0.3374
  135MOL   H13727205   1.873   5.608   0.914  0.3065  0.0034 -0.2705
  135MOL   H13827206   1.662   5.433   1.051 -1.1445 -2.0214 -1.5222
  135MOL   H13927207   1.702   5.416   0.878 -0.4266 -3.2292  1.3444
  135MOL   H14027208   1.821   5.254   1.027  1.4432 -0.5635 -0.4132
  135MOL   H14127209   1.902   5.382   1.110 -0.8834  0.4478 -0.1560
  135MOL   O14227210   1.951   5.345   0.905  0.4175  0.4771 -0.3855
  135MOL   C14327211   2.072   5.282   0.938 -0.0531  0.2295  0.4850
  135MOL   C14427212   2.166   5.285   0.822  0.8262 -0.0518  0.6663
  135MOL   C14527213   2.241   5.418   0.802  0.5767  0.3646 -0.3112
  135MOL   H14627214   2.055   5.176   0.955 -1.2906  0.2517 -0.5414
  135MOL   H14727215   2.106   5.323   1.033  1.3502  1.8831 -0.6936
  135MOL   H14827216   2.243   5.209   0.840  1.9112  0.9901  0.4684
  135MOL   H14927217   2.116   5.253   0.731  0.1036  0.6450  0.8152
  135MOL   H15027218   2.263   5.463   0.898  3.3502  0.9298 -1.1517
  135MOL   H15127219   2.184   5.489   0.742 -0.2623 -1.1424 -1.3338
  135MOL   O15227220   2.355   5.400   0.719 -0.5098 -0.1518  0.3854
  135MOL   C15327221   2.411   5.524   0.670  1.0336  0.2469 -0.4749
  135MOL   C15427222   2.516   5.510   0.561  0.0705 -0.3543  0.1959
  135MOL   C15527223   2.645   5.459   0.630 -0.5916 -0.8792 -0.4722
  135MOL   H15627224   2.458   5.584   0.747 -0.2821 -0.2531  0.7550
  135MOL   H15727225   2.321   5.580   0.644 -1.5022 -1.1316  4.5884
  135MOL   H15827226   2.495   5.455   0.469  0.2838  0.6135 -0.4409
  135MOL   H15927227   2.532   5.612   0.525  0.9151 -0.7595 -0.6277
  135MOL   H16027228   2.620   5.371   0.688 -0.0360  0.1737  1.4252
  135MOL   H16127229   2.677   5.533   0.704  1.2278 -0.2011 -1.9086
  135MOL   O16227230   2.754   5.455   0.536  0.1235  0.3560 -0.0395
  135MOL   C16327231   2.860   5.373   0.575 -0.2645  0.1258 -0.1901
  135MOL   C16427232   2.982   5.389   0.471 -0.5249 -0.1704  0.5112
  135MOL   C16527233   3.032   5.530   0.445 -0.3957  0.6214 -0.4351
  135MOL   H16627234   2.822   5.271   0.571  1.0384 -0.3841 -0.1328
  135MOL   H16727235   2.892   5.396   0.677 -1.2306 -1.7596  0.5733
  135MOL   H16827236   3.067   5.327   0.499 -0.6491 -0.2675  0.6754
  135MOL   H16927237   2.921   5.360   0.386  0.3485  2.9917 -1.2682
  135MOL   H17027238   3.058   5.577   0.540 -0.8101 -0.3877  0.1825
  135MOL   H17127239   2.965   5.597   0.392 -2.5199 -1.3801 -0.3631
  135MOL   O17227240   3.156   5.517   0.377 -0.3131 -0.4951  0.0662
  135MOL   C17327241   3.204   5.645   0.332  0.0323 -0.0785 -0.7707
  135MOL   C17427242   3.361   5.628   0.344 -0.3054  0.5690 -0.5291
  135MOL   C17527243   3.428   5.667   0.220  0.4328 -0.5520 -0.3042
  135MOL   H17627244   3.177   5.715   0.411  1.1644  0.3165 -0.7140
  135MOL   H17727245   3.160   5.667   0.234 -1.7816  1.6404  0.4063
  135MOL   H17827246   3.401   5.701   0.415 -0.7858 -0.0242  0.3691
  135MOL   H17927247   3.397   5.529   0.374 -1.7129  0.1333 -0.2395
  135MOL   H18027248   3.410   5.584   0.151 -0.5810  0.5941 -1.4304
  135MOL   H18127249   3.536   5.666   0.235  0.5084 -0.5301 -0.8502
  135MOL   O18227250   3.382   5.796   0.174 -0.2519  0.1217 -0.2014
  135MOL   C18327251   3.425   5.834   0.046  0.1287  0.5751  0.3742
  135MOL   C18427252   3.332   5.781   7.725  0.2728  0.1253 -0.2980
  135MOL   C18527253   3.416   5.792   7.590 -0.6360  0.9857 -0.1016
  135MOL   H18627254   3.528   5.807   0.025  0.5866  1.6394  1.1458
  135MOL   H18727255   3.433   5.943   0.054  1.1965  0.6695 -1.7752
  135MOL   H18827256   3.300   5.679   7.748 -0.7838  0.2767 -1.0522
  135MOL   H18927257   3.240   5.839   7.720 -0.3037 -0.8327 -1.0492
  135MOL   H19027258   3.510   5.738   7.604  0.0319  1.9745 -0.6614
  135MOL   H19127259   3.446   5.894   7.566  1.5305  0.3136 -0.3817
  135MOL   O19227260   3.343   5.738   7.484  0.0456  0.6371  0.0872
  135MOL   C19327261   3.424   5.713   7.368 -0.3550  0.0427  0.0442
  135MOL   C19427262   3.346   5.619   7.275  0.6615 -0.6086 -0.8705
  135MOL   C19527263   3.222   5.686   7.200  0.1408 -0.0915 -0.0733
  135MOL   H19627264   3.507   5.650   7.400  0.5364  0.7304 -0.8725
  135MOL   H19727265   3.474   5.797   7.319 -0.5659  1.2249  1.8038
  135MOL   H19827266   3.409   5.575   7.197 -0.8523 -1.7441 -1.4884
  135MOL   H19927267   3.306   5.543   7.343  0.4148  1.3152  1.1636
  135MOL   H20027268   3.165   5.606   7.151  2.9636 -1.5792 -1.0604
  135MOL   H20127269   3.237   5.766   7.128  1.7562  0.9120  1.3559
  135MOL   H20227270   3.154   5.720   7.278  0.0851  1.0348 -0.6165
  136MOL     O127271   3.822   5.726   0.575 -0.6369  0.3131 -0.3153
  136MOL     C227272   3.953   5.772   0.589  0.5249 -0.2590  0.7098
  136MOL     C327273   3.946   5.889   0.688 -0.3291  0.5579 -0.4537
  136MOL     C427274   4.084   5.913   0.753  0.5727  0.3714 -0.4155
  136MOL     H527275   3.984   5.805   0.490 -1.9978 -0.8123 -0.3167
  136MOL     H627276   4.016   5.693   0.629  2.2766  0.4950 -0.5009
  136MOL     H727277   3.912   5.984   0.646 -0.9327  2.0173  3.1834
  136MOL     H827278   3.871   5.866   0.763 -1.4610 -1.7531 -2.2396
  136MOL     H927279   4.148   5.940   0.669 -0.1326  0.5141 -0.9123
  136MOL    H1027280   4.129   5.829   0.805 -2.9212 -0.9623  0.5654
  136MOL    H1127281   3.772   5.776   0.512 -1.7725 -0.8295 -0.3374
  136MOL    O1227282   4.074   6.027   0.845 -0.2079 -0.1925 -0.0274
  136MOL    C1327283   4.202   6.079   0.881  0.7059  0.4548 -0.2179
  136MOL    C1427284   4.178   6.157   1.016 -0.4183 -0.3021  0.0412
  136MOL    C1527285   4.312   6.179   1.094 -0.2025 -0.1960  0.2182
  136MOL    H1627286   4.243   6.139   0.800 -1.1254 -0.2872 -1.7295
  136MOL    H1727287   4.272   5.996   0.894  2.7045  2.0566 -0.4721
  136MOL    H1827288   4.125   6.251   0.997 -0.8162  0.2233  3.4721
  136MOL    H1927289   4.115   6.111   1.092  0.9996  3.0418  3.4403
  136MOL    H2027290   4.375   6.254   1.046 -0.6470 -0.3378 -0.5916
  136MOL    H2127291   4.367   6.085   1.092  0.0263 -0.0469 -1.2119
  136MOL    O2227292   4.279   6.224   1.223  0.7003  0.5660 -0.2675
  136MOL    C2327293   4.390   6.212   1.308  0.1450  0.1766  0.5002
  136MOL    C2427294   4.397   6.318   1.420 -0.1391 -0.2636  0.4865
  136MOL    C2527295   4.294   6.294   1.527 -0.0739 -0.0665 -0.0012
  136MOL    H2627296   4.485   6.233   1.258  0.1173  0.7691  0.6925
  136MOL    H2727297   4.407   6.109   1.338 -1.4415  0.3370  2.0118
  136MOL    H2827298   4.495   6.313   1.467 -0.1772  0.9785  0.7200
  136MOL    H2927299   4.365   6.413   1.378 -1.2425  0.0331  1.9578
  136MOL    H3027300   4.326   6.198   1.567  1.7994  1.8228  3.2334
  136MOL    H3127301   4.202   6.289   1.470  0.6413 -0.7803 -1.1209
  136MOL    O3227302   4.304   6.390   1.640 -0.1840 -0.0418  0.1318
  136MOL    C3327303   4.214   6.363   1.742 -0.1766 -0.4304  0.0195
  136MOL    C3427304   4.232   6.456   1.861 -0.4079 -0.4201  0.6782
  136MOL    C3527305   4.132   6.417   1.964  0.0972  0.3539  0.1741
  136MOL    H3627306   4.214   6.259   1.774 -1.1856 -0.1104  1.0725
  136MOL    H3727307   4.113   6.385   1.709 -0.4515 -0.4478  0.8568
  136MOL    H3827308   4.331   6.468   1.904 -0.0463 -0.8327 -0.0489
  136MOL    H3927309   4.201   6.557   1.832 -0.7283 -0.4222  1.0032
  136MOL    H4027310   4.171   6.334   2.023 -1.6817 -2.4623 -2.4368
  136MOL    H4127311   4.044   6.375   1.915  0.5297 -0.0617 -0.2435
  136MOL    O4227312   4.087   6.527   2.048 -0.1428 -0.7068  0.0917
  136MOL    C4327313   4.017   6.482   2.157  0.2260 -0.1972  0.6433
  136MOL    C4427314   3.956   6.615   2.227 -0.2130 -0.2222  0.7840
  136MOL    C4527315   3.886   6.714   2.125  0.2319 -0.6138 -0.4000
  136MOL    H4627316   4.086   6.438   2.229  0.0794  0.3678  1.1406
  136MOL    H4727317   3.951   6.409   2.112  2.7790 -1.7827 -0.6334
  136MOL    H4827318   3.892   6.577   2.306  0.3697 -0.8114  0.9809
  136MOL    H4927319   4.044   6.663   2.268 -0.0347  1.1014 -1.0833
  136MOL    H5027320   3.813   6.661   2.064 -0.3059 -1.5053  0.9838
  136MOL    H5127321   3.966   6.742   2.056  0.2206  3.1546  1.0263
  136MOL    O5227322   3.827   6.830   2.185  0.2856  0.0238 -0.6679
  136MOL    C5327323   3.767   6.915   2.096 -0.1171 -0.0809  0.1604
  136MOL    C5427324   3.682   7.014   2.176 -0.4216  0.2468 -0.4833
  136MOL    C5527325   3.751   7.068   2.297  0.1677  0.0441 -0.8122
  136MOL    H5627326   3.706   6.863   2.021 -0.9262  1.3223 -0.1792
  136MOL    H5727327   3.845   6.957   2.032  1.1221 -1.1924  0.9306
  136MOL    H5827328   3.644   7.095   2.114 -1.5447  0.3349  0.3049
  136MOL    H5927329   3.596   6.960   2.215 -0.1280 -1.3207 -2.0127
  136MOL    H6027330   3.845   7.113   2.265 -0.3778  0.8856 -1.2169
  136MOL    H6127331   3.767   6.994   2.377 -1.4283  0.7204  0.1466
  136MOL    O6227332   3.663   7.163   2.341 -0.0161  0.2520 -0.8059
  136MOL    C6327333   3.694   7.208   2.472  0.9496 -0.4094  0.6587
  136MOL    C6427334   3.598   7.315   2.525  0.1690  0.2073 -0.3990
  136MOL    C6527335   3.632   7.363   2.665  0.4849 -0.6035  0.0236
  136MOL    H6627336   3.783   7.268   2.456  0.9687 -0.9336 -1.2651
  136MOL    H6727337   3.704   7.136   2.553  1.2205  0.8650  1.7919
  136MOL    H6827338   3.591   7.397   2.454  0.3496  2.0636  1.6657
  136MOL    H6927339   3.499   7.269   2.534  1.2441 -2.2325 -0.7760
  136MOL    H7027340   3.685   7.292   2.729  0.7339  1.6788  2.4311
  136MOL    H7127341   3.545   7.397   2.721  1.7790  1.2850  0.9468
  136MOL    O7227342   3.724   7.471   2.653 -0.1348 -0.8306 -0.1337
  136MOL    C7327343   3.770   7.517   2.777  0.2455  0.4159 -0.7194
  136MOL    C7427344   3.693   7.645   2.813  0.5480  0.3637 -0.2340
  136MOL    C7527345   3.754   7.720   2.922  0.2301 -0.0241  0.4026
  136MOL    H7627346   3.876   7.546   2.778  0.5625 -0.6807  1.7738
  136MOL    H7727347   3.755   7.443   2.856  0.9838  0.4522 -0.5333
  136MOL    H7827348   3.696   7.707   2.724 -2.3593 -1.6386 -1.8117
  136MOL    H7927349   3.587   7.634   2.837  0.7042 -0.7301 -0.0361
  136MOL    H8027350   3.717   0.034   2.928 -0.8096 -0.4116  0.6931
  136MOL    H8127351   3.861   7.734   2.907  0.0934 -2.5957 -3.6765
  136MOL    O8227352   3.736   7.668   3.053 -0.4224 -0.1976 -0.3772
  136MOL    C8327353   3.790   7.744   3.154  0.0805  0.8285  0.3024
  136MOL    C8427354   3.914   7.688   3.212 -0.8193 -0.4794  0.1019
  136MOL    C8527355   4.041   7.729   3.145 -0.2498  0.1554 -0.1797
  136MOL    H8627356   3.722   7.733   3.239 -0.3839 -2.6411 -0.4400
  136MOL    H8727357   3.787   0.063   3.135 -1.3417  0.9663  1.2354
  136MOL    H8827358   3.928   7.724   3.314 -0.3739 -1.4655  0.3897
  136MOL    H8927359   3.902   7.580   3.220 -2.5469 -0.0891  3.0862
  136MOL    H9027360   4.055   0.049   3.148 -0.5679  0.1701  1.1867
  136MOL    H9127361   4.040   7.698   3.041 -2.8628  1.0866 -0.4738
  136MOL    O9227362   4.145   7.663   3.215  0.0852 -0.1926 -0.2794
  136MOL    C9327363   4.198   7.552   3.152  0.0884  0.2212  0.4519
  136MOL    C9427364   4.335   7.498   3.199 -1.0609 -0.9311 -0.1950
  136MOL    C9527365   4.316   7.438   3.333  0.1857 -0.2284  0.0571
  136MOL    H9627366   4.212   7.582   3.048 -1.4794 -0.1426  0.1188
  136MOL    H9727367   4.119   7.477   3.161 -1.4122  1.8142  0.8142
  136MOL    H9827368   4.376   7.422   3.132 -0.1443 -0.9331  0.3631
  136MOL    H9927369   4.414   7.573   3.208 -2.2700  0.4444 -0.8926
  136MOL   H10027370   4.221   7.385   3.346 -0.2617  0.6085  0.2054
  136MOL   H10127371   4.325   7.518   3.406  1.2523  2.1168 -2.5541
  136MOL   O10227372   4.417   7.345   3.357  0.3690  0.2620 -0.3764
  136MOL   C10327373   4.393   7.258   3.463  0.2283 -0.3795 -0.3205
  136MOL   C10427374   4.507   7.167   3.493  0.4292 -0.6661  0.2606
  136MOL   C10527375   4.571   7.073   3.392 -0.5377  0.4578  0.5516
  136MOL   H10627376   4.304   7.197   3.449 -1.7025  1.2370  3.7916
  136MOL   H10727377   4.363   7.316   3.551  3.2397  0.5672  0.1373
  136MOL   H10827378   4.583   7.239   3.523  1.0126 -0.4596 -1.6677
  136MOL   H10927379   4.487   7.115   3.587 -1.3166  2.6561  1.8217
  136MOL   H11027380   4.672   7.060   3.431 -0.7482  0.1033  0.9831
  136MOL   H11127381   4.586   7.116   3.293  2.2194  0.7344  1.0347
  136MOL   O11227382   4.498   6.954   3.396  0.0473  0.7495  0.2351
  136MOL   C11327383   4.535   6.869   3.289 -0.1735 -0.4643  0.0588
  136MOL   C11427384   4.435   6.749   3.294  0.0288  0.2911 -0.7186
  136MOL   C11527385   4.491   6.648   3.192 -0.7377 -0.4300 -0.0576
  136MOL   H11627386   4.638   6.836   3.296  0.4419  1.2528 -0.5726
  136MOL   H11727387   4.514   6.919   3.194  0.7591  0.4387  0.3204
  136MOL   H11827388   4.420   6.711   3.395  0.5657  0.5151 -0.5528
  136MOL   H11927389   4.341   6.793   3.262 -0.8022  2.4649  4.2826
  136MOL   H12027390   4.442   6.553   3.214  0.0379 -0.6705  0.6424
  136MOL   H12127391   4.598   6.641   3.209 -0.3936  0.9280 -1.5295
  136MOL   O12227392   4.453   6.696   3.061 -0.3040  0.3439 -0.2848
  136MOL   C12327393   4.456   6.596   2.966  0.4755 -0.4175  0.1727
  136MOL   C12427394   4.409   6.655   2.824 -0.4987 -0.1087  0.0613
  136MOL   C12527395   4.495   6.774   2.784 -0.0750  0.5592  0.6583
  136MOL   H12627396   4.389   6.515   2.994 -1.1241  0.3663 -1.2410
  136MOL   H12727397   4.555   6.553   2.954  0.3737 -0.6513  0.1639
  136MOL   H12827398   4.408   6.572   2.753  1.0425 -0.1025  0.0269
  136MOL   H12927399   4.303   6.679   2.829 -0.7219 -0.8643 -0.8667
  136MOL   H13027400   4.597   6.746   2.755 -0.1491 -1.0268  1.8927
  136MOL   H13127401   4.499   6.845   2.867  1.6537 -2.3702  3.1505
  136MOL   O13227402   4.430   6.835   2.669 -0.0417  0.1801 -0.1605
  136MOL   C13327403   4.510   6.949   2.628  1.1657 -0.7149 -1.4171
  136MOL   C13427404   4.587   6.894   2.509  0.5682 -0.3000  0.1516
  136MOL   C13527405   4.628   7.009   2.412  0.4039  0.7733  0.5914
  136MOL   H13627406   4.574   6.991   2.705 -2.5097  0.7830  0.9935
  136MOL   H13727407   4.437   7.018   2.585  1.7050  1.3916  0.9110
  136MOL   H13827408   4.685   6.852   2.535  1.0082  0.4254 -0.3283
  136MOL   H13927409   4.533   6.826   2.443 -0.5324 -0.4475  1.1835
  136MOL   H14027410   4.692   6.972   2.332 -0.4672  0.3450  0.0778
  136MOL   H14127411   4.683   7.082   2.470  3.5335  0.4774 -1.8509
  136MOL   O14227412   4.508   7.068   2.347  0.5611 -0.1441  0.2695
  136MOL   C14327413   4.541   7.136   2.224  0.1433  0.1483  0.2743
  136MOL   C14427414   4.451   7.251   2.204 -0.1088 -0.8587 -0.5871
  136MOL   C14527415   4.514   7.336   2.092 -0.1480 -0.6919  0.2891
  136MOL   H14627416   4.540   7.064   2.143 -0.4263 -0.4082  0.7701
  136MOL   H14727417   4.647   7.161   2.232  0.6897 -1.7555 -0.8612
  136MOL   H14827418   4.356   7.208   2.172 -1.4242  0.0653  1.9359
  136MOL   H14927419   4.449   7.301   2.300  0.2555  0.4558 -1.2552
  136MOL   H15027420   4.551   7.269   2.014  1.3295  1.1461 -0.6308
  136MOL   H15127421   4.603   7.382   2.135 -1.4365  0.5670  1.6738
  136MOL   O15227422   4.420   7.436   2.052  0.2020 -0.3830  0.1676
  136MOL   C15327423   4.478   7.517   1.946  0.4642  0.0756  0.4116
  136MOL   C15427424   4.371   7.615   1.902  0.3381 -0.1838  0.4271
  136MOL   C15527425   4.423   7.708   1.794 -0.3797  0.4726  0.1245
  136MOL   H15627426   4.503   7.463   1.855 -1.0396 -1.8708  1.1316
  136MOL   H15727427   4.559   7.579   1.985  1.7138  0.1136 -2.1697
  136MOL   H15827428   4.285   7.565   1.856  0.0289  1.1080 -0.4337
  136MOL   H15927429   4.329   7.666   1.989  0.1803 -0.5985  0.5948
  136MOL   H16027430   4.335   7.761   1.757 -1.1369 -0.7621  0.1396
  136MOL   H16127431   4.471   7.645   1.720 -2.9469  0.7866 -1.8548
  136MOL   O16227432   4.518   0.019   1.844 -0.5442 -0.0301  0.2530
  136MOL   C16327433   4.578   0.108   1.751  0.4282  0.9261 -0.0661
  136MOL   C16427434   4.684   0.214   1.801  0.0917 -0.3626  0.4314
  136MOL   C16527435   4.713   0.312   1.682  0.3235 -1.1044  0.0915
  136MOL   H16627436   4.506   0.162   1.689  0.1554  1.7759  0.9802
  136MOL   H16727437   4.632   0.037   1.689  0.5166  0.6277  0.3483
  136MOL   H16827438   4.647   0.280   1.879  2.3427 -0.0525  1.2857
  136MOL   H16927439   4.771   0.165   1.846  0.9580 -0.4928 -1.3360
  136MOL   H17027440   4.626   0.377   1.670  1.7461  0.9933  0.9270
  136MOL   H17127441   4.724   0.254   1.591 -0.6108  0.4636 -1.0611
  136MOL   O17227442   4.833   0.376   1.719  0.3017  0.6945 -0.4171
  136MOL   C17327443   4.915   0.411   1.607  0.4620 -0.1804 -0.5265
  136MOL   C17427444   5.028   0.507   1.654  0.0667  0.9993 -0.3674
  136MOL   C17527445   5.123   0.436   1.754 -0.5671 -0.0803  0.3612
  136MOL   H17627446   4.856   0.470   1.537  0.3095  0.6454  0.2760
  136MOL   H17727447   4.943   0.324   1.549 -1.7620 -0.3053 -1.4512
  136MOL   H17827448   5.084   0.521   1.562  1.2297 -0.5393  0.0762
  136MOL   H17927449   4.981   0.598   1.691  1.2930  1.3084  0.4556
  136MOL   H18027450   5.159   0.343   1.711  0.9010  0.6189  0.0423
  136MOL   H18127451   5.077   0.417   1.851 -1.1762 -2.5836 -0.3976
  136MOL   O18227452   5.234   0.522   1.770 -0.4411 -0.3342  0.4434
  136MOL   C18327453   5.213   0.626   1.863  0.0474 -0.8353  0.3445
  136MOL   C18427454   5.333   0.723   1.874 -0.6631  0.3897  0.1966
  136MOL   C18527455   5.324   0.821   1.988 -0.2579  0.2786 -1.1249
  136MOL   H18627456   5.190   0.576   1.957  0.1124 -3.1700 -0.8489
  136MOL   H18727457   5.119   0.675   1.839  0.5351 -0.1626 -0.1998
  136MOL   H18827458   5.424   0.663   1.875 -2.1164 -1.8662  0.6832
  136MOL   H18927459   5.334   0.777   1.779 -1.0828 -0.8871 -0.5385
  136MOL   H19027460   5.425   0.846   2.021  0.3767 -3.4578 -0.0088
  136MOL   H19127461   5.283   0.777   2.079  1.2164 -1.0870 -1.0957
  136MOL   O19227462   5.261   0.942   1.935 -0.0781 -0.3922  0.3072
  136MOL   C19327463   5.225   1.020   2.049 -0.3655 -0.7578 -0.1035
  136MOL   C19427464   5.353   1.077   2.122 -0.0968 -0.5597 -0.1498
  136MOL   C19527465   5.346   1.220   2.189  0.0533  0.2040  0.4033
  136MOL   H19627466   5.161   0.986   2.130 -0.4243 -1.2971 -0.3760
  136MOL   H19727467   5.173   1.104   2.003  2.6116  1.0663 -0.3545
  136MOL   H19827468   5.384   1.006   2.199 -0.1782  0.2208  0.6180
  136MOL   H19927469   5.437   1.087   2.055 -0.3477 -0.0987 -0.3970
  136MOL   H20027470   5.331   1.302   2.119  0.5818  2.2329  2.5961
  136MOL   H20127471   5.434   1.236   2.251 -0.6854  2.6537  0.8728
  136MOL   H20227472   5.261   1.233   2.255 -0.6175  0.6218 -0.5260
  137MOL     O127473   1.376   3.627   0.829  0.0575 -0.1559  0.5256
  137MOL     C227474   1.382   3.767   0.840  0.2515 -0.0113 -0.2564
  137MOL     C327475   1.392   3.829   0.703  0.1723 -0.1347  0.1405
  137MOL     C427476   1.400   3.984   0.700 -0.6864 -0.3679 -0.0127
  137MOL     H527477   1.464   3.793   0.906 -1.9175  1.8774  1.8019
  137MOL     H627478   1.292   3.803   0.890 -1.2480 -0.5019 -2.5406
  137MOL     H727479   1.491   3.798   0.670  0.1182 -0.8559  0.6583
  137MOL     H827480   1.306   3.808   0.640  0.5377 -1.6128  0.1143
  137MOL     H927481   1.312   4.037   0.736 -1.7759 -0.5168 -2.3917
  137MOL    H1027482   1.413   4.034   0.604  1.4070 -0.2594  0.3046
  137MOL    H1127483   1.363   3.591   0.915 -0.6361 -0.3262  0.3509
  137MOL    O1227484   1.497   4.030   0.795  0.3117 -0.1703 -0.3588
  137MOL    C1327485   1.522   4.169   0.796 -0.3537 -0.7622 -0.7911
  137MOL    C1427486   1.610   4.206   0.913  0.1406 -0.3770 -0.3543
  137MOL    C1527487   1.624   4.355   0.928 -0.4249  0.2673 -0.1969
  137MOL    H1627488   1.428   4.219   0.821  0.5116  0.6524 -0.2647
  137MOL    H1727489   1.561   4.199   0.698  3.1445 -1.5326  0.2792
  137MOL    H1827490   1.575   4.166   1.008  3.5496  0.7121  1.4667
  137MOL    H1927491   1.710   4.162   0.911 -0.3013 -1.3519 -1.3392
  137MOL    H2027492   1.526   4.402   0.938 -0.2822  0.2316  1.5757
  137MOL    H2127493   1.672   4.392   0.837 -1.1553 -1.4936 -1.3157
  137MOL    O2227494   1.699   4.385   1.045  0.1829  0.2111 -0.1909
  137MOL    C2327495   1.712   4.531   1.058 -0.3403 -0.2270  0.5165
  137MOL    C2427496   1.786   4.601   0.949 -0.2252  0.3385 -0.3977
  137MOL    C2527497   1.853   4.731   0.985  0.0172  0.0721 -0.2436
  137MOL    H2627498   1.756   4.558   1.154  0.8730 -2.7763  0.7076
  137MOL    H2727499   1.611   4.571   1.065 -0.5268 -0.5941 -0.0115
  137MOL    H2827500   1.859   4.526   0.917 -0.4686 -0.5273  1.0531
  137MOL    H2927501   1.720   4.617   0.863  1.0263  0.2671 -1.3909
  137MOL    H3027502   1.902   4.718   1.081  1.3653 -0.1660 -0.9515
  137MOL    H3127503   1.779   4.809   1.004 -0.8890 -0.8324 -0.0183
  137MOL    O3227504   1.943   4.773   0.882 -0.5882  0.0264  0.2892
  137MOL    C3327505   2.058   4.847   0.926  0.9160  0.3416  0.1670
  137MOL    C3427506   2.171   4.857   0.833 -0.0386 -0.2170  0.1087
  137MOL    C3527507   2.151   4.922   0.693  0.4405  0.0697 -0.0005
  137MOL    H3627508   2.094   4.797   1.016  0.2163 -2.3132 -0.9952
  137MOL    H3727509   2.042   4.952   0.949 -2.1218  0.1270 -0.7818
  137MOL    H3827510   2.246   4.914   0.889 -1.5363  1.3875  0.5557
  137MOL    H3927511   2.202   4.754   0.817 -1.1438 -0.3960 -0.9643
  137MOL    H4027512   2.108   5.019   0.715 -0.2291 -0.7946  2.6786
  137MOL    H4127513   2.083   4.858   0.637 -1.0437  1.2227  0.4700
  137MOL    O4227514   2.274   4.935   0.630  0.2531  0.1655  0.3095
  137MOL    C4327515   2.292   5.039   0.531 -0.5427 -0.5400 -0.4079
  137MOL    C4427516   2.391   4.984   0.426 -0.0492 -0.3060  0.1786
  137MOL    C4527517   2.455   5.083   0.329  0.3490  0.0309  0.2270
  137MOL    H4627518   2.332   5.123   0.588  1.4819 -1.3251 -0.6542
  137MOL    H4727519   2.201   5.075   0.482 -0.1315  0.1816 -0.6516
  137MOL    H4827520   2.471   4.935   0.481  0.2836  1.4527  1.2987
  137MOL    H4927521   2.338   4.908   0.369 -1.3726 -0.0561  1.0579
  137MOL    H5027522   2.509   5.036   0.247  0.7813  0.8639  0.0344
  137MOL    H5127523   2.505   5.158   0.390 -2.8727  1.6424  1.0214
  137MOL    O5227524   2.356   5.165   0.264  0.0160 -0.1654 -0.1524
  137MOL    C5327525   2.395   5.271   0.178  0.1894  0.6856  0.3115
  137MOL    C5427526   2.266   5.324   0.109 -0.2104 -0.1019 -1.0855
  137MOL    C5527527   2.168   5.388   0.219 -0.3899 -0.5981  0.1067
  137MOL    H5627528   2.481   5.238   0.120  0.5630  1.2644  0.5324
  137MOL    H5727529   2.423   5.351   0.247  1.5967 -0.3515  0.9596
  137MOL    H5827530   2.287   5.400   0.033 -0.3275  1.9979  0.9331
  137MOL    H5927531   2.208   5.242   0.065 -0.4067 -1.3045  1.3501
  137MOL    H6027532   2.148   5.324   0.304  0.7533 -1.6421 -0.3939
  137MOL    H6127533   2.065   5.396   0.184 -0.5862 -1.1807  0.5438
  137MOL    O6227534   2.211   5.524   0.250 -0.1917 -0.1983 -0.0592
  137MOL    C6327535   2.116   5.590   0.333  0.4283  0.2913 -0.5082
  137MOL    C6427536   2.156   5.737   0.367  0.2120  0.1816  0.1752
  137MOL    C6527537   2.078   5.803   0.478  0.4040  0.2969  0.3819
  137MOL    H6627538   2.102   5.537   0.427 -0.6415  1.5022  0.0347
  137MOL    H6727539   2.018   5.592   0.286 -0.6027  2.0315  1.6204
  137MOL    H6827540   2.263   5.732   0.388  0.5201 -2.2603 -1.6748
  137MOL    H6927541   2.145   5.784   0.269  0.1175 -0.7504 -0.2672
  137MOL    H7027542   1.971   5.784   0.479  0.3397  0.5118 -0.9240
  137MOL    H7127543   2.097   5.908   0.457  1.5649  0.3112  1.4467
  137MOL    O7227544   2.132   5.761   0.597 -0.5921  0.4368 -0.2576
  137MOL    C7327545   2.050   5.786   0.709  0.1200 -0.0830  0.3985
  137MOL    C7427546   2.162   5.808   0.816 -0.0455 -0.1978  0.0342
  137MOL    C7527547   2.103   5.862   0.948 -0.3986 -0.8334 -0.5874
  137MOL    H7627548   1.982   5.704   0.731  0.2582 -0.2639  0.1546
  137MOL    H7727549   1.990   5.876   0.700  1.6736  0.8785 -0.7204
  137MOL    H7827550   2.215   5.712   0.823  1.8365  0.8412  0.2359
  137MOL    H7927551   2.228   5.884   0.776 -0.5675 -0.9153 -2.2651
  137MOL    H8027552   2.184   5.854   1.020 -0.1573 -2.2188 -1.0049
  137MOL    H8127553   2.030   5.788   0.981 -0.4957  0.6952  2.8680
  137MOL    O8227554   2.044   5.991   0.949 -0.1652  0.1207 -0.0036
  137MOL    C8327555   2.143   6.095   0.964  0.0158  0.6647 -0.6963
  137MOL    C8427556   2.086   6.237   0.993  0.2798 -0.2548 -0.0060
  137MOL    C8527557   1.980   6.237   1.110  0.0850 -0.2385  0.1112
  137MOL    H8627558   2.203   6.095   0.873 -1.1231 -0.6180 -1.4724
  137MOL    H8727559   2.214   6.069   1.042  1.4643 -0.4737 -2.3582
  137MOL    H8827560   2.167   6.306   1.016  1.6074 -0.9238 -2.4844
  137MOL    H8927561   2.033   6.285   0.910 -0.9375  2.2934  2.1734
  137MOL    H9027562   2.031   6.230   1.207 -1.5893  1.0910  1.1163
  137MOL    H9127563   1.915   6.149   1.104  1.3722 -1.2976  1.2107
  137MOL    O9227564   1.903   6.355   1.114 -0.0089  0.2232 -0.1429
  137MOL    C9327565   1.820   6.374   1.229 -0.1444  0.1113  0.3635
  137MOL    C9427566   1.716   6.259   1.253 -0.1562  0.0680  0.8316
  137MOL    C9527567   1.582   6.298   1.315  0.3234  0.0769 -0.1753
  137MOL    H9627568   1.774   6.472   1.223 -0.4110 -0.0867 -0.9632
  137MOL    H9727569   1.880   6.383   1.319  0.6890  1.9155 -0.3376
  137MOL    H9827570   1.691   6.228   1.151  0.7126  0.8867  0.3631
  137MOL    H9927571   1.761   6.175   1.306  0.1800 -0.4217 -0.2110
  137MOL   H10027572   1.542   6.388   1.268 -0.4661 -0.5663 -0.7426
  137MOL   H10127573   1.608   6.327   1.417  0.7955  0.2904 -0.3511
  137MOL   O10227574   1.498   6.188   1.311 -0.3796  0.1099 -0.2176
  137MOL   C10327575   1.379   6.193   1.383 -0.4312  0.2718 -0.3189
  137MOL   C10427576   1.300   6.070   1.351 -0.0459  0.1431  0.5767
  137MOL   C10527577   1.286   6.045   1.206 -0.1367 -0.2126  0.0957
  137MOL   H10627578   1.324   6.282   1.349 -0.9647 -0.1263 -0.5104
  137MOL   H10727579   1.403   6.190   1.489 -1.0986  0.2740 -0.1636
  137MOL   H10827580   1.353   5.989   1.400 -1.0156 -0.0291  1.3495
  137MOL   H10927581   1.203   6.094   1.395  0.4768  0.0564  1.7877
  137MOL   H11027582   1.380   6.008   1.167 -0.0027  0.3610 -0.1322
  137MOL   H11127583   1.244   6.134   1.159 -1.4138  0.6846  2.8359
  137MOL   O11227584   1.190   5.939   1.201  0.3520  0.1809  0.0138
  137MOL   C11327585   1.183   5.885   1.069  0.6706 -1.1063 -0.8902
  137MOL   C11427586   1.088   5.762   1.060 -0.0712 -0.2911 -0.8406
  137MOL   C11527587   1.108   5.678   0.931  0.3417  0.1500 -0.2730
  137MOL   H11627588   1.282   5.849   1.041  2.1922  0.0084  2.7981
  137MOL   H11727589   1.151   5.965   1.002 -1.0230  1.6163  3.0158
  137MOL   H11827590   1.110   5.692   1.141  1.6040  1.0954 -0.0615
  137MOL   H11927591   0.990   5.806   1.079 -0.5441 -1.1437 -1.2799
  137MOL   H12027592   1.118   5.742   0.843 -0.4109 -0.2004 -0.6140
  137MOL   H12127593   1.022   5.616   0.908  0.3689 -0.6681  1.7470
  137MOL   O12227594   1.232   5.605   0.938  0.6027 -0.1511  0.3554
  137MOL   C12327595   1.200   5.468   0.946  0.7949  0.1963  0.5606
  137MOL   C12427596   1.322   5.386   0.970  0.1381  0.5546 -0.4302
  137MOL   C12527597   1.292   5.245   1.003 -0.0052  0.1306  0.0253
  137MOL   H12627598   1.147   5.442   0.855  0.8587 -0.5661  0.7409
  137MOL   H12727599   1.125   5.447   1.022  1.3692 -1.0534  0.7845
  137MOL   H12827600   1.382   5.381   0.879  1.0906 -0.3576  0.2420
  137MOL   H12927601   1.379   5.445   1.042  0.5334  0.3548 -0.5768
  137MOL   H13027602   1.246   5.205   0.913  2.3161 -0.6923 -0.8378
  137MOL   H13127603   1.227   5.224   1.088  2.6145  0.7705  2.2581
  137MOL   O13227604   1.409   5.159   1.015 -0.0446  0.0140  0.0800
  137MOL   C13327605   1.467   5.169   1.141 -0.0864  0.8138 -0.4886
  137MOL   C13427606   1.574   5.056   1.158  0.5139  0.0502 -0.2572
  137MOL   C13527607   1.655   5.075   1.283 -0.4045 -0.5493  0.7579
  137MOL   H13627608   1.397   5.183   1.224  0.1452 -1.4057  0.1003
  137MOL   H13727609   1.517   5.266   1.156  2.1677 -0.5142  0.9368
  137MOL   H13827610   1.527   4.958   1.174  0.8460 -0.0211  0.2883
  137MOL   H13927611   1.653   5.054   1.082  0.3840  1.0714 -0.4225
  137MOL   H14027612   1.597   5.062   1.374  0.0152 -0.9872  0.9693
  137MOL   H14127613   1.670   5.182   1.290  0.7161 -0.5361 -1.3314
  137MOL   O14227614   1.779   5.002   1.276  0.4363 -0.4935  0.0931
  137MOL   C14327615   1.848   4.988   1.398  0.5008  0.3752 -0.3531
  137MOL   C14427616   1.986   4.928   1.361 -0.0263 -0.1735 -0.3647
  137MOL   C14527617   2.075   5.025   1.276  0.2744  0.3070  0.0712
  137MOL   H14627618   1.788   4.912   1.447  2.7458 -1.4542 -0.3519
  137MOL   H14727619   1.861   5.082   1.452 -0.9059  0.2336  0.2391
  137MOL   H14827620   2.035   4.899   1.454 -0.9944 -1.5792 -0.2834
  137MOL   H14927621   1.979   4.839   1.299  0.6435 -1.6489  1.6173
  137MOL   H15027622   2.098   5.120   1.324 -0.1813  0.5492 -0.1866
  137MOL   H15127623   2.030   5.048   1.180  0.2486 -0.9267 -0.2283
  137MOL   O15227624   2.197   4.961   1.247 -0.5646  0.3985  0.2009
  137MOL   C15327625   2.290   5.041   1.179 -0.4938 -0.1936 -0.0601
  137MOL   C15427626   2.407   4.952   1.142 -0.6275 -0.9506  0.1796
  137MOL   C15527627   2.525   5.022   1.073  0.0393 -0.1469  0.1913
  137MOL   H15627628   2.329   5.127   1.232  2.1226 -2.8791  2.5682
  137MOL   H15727629   2.233   5.078   1.094 -3.6358 -1.0445  1.5915
  137MOL   H15827630   2.446   4.908   1.233  0.2541 -0.8429 -0.1442
  137MOL   H15927631   2.357   4.874   1.085 -1.0343 -0.9159  0.4895
  137MOL   H16027632   2.613   4.958   1.083 -0.0847 -0.8808 -2.8703
  137MOL   H16127633   2.553   5.108   1.134  0.1217 -0.1086  0.0992
  137MOL   O16227634   2.484   5.053   0.944 -0.0960 -0.4537  0.6401
  137MOL   C16327635   2.587   5.105   0.859  0.9364  0.2064 -0.0108
  137MOL   C16427636   2.614   4.987   0.764  0.7912 -0.6836 -0.6396
  137MOL   C16527637   2.716   5.018   0.654 -0.0970  0.4539 -0.3299
  137MOL   H16627638   2.671   5.133   0.921  0.1780  1.8425  0.2983
  137MOL   H16727639   2.536   5.192   0.817  0.9325 -0.6628 -1.8456
  137MOL   H16827640   2.641   4.900   0.824 -1.8562 -1.0632  0.0314
  137MOL   H16927641   2.520   4.963   0.715  0.3660  1.0717 -0.7093
  137MOL   H17027642   2.811   5.038   0.705 -0.0369 -1.3910  0.2984
  137MOL   H17127643   2.677   5.098   0.592 -1.5416 -0.5063 -0.6645
  137MOL   O17227644   2.734   4.898   0.578 -0.2653  0.0444 -0.4865
  137MOL   C17327645   2.852   4.911   0.497  0.0701  0.0010 -0.4575
  137MOL   C17427646   2.891   4.772   0.444  0.3319  0.2260 -0.4998
  137MOL   C17527647   2.991   4.701   0.533  0.7631 -0.5725  0.7119
  137MOL   H17627648   2.930   4.947   0.564  0.6577  1.4087 -1.8644
  137MOL   H17727649   2.837   4.982   0.416  1.3630  1.5294  0.6116
  137MOL   H17827650   2.802   4.712   0.431 -1.0076  2.4855 -2.2676
  137MOL   H17927651   2.941   4.785   0.348 -1.7033  0.8532 -1.5061
  137MOL   H18027652   2.941   4.684   0.629  0.7438  3.0228  1.4455
  137MOL   H18127653   3.078   4.760   0.562  0.5063  0.0305  0.2582
  137MOL   O18227654   3.030   4.577   0.484 -0.1249 -0.7244 -0.4844
  137MOL   C18327655   3.038   4.478   0.584 -0.5929  0.5640 -0.0236
  137MOL   C18427656   3.074   4.347   0.511 -0.0116  0.4192 -0.4263
  137MOL   C18527657   3.154   4.247   0.588  0.0758 -0.0449 -0.5585
  137MOL   H18627658   2.945   4.459   0.638 -1.3196 -1.7642 -1.9767
  137MOL   H18727659   3.120   4.516   0.644  0.5923 -0.6353 -0.8424
  137MOL   H18827660   2.978   4.299   0.497  0.2886 -0.5959  0.8734
  137MOL   H18927661   3.102   4.363   0.406  0.5872  1.9640 -0.0446
  137MOL   H19027662   3.095   4.234   0.679  0.1525  3.6814  0.1115
  137MOL   H19127663   3.254   4.279   0.615  0.0684 -0.8014  0.3922
  137MOL   O19227664   3.157   4.132   0.506  0.1928  0.0056  0.5170
  137MOL   C19327665   3.216   4.025   0.583 -0.6610 -0.0023  0.4004
  137MOL   C19427666   3.131   3.945   0.683 -0.2582 -0.8911 -0.0622
  137MOL   C19527667   3.010   3.875   0.619 -0.0903  0.2626 -0.0761
  137MOL   H19627668   3.311   4.054   0.629  0.5945 -1.8186 -0.9244
  137MOL   H19727669   3.246   3.955   0.504  1.1064  0.8087  0.3238
  137MOL   H19827670   3.201   3.875   0.728  0.4359  1.2133  2.3033
  137MOL   H19927671   3.095   4.006   0.766 -0.4558 -0.4075 -0.4981
  137MOL   H20027672   2.924   3.938   0.594 -1.4676 -1.9224 -0.9710
  137MOL   H20127673   2.966   3.803   0.688 -2.8329 -0.4589 -2.4820
  137MOL   H20227674   3.030   3.811   0.533 -2.0266 -0.5643  0.0711
  138MOL     O127675   3.601   4.170   0.488  0.1274  0.7076 -0.0463
  138MOL     C227676   3.600   4.304   0.513  0.3467  0.6762 -0.5931
  138MOL     C327677   3.706   4.383   0.435  0.1369 -0.7216  0.1802
  138MOL     C427678   3.698   4.527   0.468 -0.3536 -0.7756 -0.0256
  138MOL     H527679   3.615   4.324   0.619  4.5496  1.2264 -1.2381
  138MOL     H627680   3.496   4.329   0.490  0.4681  0.2057 -1.6698
  138MOL     H727681   3.805   4.342   0.456 -0.2700 -1.9021 -0.1962
  138MOL     H827682   3.685   4.368   0.330  3.0327  0.4229 -0.6044
  138MOL     H927683   3.724   4.537   0.573 -1.5720 -1.7420  0.3718
  138MOL    H1027684   3.594   4.554   0.448 -0.9144 -3.0954 -0.3057
  138MOL    H1127685   3.568   4.124   0.563  2.2353  0.3430  0.6826
  138MOL    O1227686   3.787   4.595   0.381  0.0201  0.0345 -0.1419
  138MOL    C1327687   3.811   4.725   0.423 -0.2872 -0.9937 -0.2659
  138MOL    C1427688   3.878   4.808   0.308 -0.6542  0.0957 -0.9317
  138MOL    C1527689   3.795   4.850   0.194 -0.3256  0.0656 -1.0905
  138MOL    H1627690   3.872   4.723   0.514 -2.0806  1.0221  0.9962
  138MOL    H1727691   3.717   4.770   0.453  1.4807  0.5465  3.1969
  138MOL    H1827692   3.920   4.894   0.362 -2.5493 -0.5006  1.5977
  138MOL    H1927693   3.961   4.750   0.268 -1.5132 -1.1145 -0.9849
  138MOL    H2027694   3.712   4.911   0.228 -0.2391 -0.3740 -0.0683
  138MOL    H2127695   3.756   4.756   0.156 -1.0208 -0.4467  0.8348
  138MOL    O2227696   3.872   4.916   0.096 -0.4943  0.1965  0.2422
  138MOL    C2327697   3.807   4.943   7.767  0.0761 -0.3687 -0.2599
  138MOL    C2427698   3.918   4.950   7.660 -0.4588  0.8018  0.1193
  138MOL    C2527699   3.857   4.981   7.519 -0.2638  0.0396 -0.5219
  138MOL    H2627700   3.748   5.034   7.759 -0.1521 -0.4403  0.5378
  138MOL    H2727701   3.742   4.862   7.735  1.3267 -0.7256 -2.0066
  138MOL    H2827702   3.994   5.021   7.694 -0.6279  1.2039 -0.3360
  138MOL    H2927703   3.972   4.856   7.653 -1.7563 -0.0424  1.2713
  138MOL    H3027704   3.778   5.056   7.522 -1.2320 -0.9512 -0.6157
  138MOL    H3127705   3.806   4.897   7.471  1.9423 -1.0266 -1.1005
  138MOL    O3227706   3.954   5.029   7.424 -0.4901  0.1457 -0.5156
  138MOL    C3327707   3.893   5.053   7.299 -0.4505  0.3120 -0.4946
  138MOL    C3427708   3.983   5.136   7.207  0.3986 -0.2564 -0.5596
  138MOL    C3527709   3.913   5.174   7.070 -0.5693 -0.5704  0.6779
  138MOL    H3627710   3.804   5.113   7.320  0.2141  1.0974  0.0997
  138MOL    H3727711   3.866   4.955   7.258 -1.2164  0.5272 -0.5175
  138MOL    H3827712   4.007   5.228   7.260 -1.6559  0.2227 -0.3982
  138MOL    H3927713   4.078   5.088   7.184  1.1027  0.3031  1.1439
  138MOL    H4027714   3.872   5.087   7.018  2.4481 -0.2667 -2.4131
  138MOL    H4127715   3.981   5.213   6.993 -2.4174 -1.8009 -1.6628
  138MOL    O4227716   3.798   5.256   7.093  0.6626  0.4787  0.0600
  138MOL    C4327717   3.704   5.257   6.980  0.0227 -0.2410 -0.3772
  138MOL    C4427718   3.588   5.362   6.990 -0.2324  0.2710  0.0506
  138MOL    C4527719   3.465   5.295   7.046 -0.2176  0.0162 -0.0456
  138MOL    H4627720   3.673   5.157   6.950 -0.3467 -0.6549  1.3047
  138MOL    H4727721   3.768   5.289   6.898 -0.9535  0.0610 -1.0203
  138MOL    H4827722   3.619   5.450   7.047 -0.7775 -0.3442  1.3212
  138MOL    H4927723   3.576   5.401   6.889  1.0558  0.2253 -0.1325
  138MOL    H5027724   3.458   5.192   7.010  2.6227  0.2738 -1.4460
  138MOL    H5127725   3.378   5.342   7.001 -0.0199  1.4492  1.0339
  138MOL    O5227726   3.455   5.317   7.181 -0.2619 -0.3304 -0.2710
  138MOL    C5327727   3.519   5.220   7.268 -0.4010  0.5172  0.5106
  138MOL    C5427728   3.543   5.305   7.391 -0.5405 -0.3853 -0.9032
  138MOL    C5527729   3.665   5.398   7.374 -0.2814  0.1123 -0.3779
  138MOL    H5627730   3.610   5.174   7.229 -1.5056 -0.5288 -0.8560
  138MOL    H5727731   3.440   5.149   7.289 -0.7143  0.5870 -0.4002
  138MOL    H5827732   3.456   5.361   7.427  0.0639 -0.3791  0.5871
  138MOL    H5927733   3.567   5.244   7.478 -0.0280  1.4142  0.2627
  138MOL    H6027734   3.621   5.479   7.316 -0.8006  0.9734  1.1981
  138MOL    H6127735   3.744   5.369   7.304  0.0016  2.6125 -1.1598
  138MOL    O6227736   3.717   5.450   7.494 -0.3971 -0.1178  0.0966
  138MOL    C6327737   3.818   5.376   7.550 -0.2020  0.2534  0.3032
  138MOL    C6427738   3.881   5.465   7.663  0.5065 -0.0374 -0.2533
  138MOL    C6527739   3.980   5.388   7.751 -0.6968 -0.1265 -0.4839
  138MOL    H6627740   3.895   5.333   7.487 -1.9334 -1.5896 -0.6496
  138MOL    H6727741   3.780   5.289   7.605  1.0875 -0.8776 -0.5611
  138MOL    H6827742   3.927   5.556   7.624 -0.5429  0.6191  0.0208
  138MOL    H6927743   3.811   5.509   7.734  0.2603  0.1545 -0.6193
  138MOL    H7027744   4.059   5.336   7.697  0.3052  1.7882 -0.9271
  138MOL    H7127745   3.931   5.313   0.024  0.3887  0.0006  0.5593
  138MOL    O7227746   4.040   5.476   0.059 -0.3615  0.0909  0.2694
  138MOL    C7327747   4.114   5.398   0.156  0.6477  0.7436  0.5188
  138MOL    C7427748   4.190   5.496   0.247 -0.0186 -0.5046  0.5223
  138MOL    C7527749   4.243   5.435   0.375 -0.7293  0.2135 -0.5237
  138MOL    H7627750   4.179   5.331   0.100  0.5830  1.3769 -0.3285
  138MOL    H7727751   4.051   5.333   0.217 -0.3874  0.7614 -0.5188
  138MOL    H7827752   4.273   5.539   0.191  0.3393  1.1707  2.2944
  138MOL    H7927753   4.124   5.578   0.275 -0.3728 -1.1861  1.6974
  138MOL    H8027754   4.332   5.373   0.362 -1.2492 -1.3799  2.7805
  138MOL    H8127755   4.175   5.365   0.424  0.5836 -1.3472 -0.8827
  138MOL    O8227756   4.277   5.540   0.460 -0.0963  0.1876 -0.2096
  138MOL    C8327757   4.345   5.500   0.577  0.8478  0.3618  0.7549
  138MOL    C8427758   4.371   5.622   0.674 -0.0679 -0.0888  0.1017
  138MOL    C8527759   4.405   5.577   0.815 -0.1724 -0.3558 -0.0552
  138MOL    H8627760   4.439   5.449   0.555 -0.3821 -1.9727  0.6991
  138MOL    H8727761   4.293   5.422   0.633  0.7766  0.7159  1.1798
  138MOL    H8827762   4.443   5.684   0.621  1.8930 -3.4974 -1.3816
  138MOL    H8927763   4.286   5.690   0.672  0.3230  0.3872 -0.9575
  138MOL    H9027764   4.493   5.513   0.825 -0.5310 -1.0128 -0.9795
  138MOL    H9127765   4.324   5.517   0.856 -0.9411  1.1097  0.6026
  138MOL    O9227766   4.410   5.695   0.894 -0.2603  0.0458 -0.4558
  138MOL    C9327767   4.483   5.675   1.021  0.5725  0.3676  0.5043
  138MOL    C9427768   4.435   5.773   1.120  0.0225 -0.1511 -0.5987
  138MOL    C9527769   4.302   5.740   1.173  0.4288  0.7288  0.1596
  138MOL    H9627770   4.588   5.698   1.008  0.7036  0.8890  2.4729
  138MOL    H9727771   4.463   5.575   1.059  0.1969  0.2207 -0.0564
  138MOL    H9827772   4.504   5.781   1.204 -0.9902 -1.6255  0.4006
  138MOL    H9927773   4.418   5.872   1.076 -1.8764 -0.3259 -0.2622
  138MOL   H10027774   4.311   5.643   1.221  1.4446  1.0447  0.6091
  138MOL   H10127775   4.224   5.738   1.097 -0.3027 -1.3737  0.9441
  138MOL   O10227776   4.278   5.838   1.274 -0.6244  0.0308  0.7230
  138MOL   C10327777   4.170   5.814   1.363 -0.3518 -0.3645  0.0161
  138MOL   C10427778   4.149   5.933   1.442 -1.2243 -0.1153 -1.1292
  138MOL   C10527779   4.006   5.936   1.509 -0.8322  0.5841 -0.1646
  138MOL   H10627780   4.189   5.732   1.432 -0.8245 -1.0287 -0.6264
  138MOL   H10727781   4.088   5.774   1.303  1.0930 -2.5470 -0.5852
  138MOL   H10827782   4.230   5.943   1.514 -2.4714 -0.8777  0.4066
  138MOL   H10927783   4.155   6.021   1.378  3.5956 -0.0392 -0.7531
  138MOL   H11027784   3.999   5.839   1.557 -1.2755  0.3650 -0.6641
  138MOL   H11127785   3.923   5.947   1.439  0.3151 -1.5877 -1.9198
  138MOL   O11227786   4.006   6.052   1.590  0.4956 -0.2902  0.3221
  138MOL   C11327787   3.893   6.058   1.669  0.0868 -0.2294 -0.0311
  138MOL   C11427788   3.888   6.209   1.701  0.0576  0.0627  0.6666
  138MOL   C11527789   3.754   6.250   1.757  0.1738  0.6416 -0.1322
  138MOL   H11627790   3.905   5.988   1.752  0.2216 -0.2374 -0.0575
  138MOL   H11727791   3.799   6.020   1.627 -1.0882 -0.0291  2.3328
  138MOL   H11827792   3.968   6.227   1.772  0.5304  0.3323  0.0665
  138MOL   H11927793   3.902   6.280   1.620  2.7354 -0.3407  0.7436
  138MOL   H12027794   3.732   6.189   1.845  2.3838  0.1901  0.1416
  138MOL   H12127795   3.674   6.230   1.686  0.0922  2.5739 -0.5947
  138MOL   O12227796   3.753   6.384   1.805  0.2992 -0.1061  0.1244
  138MOL   C12327797   3.636   6.418   1.884 -0.7900  0.6075 -0.3525
  138MOL   C12427798   3.610   6.568   1.880  0.2483  0.0520 -0.1361
  138MOL   C12527799   3.507   6.632   1.983  0.5455 -0.6441  0.3370
  138MOL   H12627800   3.647   6.382   1.986  0.8448 -0.3045 -0.8153
  138MOL   H12727801   3.550   6.361   1.849 -2.2659  1.0619  2.4070
  138MOL   H12827802   3.710   6.605   1.898  0.7416  1.2985 -4.7763
  138MOL   H12927803   3.577   6.590   1.778 -0.9754 -1.5971 -0.1240
  138MOL   H13027804   3.414   6.576   1.992 -1.6676  3.2101  2.4906
  138MOL   H13127805   3.484   6.733   1.951  0.7853 -0.1200  1.7642
  138MOL   O13227806   3.562   6.642   2.107 -0.0642 -0.4664 -0.3689
  138MOL   C13327807   3.466   6.679   2.207 -0.1012 -0.1315 -0.2601
  138MOL   C13427808   3.389   6.560   2.266 -1.4138 -0.2094 -0.1448
  138MOL   C13527809   3.309   6.578   2.396  0.6162  0.5025  0.6413
  138MOL   H13627810   3.405   6.769   2.194 -0.4648 -0.2871  0.3353
  138MOL   H13727811   3.539   6.702   2.285  1.9260 -0.6075 -1.9685
  138MOL   H13827812   3.311   6.527   2.198 -1.6869  0.6531 -0.2550
  138MOL   H13927813   3.452   6.471   2.255 -1.7014 -0.3448 -0.6940
  138MOL   H14027814   3.226   6.645   2.374 -1.3190 -2.4411 -1.4555
  138MOL   H14127815   3.367   6.622   2.478 -1.3129  1.8022  1.3584
  138MOL   O14227816   3.268   6.452   2.435 -0.0032 -0.2309  0.0308
  138MOL   C14327817   3.179   6.451   2.549 -0.5100 -0.3005  0.0022
  138MOL   C14427818   3.184   6.310   2.614 -0.0884 -0.4282 -0.1995
  138MOL   C14527819   3.068   6.264   2.709 -0.2860  0.1539  0.9804
  138MOL   H14627820   3.082   6.487   2.517 -1.9068 -1.4438  2.7751
  138MOL   H14727821   3.209   6.516   2.632  1.2185 -2.0303  0.7763
  138MOL   H14827822   3.172   6.248   2.525 -0.2249 -2.0586  0.9352
  138MOL   H14927823   3.284   6.284   2.647 -0.0004 -1.1094 -0.9924
  138MOL   H15027824   3.056   6.156   2.714 -1.4020  0.2642  0.8899
  138MOL   H15127825   2.975   6.308   2.672  0.6755  0.7641 -0.7264
  138MOL   O15227826   3.086   6.306   2.843 -0.0659 -0.7047 -0.3291
  138MOL   C15327827   2.979   6.265   2.927 -0.5633  0.5815  0.4927
  138MOL   C15427828   2.922   6.366   3.016 -0.3373 -0.1331 -0.4675
  138MOL   C15527829   2.808   6.320   3.107  1.0409 -0.1199 -1.0498
  138MOL   H15627830   3.018   6.185   2.990  1.6609 -0.1969 -1.7606
  138MOL   H15727831   2.904   6.204   2.876  1.1668 -1.6814  0.5370
  138MOL   H15827832   3.004   6.410   3.073 -1.6208  0.8681  0.6575
  138MOL   H15927833   2.883   6.446   2.953 -2.3280  0.4543  1.4528
  138MOL   H16027834   2.845   6.231   3.158  1.1992 -0.4053 -1.6504
  138MOL   H16127835   2.727   6.271   3.052 -0.7167  0.2437  1.1504
  138MOL   O16227836   2.770   6.419   3.197 -0.7961  0.3711 -0.6380
  138MOL   C16327837   2.680   6.381   3.300 -0.2619 -0.0462 -0.0458
  138MOL   C16427838   2.655   6.507   3.389  0.7244  0.4872  0.0299
  138MOL   C16527839   2.582   6.616   3.314 -0.2362  0.0110 -0.9059
  138MOL   H16627840   2.725   6.299   3.356  1.0668  1.5711  1.2924
  138MOL   H16727841   2.587   6.335   3.266 -2.4934  2.6758  2.1117
  138MOL   H16827842   2.592   6.488   3.476  1.3553 -0.1499  0.3561
  138MOL   H16927843   2.749   6.539   3.434  0.5433  1.8778 -0.5590
  138MOL   H17027844   2.490   6.575   3.271 -0.3201 -1.9356  1.0614
  138MOL   H17127845   2.647   6.642   3.230 -1.9592  0.1320 -2.2304
  138MOL   O17227846   2.542   6.722   3.399 -0.8509 -0.1153  0.6098
  138MOL   C17327847   2.502   6.837   3.327 -0.5866  0.6506 -0.2503
  138MOL   C17427848   2.491   6.956   3.426  0.4739 -0.1357 -0.1323
  138MOL   C17527849   2.423   7.075   3.369  0.4561 -0.6766 -0.3559
  138MOL   H17627850   2.407   6.813   3.280 -0.8250  0.3149  0.4029
  138MOL   H17727851   2.574   6.862   3.250 -0.3101 -0.1897 -0.2629
  138MOL   H17827852   2.445   6.921   3.518  0.0911 -1.8431 -0.9639
  138MOL   H17927853   2.594   6.987   3.445  1.8431 -3.6200 -1.4845
  138MOL   H18027854   2.411   7.146   3.451 -1.5893 -0.8610 -0.4587
  138MOL   H18127855   2.325   7.042   3.332 -0.1141  1.5209 -0.9350
  138MOL   O18227856   2.500   7.130   3.264  0.6510 -0.0571  0.0944
  138MOL   C18327857   2.447   7.255   3.227  0.0089 -0.1222 -0.0445
  138MOL   C18427858   2.544   7.320   3.123 -0.3411  0.3306 -0.1336
  138MOL   C18527859   2.518   7.469   3.099 -0.0480  0.3402 -0.8350
  138MOL   H18627860   2.452   7.319   3.315  2.1414  1.9413 -1.5686
  138MOL   H18727861   2.346   7.255   3.187  0.2687  0.5888 -0.7268
  138MOL   H18827862   2.644   7.309   3.165  0.0891 -2.0338 -1.6954
  138MOL   H18927863   2.541   7.251   3.039 -0.4770 -0.9740  0.9286
  138MOL   H19027864   2.567   7.521   3.017  0.9829  1.1336  0.2698
  138MOL   H19127865   2.552   7.516   3.191 -1.0624 -1.0939  0.3110
  138MOL   O19227866   2.377   7.481   3.092  0.3812 -0.0166  0.7525
  138MOL   C19327867   2.336   7.583   2.999  0.4908  0.4631  0.5564
  138MOL   C19427868   2.191   7.625   3.013 -0.7484  0.6734  0.6368
  138MOL   C19527869   2.173   7.740   3.113 -0.6571  0.0312  0.1427
  138MOL   H19627870   2.337   7.550   2.895  0.5261  1.1178  0.3430
  138MOL   H19727871   2.395   7.674   2.990 -0.1674  1.0622  2.1061
  138MOL   H19827872   2.155   7.664   2.918  2.1124  1.3456 -0.2319
  138MOL   H19927873   2.141   7.531   3.036  0.7192 -0.7139 -1.6435
  138MOL   H20027874   2.213   7.704   3.208  2.0043  1.9176 -0.1876
  138MOL   H20127875   2.073   7.781   3.118  0.2773  2.4067  0.1313
  138MOL   H20227876   2.232   0.039   3.083  1.2632 -1.6582 -1.1152
  139MOL     O127877   7.008   7.501   7.653  0.0889  0.0755  0.4591
  139MOL     C227878   7.024   7.423   7.540 -0.2535 -0.4942 -0.5709
  139MOL     C327879   6.996   7.509   7.411  0.2734 -0.0647 -0.4566
  139MOL     C427880   7.118   7.544   7.337 -0.3384 -0.0554  0.3929
  139MOL     H527881   6.945   7.350   7.557 -1.3207  0.6015 -0.7802
  139MOL     H627882   7.124   7.381   7.529 -0.2300 -0.3976 -0.7448
  139MOL     H727883   6.953   7.436   7.342  2.8028 -0.9740 -1.1295
  139MOL     H827884   6.945   7.603   7.431 -0.2155  0.6770 -4.7576
  139MOL     H927885   7.087   7.606   7.253  1.3496  1.0612  0.5739
  139MOL    H1027886   7.173   7.460   7.295  1.3547  1.5323 -0.6433
  139MOL    H1127887   7.092   7.543   7.651  0.0610  0.0645 -1.0236
  139MOL    O1227888   7.211   7.608   7.423 -0.4197 -0.1695 -0.5937
  139MOL    C1327889   7.312   7.664   7.350 -0.4770 -0.3539  0.0186
  139MOL    C1427890   7.405   7.735   7.450  0.6859  0.0953 -0.0807
  139MOL    C1527891   7.526   0.007   7.375  0.3277 -0.0023 -0.3597
  139MOL    H1627892   7.281   7.738   7.277 -1.2156  2.0151  2.6263
  139MOL    H1727893   7.359   7.581   7.297 -1.3294 -0.1266 -1.1176
  139MOL    H1827894   7.351   0.018   7.513  0.8904 -1.2477  1.6452
  139MOL    H1927895   7.439   7.667   7.528 -0.3532 -0.3094  0.0256
  139MOL    H2027896   7.578   7.720   7.315  1.0398  1.2870 -1.4076
  139MOL    H2127897   7.596   0.057   7.441  0.8017 -0.8573 -0.2103
  139MOL    O2227898   7.487   0.107   7.279 -0.4102 -0.1853  0.6216
  139MOL    C2327899   7.600   0.160   7.211 -0.8201  0.3840 -0.2966
  139MOL    C2427900   7.562   0.295   7.150  0.0853  0.5881  0.9888
  139MOL    C2527901   7.665   0.361   7.064 -0.8592 -0.2001 -0.3520
  139MOL    H2627902   7.643   0.085   7.144  0.4247 -1.2558  2.2799
  139MOL    H2727903   7.680   0.176   7.282  1.1590 -4.6069 -1.1572
  139MOL    H2827904   7.473   0.273   7.090  0.4651  0.1134  0.6018
  139MOL    H2927905   7.526   0.356   7.233 -1.1567  0.9585  0.1960
  139MOL    H3027906   7.738   0.303   7.006  0.3074  0.5997  0.2855
  139MOL    H3127907   7.737   0.410   7.130  0.9666 -1.4161 -1.3951
  139MOL    O3227908   7.596   0.445   6.968  0.6764  0.5145 -0.1165
  139MOL    C3327909   7.536   0.565   7.021  0.5003 -0.2477  0.2276
  139MOL    C3427910   7.522   0.671   6.913 -0.0550  0.1118  0.0281
  139MOL    C3527911   7.461   0.806   6.952 -0.4235 -0.2865 -0.1304
  139MOL    H3627912   7.591   0.609   7.104  1.1509 -0.7286  0.0544
  139MOL    H3727913   7.440   0.537   7.066  1.1195 -1.8170  0.5967
  139MOL    H3827914   7.620   0.690   6.870 -0.4700 -0.1609 -1.0627
  139MOL    H3927915   7.458   0.635   6.832 -1.4605 -2.6754  2.2818
  139MOL    H4027916   7.364   0.806   7.001 -0.8624  1.1397 -0.9421
  139MOL    H4127917   7.426   0.850   6.858  0.0709 -0.4270 -0.3808
  139MOL    O4227918   7.560   0.881   7.018 -0.7218  0.5363  0.1295
  139MOL    C4327919   7.511   0.993   7.078 -0.2228 -0.0698  0.4572
  139MOL    C4427920   7.622   1.098   7.091  0.0517 -0.0781  0.3801
  139MOL    C4527921   7.560   1.238   7.097  0.1264 -0.4112 -1.1040
  139MOL    H4627922   7.469   0.973   7.177 -0.3123  0.3815  0.5143
  139MOL    H4727923   7.429   1.030   7.018 -0.2016 -1.2668 -0.3200
  139MOL    H4827924   7.693   1.081   7.171  2.0580  1.5988 -0.9955
  139MOL    H4927925   7.673   1.096   6.995  1.4524 -0.1548  1.1237
  139MOL    H5027926   7.506   1.255   7.190  3.3922 -0.2955  0.8474
  139MOL    H5127927   7.494   1.252   7.012  2.1867 -1.3174 -2.9034
  139MOL    O5227928   7.669   1.333   7.086  0.1628  0.5774 -0.4091
  139MOL    C5327929   7.630   1.463   7.092  0.1554 -0.4299 -0.4765
  139MOL    C5427930   7.762   1.535   7.078 -0.3492 -0.1336 -0.1233
  139MOL    C5527931   7.756   1.686   7.051 -0.0980  0.9079 -0.0596
  139MOL    H5627932   7.580   1.472   7.189  2.1110 -1.4519  0.6796
  139MOL    H5727933   7.569   1.501   7.011 -3.2789  2.0007  3.1024
  139MOL    H5827934   0.035   1.500   7.161  0.9499  0.6852 -0.7203
  139MOL    H5927935   0.017   1.494   6.987  3.3778 -1.1764  2.0131
  139MOL    H6027936   7.674   1.718   7.116 -0.5733  1.3942 -0.8996
  139MOL    H6127937   7.726   1.706   6.948  0.4895 -1.5666 -0.7315
  139MOL    O6227938   0.086   1.771   7.071 -0.2824 -0.2249  0.7441
  139MOL    C6327939   0.054   1.906   7.090  0.1133  0.1025  0.2980
  139MOL    C6427940   0.170   2.009   7.097  0.0428  0.2270 -0.5727
  139MOL    C6527941   0.132   2.148   7.142  0.5113  0.6478 -0.1282
  139MOL    H6627942   7.787   1.906   7.184  0.1267  0.1897  0.3058
  139MOL    H6727943   7.773   1.940   7.013  1.1209 -0.0701 -0.7018
  139MOL    H6827944   0.238   1.962   7.168 -2.0820  0.2491  1.5148
  139MOL    H6927945   0.213   2.018   6.997  0.1741 -0.2985 -0.5662
  139MOL    H7027946   0.117   2.153   7.250 -0.3758 -2.0324 -0.1085
  139MOL    H7127947   0.041   2.181   7.092  0.5380 -0.7739 -1.1192
  139MOL    O7227948   0.237   2.237   7.096  0.3179 -0.3653 -0.0970
  139MOL    C7327949   0.339   2.262   7.184 -0.1297  0.0374  0.8133
  139MOL    C7427950   0.307   2.383   7.278  0.0921  1.0946  0.1688
  139MOL    C7527951   0.420   2.445   7.362 -0.5302  0.1816  0.5941
  139MOL    H7627952   0.429   2.278   7.124  0.4760 -1.1570  1.3948
  139MOL    H7727953   0.363   2.175   7.244 -0.9531 -1.3666 -0.8565
  139MOL    H7827954   0.247   2.460   7.230 -0.3568 -0.9212 -2.6091
  139MOL    H7927955   0.240   2.344   7.354 -1.1329  0.4997 -1.1855
  139MOL    H8027956   0.498   2.373   7.386 -0.4378  0.3403  0.7767
  139MOL    H8127957   0.381   2.482   7.457 -1.4359  2.1801 -0.5324
  139MOL    O8227958   0.492   2.549   7.291 -0.6032  0.0931 -0.3748
  139MOL    C8327959   0.592   2.602   7.375  0.6547  0.4179  0.0279
  139MOL    C8427960   0.648   2.718   7.305  0.4972  0.0341  0.2788
  139MOL    C8527961   0.760   2.787   7.379  0.1010 -0.4899 -0.1160
  139MOL    H8627962   0.669   2.529   7.401  0.4645  0.1568 -0.1313
  139MOL    H8727963   0.536   2.648   7.457 -1.0012  0.8869 -1.3353
  139MOL    H8827964   0.688   2.693   7.207 -0.0631  0.2347 -0.0002
  139MOL    H8927965   0.579   2.796   7.275 -1.5957 -1.4717  1.0564
  139MOL    H9027966   0.824   2.711   7.422 -1.5542 -1.2893  0.9890
  139MOL    H9127967   0.698   2.821   7.462 -1.5359 -0.2683 -1.3925
  139MOL    O9227968   0.821   2.886   7.297  0.6237 -0.2699  0.7080
  139MOL    C9327969   0.941   2.929   7.357 -0.2186  0.2279  0.7960
  139MOL    C9427970   0.990   3.056   7.288  0.1620 -0.7184  0.8366
  139MOL    C9527971   1.059   3.033   7.148 -1.0133 -0.1431 -0.6927
  139MOL    H9627972   1.013   2.848   7.345 -2.2085 -1.5554  0.6382
  139MOL    H9727973   0.937   2.944   7.465  0.8236 -2.0798  1.1866
  139MOL    H9827974   0.902   3.114   7.259  0.0513 -0.8324  0.9392
  139MOL    H9927975   1.049   3.124   7.348 -0.4560  0.7019 -0.1258
  139MOL   H10027976   0.991   2.992   7.073 -0.5840  1.5371 -2.0523
  139MOL   H10127977   1.134   2.956   7.168 -0.7540  0.4186  0.5335
  139MOL   O10227978   1.131   3.151   7.114  0.0211 -0.1752 -0.5559
  139MOL   C10327979   1.237   3.143   7.010 -0.9217 -0.4545 -0.5155
  139MOL   C10427980   1.362   3.103   7.100  0.0780  0.0120  0.1092
  139MOL   C10527981   1.491   3.129   7.033 -0.0208  0.0409 -0.2286
  139MOL   H10627982   1.259   3.246   6.982  0.2695 -0.8187 -0.9264
  139MOL   H10727983   1.213   3.083   6.922 -0.0970 -0.1714 -0.9391
  139MOL   H10827984   1.367   3.148   7.199  0.5543  0.7424 -0.2430
  139MOL   H10927985   1.351   2.996   7.117  1.3247  0.1966  2.1669
  139MOL   H11027986   1.523   3.233   7.027  0.9691 -0.1253  1.6648
  139MOL   H11127987   1.472   3.086   6.935  1.0694 -0.5120 -0.1989
  139MOL   O11227988   1.592   3.063   7.102 -0.9282 -0.2525  0.1165
  139MOL   C11327989   1.719   3.062   7.031 -0.2370  0.2696 -0.3279
  139MOL   C11427990   1.833   3.035   7.122  0.0113  0.1620 -0.6106
  139MOL   C11527991   1.846   2.882   7.161  0.3301 -0.3376  0.0483
  139MOL   H11627992   1.736   3.154   6.974  0.5596  0.1039 -0.3564
  139MOL   H11727993   1.707   2.976   6.964 -1.9911  2.7483 -3.3391
  139MOL   H11827994   1.922   3.071   7.069 -0.8368 -1.1588 -2.9711
  139MOL   H11927995   1.830   3.108   7.203 -1.4720 -1.1709  0.5648
  139MOL   H12027996   1.866   2.822   7.073 -1.2806 -1.4378  0.3953
  139MOL   H12127997   1.759   2.849   7.220  0.1273 -1.8467 -1.0599
  139MOL   O12227998   1.966   2.873   7.236  0.5329  0.3813  0.6068
  139MOL   C12327999   1.998   2.743   7.280 -0.0098  0.5404  0.6826
  139MOL   C12428000   2.131   2.719   7.337 -0.0231  0.3045  0.3921
  139MOL   C12528001   2.128   2.742   7.485  0.7553  0.2366  0.0909
  139MOL   H12628002   1.995   2.687   7.186  1.1634  1.1623  0.2663
  139MOL   H12728003   1.927   2.692   7.346 -0.1283 -1.7803 -1.1770
  139MOL   H12828004   2.172   2.621   7.310 -0.7998  0.2549 -0.6201
  139MOL   H12928005   2.197   2.792   7.289  1.4529  0.3847  2.4748
  139MOL   H13028006   2.049   2.684   7.532  0.2960  1.2723  0.6074
  139MOL   H13128007   2.100   2.847   7.496  0.5074 -0.0477  2.3805
  139MOL   O13228008   2.259   2.733   7.551  0.1447  0.1678 -0.1249
  139MOL   C13328009   2.349   2.832   7.509  0.8740  0.2739  0.3718
  139MOL   C13428010   2.413   2.882   7.638  0.4166  0.3732 -0.5774
  139MOL   C13528011   2.300   2.950   7.732 -0.1750 -0.0120  0.3308
  139MOL   H13628012   2.301   2.911   7.452  0.1505 -0.3028  0.1688
  139MOL   H13728013   2.423   2.781   7.447 -0.7478 -0.8918 -0.6309
  139MOL   H13828014   2.457   2.805   7.702 -1.5201 -0.5069 -0.2580
  139MOL   H13928015   2.490   2.955   7.612 -0.1050  1.7683  1.6591
  139MOL   H14028016   2.214   2.883   7.734  0.1904 -0.6422 -2.2725
  139MOL   H14128017   2.250   3.033   7.682  0.9120  0.2551 -0.3395
  139MOL   O14228018   2.360   2.999   0.065  0.0609 -0.1433 -0.3895
  139MOL   C14328019   2.261   3.021   0.163 -0.1982  0.0758  0.2366
  139MOL   C14428020   2.336   3.090   0.274  0.2636 -0.0249  0.4497
  139MOL   C14528021   2.249   3.131   0.387 -0.2840 -0.7989  0.3520
  139MOL   H14628022   2.223   2.924   0.193 -2.1940  0.7208 -0.1329
  139MOL   H14728023   2.183   3.090   0.130  1.1331  1.6608  0.2967
  139MOL   H14828024   2.418   3.035   0.319  0.2620 -0.3517  0.0486
  139MOL   H14928025   2.385   3.177   0.232 -1.3469  1.0215  0.6995
  139MOL   H15028026   2.224   3.036   0.436 -1.9733 -0.8457 -0.5561
  139MOL   H15128027   2.159   3.190   0.369  0.7748  0.9218  0.6614
  139MOL   O15228028   2.328   3.222   0.472 -0.4884  0.1757 -0.3872
  139MOL   C15328029   2.252   3.261   0.582 -0.3057 -0.2924 -0.3247
  139MOL   C15428030   2.314   3.379   0.654  0.0072 -0.2603 -0.5614
  139MOL   C15528031   2.237   3.406   0.787  0.2111  0.1569 -0.3494
  139MOL   H15628032   2.265   3.171   0.641 -0.1131 -0.3481 -0.4511
  139MOL   H15728033   2.147   3.272   0.555 -0.7073  1.7095  1.8597
  139MOL   H15828034   2.415   3.350   0.683  0.8334  3.9839  1.1443
  139MOL   H15928035   2.313   3.471   0.596  0.7865  0.4304  0.4918
  139MOL   H16028036   2.221   3.310   0.836 -1.1772  0.2508 -0.6020
  139MOL   H16128037   2.143   3.450   0.754 -0.8207 -0.9181  1.1045
  139MOL   O16228038   2.302   3.500   0.867 -0.1012 -0.4894  0.7652
  139MOL   C16328039   2.225   3.535   0.986  0.0623  0.1209 -0.6472
  139MOL   C16428040   2.301   3.625   1.088  0.0393 -0.6092 -0.3617
  139MOL   C16528041   2.242   3.625   1.232 -0.4199 -0.2790  0.3112
  139MOL   H16628042   2.188   3.446   1.038 -2.3568  1.3324 -0.2472
  139MOL   H16728043   2.137   3.586   0.949 -1.0810 -1.3657 -0.0370
  139MOL   H16828044   2.408   3.606   1.087  0.2410  0.4101 -3.0414
  139MOL   H16928045   2.295   3.731   1.064  1.5103 -0.3957  0.1806
  139MOL   H17028046   2.150   3.682   1.222 -1.4363 -2.1517 -1.4487
  139MOL   H17128047   2.293   3.690   1.303 -2.8118  2.5205 -0.4417
  139MOL   O17228048   2.225   3.496   1.289  0.1553  0.0307 -0.0041
  139MOL   C17328049   2.129   3.504   1.392 -0.9199  0.3164 -0.1171
  139MOL   C17428050   2.123   3.363   1.451  0.2580 -0.6333  0.3176
  139MOL   C17528051   2.081   3.373   1.594  0.5482 -0.2662 -0.7098
  139MOL   H17628052   2.029   3.537   1.365 -1.0321 -1.6680 -2.3108
  139MOL   H17728053   2.173   3.570   1.467  1.0631  0.9066 -1.7516
  139MOL   H17828054   2.051   3.313   1.386 -0.4787  0.5308  0.2337
  139MOL   H17928055   2.220   3.313   1.458  0.3403 -0.3414  1.2878
  139MOL   H18028056   2.161   3.415   1.654  0.2181  0.5234 -0.8156
  139MOL   H18128057   2.076   3.268   1.622 -0.9045 -0.2126 -0.7412
  139MOL   O18228058   1.956   3.448   1.603 -0.4104 -0.0115 -0.4065
  139MOL   C18328059   1.907   3.472   1.732 -0.7953  0.2782  0.5634
  139MOL   C18428060   1.826   3.606   1.759  0.7211 -0.1361  0.6010
  139MOL   C18528061   1.927   3.717   1.791 -0.0593  0.2472  0.3420
  139MOL   H18628062   1.994   3.487   1.797  1.6478  0.1380 -2.5226
  139MOL   H18728063   1.850   3.386   1.768  0.1697 -1.6807 -2.3906
  139MOL   H18828064   1.774   3.629   1.666  1.2406 -0.8557  0.1281
  139MOL   H18928065   1.746   3.599   1.832 -0.4488  0.8785 -0.5483
  139MOL   H19028066   1.995   3.717   1.706 -0.5969 -2.6065 -0.1184
  139MOL   H19128067   1.973   3.698   1.888  0.1244  0.7969  0.3636
  139MOL   O19228068   1.847   3.837   1.789 -0.6783  0.0412 -0.2563
  139MOL   C19328069   1.924   3.958   1.772  0.0421 -0.0383 -0.1440
  139MOL   C19428070   1.944   3.975   1.617  0.0494 -0.1058 -0.2947
  139MOL   C19528071   1.818   3.999   1.541  0.3418 -1.0089  0.4453
  139MOL   H19628072   2.022   3.949   1.820  0.5287 -2.7379 -1.5339
  139MOL   H19728073   1.860   4.034   1.816 -1.0030  0.1182 -1.9074
  139MOL   H19828074   1.998   4.069   1.616 -0.5005  0.2172  0.6173
  139MOL   H19928075   2.020   3.910   1.573  2.6625  2.7318 -0.1332
  139MOL   H20028076   1.746   3.917   1.539 -1.6549  0.7185  0.7402
  139MOL   H20128077   1.843   4.013   1.436  0.6982 -0.5308  0.5909
  139MOL   H20228078   1.771   4.090   1.577  2.6653  1.0505 -1.5466
  140MOL     O128079   1.868   6.188   6.181  0.1441 -0.5341  0.3065
  140MOL     C228080   1.849   6.050   6.222 -0.8583 -0.5696  0.0013
  140MOL     C328081   1.876   5.957   6.107 -0.4817  0.0193  0.5492
  140MOL     C428082   1.878   5.812   6.162  0.7066  0.7595  0.1035
  140MOL     H528083   1.747   6.040   6.259 -1.4178 -0.0359 -1.3576
  140MOL     H628084   1.907   6.025   6.311 -1.3654 -2.4163 -0.1699
  140MOL     H728085   1.807   5.966   6.023 -1.2710 -0.6938  1.1077
  140MOL     H828086   1.974   5.981   6.067 -0.1806  0.1227  1.3282
  140MOL     H928087   1.781   5.769   6.183  0.8530 -0.4641 -1.6299
  140MOL    H1028088   1.953   5.801   6.240  0.0685 -4.1176  0.1373
  140MOL    H1128089   1.806   6.214   6.115  0.0641 -2.4158 -0.3738
  140MOL    O1228090   1.916   5.742   6.053 -0.2926  0.2659 -0.0539
  140MOL    C1328091   1.932   5.605   6.061  0.3173 -0.0669 -0.9246
  140MOL    C1428092   2.076   5.565   6.075  0.1197 -0.7041 -0.0878
  140MOL    C1528093   2.088   5.412   6.096  0.5265  0.0951  0.2658
  140MOL    H1628094   1.901   5.569   5.963  2.3185 -1.6316 -1.0335
  140MOL    H1728095   1.870   5.548   6.130  1.3819  1.7179  1.5675
  140MOL    H1828096   2.119   5.603   5.982  2.8481 -4.2542 -0.3915
  140MOL    H1928097   2.124   5.607   6.163 -2.1079 -0.5093  1.0684
  140MOL    H2028098   2.027   5.375   6.179  0.4705 -0.6742 -0.1114
  140MOL    H2128099   2.194   5.391   6.106  0.2639 -1.1426  0.5390
  140MOL    O2228100   2.044   5.357   5.975  0.2057  0.4593  0.2773
  140MOL    C2328101   2.018   5.219   5.987  0.3145  0.2908 -0.2229
  140MOL    C2428102   2.007   5.154   5.849 -0.1614  0.1652  0.2533
  140MOL    C2528103   2.122   5.183   5.749 -0.6068  0.4525 -0.0669
  140MOL    H2628104   1.930   5.200   6.048  0.7455  2.5597  1.1884
  140MOL    H2728105   2.099   5.163   6.036 -0.6283 -0.0283  0.9850
  140MOL    H2828106   1.996   5.046   5.855 -1.8066  0.4709  3.4683
  140MOL    H2928107   1.915   5.182   5.797 -0.2225  0.5054  0.5493
  140MOL    H3028108   2.215   5.136   5.779  0.7047  2.1948 -1.3033
  140MOL    H3128109   2.146   5.289   5.756  0.2493  0.2724 -0.2487
  140MOL    O3228110   2.100   5.121   5.619  0.2890 -0.2513 -0.1269
  140MOL    C3328111   2.142   5.211   5.519 -0.1800  0.0840 -0.6473
  140MOL    C3428112   2.121   5.159   5.377 -0.4219  0.0721  0.0406
  140MOL    C3528113   2.212   5.045   5.335  0.0651  0.2128  0.4537
  140MOL    H3628114   2.246   5.227   5.549 -1.2379 -1.3084  4.1667
  140MOL    H3728115   2.089   5.306   5.531 -0.1716  0.0490 -0.3284
  140MOL    H3828116   2.020   5.121   5.367 -0.8737  1.5526 -1.1910
  140MOL    H3928117   2.138   5.244   5.310 -0.6771  0.7029  0.7670
  140MOL    H4028118   2.196   4.951   5.387  1.4558 -0.0887  0.3574
  140MOL    H4128119   2.313   5.068   5.371 -0.0796  0.8858  0.4298
  140MOL    O4228120   2.214   5.043   5.188  0.0309 -0.3813  0.0041
  140MOL    C4328121   2.344   5.011   5.137 -1.1195 -0.5216 -0.9180
  140MOL    C4428122   2.432   5.129   5.091 -0.1778 -0.1639 -0.1607
  140MOL    C4528123   2.490   5.212   5.205 -0.6162 -0.0204 -1.0219
  140MOL    H4628124   2.307   4.951   5.054  0.3272 -0.8638 -1.3163
  140MOL    H4728125   2.401   4.943   5.200 -1.0387  0.0096 -0.4126
  140MOL    H4828126   2.517   5.084   5.039 -0.0198  0.5069 -0.4849
  140MOL    H4928127   2.380   5.203   5.030 -1.5184 -2.6778 -2.1976
  140MOL    H5028128   2.417   5.277   5.252 -1.8801 -1.6817 -0.6396
  140MOL    H5128129   2.569   5.275   5.163  0.1161  1.1378  1.9073
  140MOL    O5228130   2.539   5.126   5.310 -0.0499  0.8859 -0.4644
  140MOL    C5328131   2.631   5.189   5.400 -0.0846 -0.6503 -0.3092
  140MOL    C5428132   2.556   5.258   5.518 -0.0035 -0.0299  0.2209
  140MOL    C5528133   2.518   5.163   5.634  0.2076  0.5600  0.2363
  140MOL    H5628134   2.695   5.264   5.355 -0.3418 -0.2895 -0.0692
  140MOL    H5728135   2.705   5.113   5.424  0.5264 -0.2616 -0.9461
  140MOL    H5828136   2.612   5.344   5.554  0.9549  0.9750 -3.4173
  140MOL    H5928137   2.473   5.316   5.479  1.5281  1.1169 -1.4315
  140MOL    H6028138   2.603   5.110   5.676  2.5619  1.7268 -2.8679
  140MOL    H6128139   2.454   5.091   5.583 -0.8873  1.9653 -0.4059
  140MOL    O6228140   2.449   5.242   5.730 -0.0947  0.1526  0.4195
  140MOL    C6328141   2.523   5.326   5.815  0.2347  0.0593  0.1090
  140MOL    C6428142   2.420   5.428   5.864 -0.6417 -0.0063  1.0175
  140MOL    C6528143   2.474   5.525   5.967  0.1509 -0.2569  0.0910
  140MOL    H6628144   2.601   5.379   5.761 -0.7033 -0.8279 -2.1870
  140MOL    H6728145   2.570   5.273   5.897 -0.5711  2.2710  2.0301
  140MOL    H6828146   2.371   5.473   5.777 -3.2889 -0.6331  2.1296
  140MOL    H6928147   2.338   5.371   5.909 -0.8343 -1.0766 -0.6044
  140MOL    H7028148   2.567   5.575   5.942 -1.9522  3.4970 -0.6107
  140MOL    H7128149   2.488   5.473   6.062  1.3514  0.6390  0.4182
  140MOL    O7228150   2.367   5.614   5.983 -0.4647 -0.5286  0.3878
  140MOL    C7328151   2.398   5.722   6.070 -0.4092 -1.0612 -0.1059
  140MOL    C7428152   2.299   5.836   6.036  0.9552 -0.5581 -0.1341
  140MOL    C7528153   2.317   5.954   6.132  1.0717 -0.0120  0.1134
  140MOL    H7628154   2.497   5.759   6.045 -1.1725  1.1434  0.0010
  140MOL    H7728155   2.391   5.701   6.177 -0.6330  0.1918  0.1320
  140MOL    H7828156   2.313   5.866   5.932 -1.3965 -2.7449 -1.1354
  140MOL    H7928157   2.199   5.793   6.045  0.4882  0.0732 -2.1668
  140MOL    H8028158   2.248   6.032   6.098 -0.0460 -1.0891 -0.1413
  140MOL    H8128159   2.421   5.985   6.127  0.7208  1.0481 -0.7431
  140MOL    O8228160   2.280   5.909   6.267  0.3076 -0.2782  0.6347
  140MOL    C8328161   2.228   6.011   6.353 -0.1822 -0.3483  0.2218
  140MOL    C8428162   2.194   5.933   6.479  0.1558 -0.7221 -0.4804
  140MOL    C8528163   2.122   6.033   6.578  0.6806  0.2516 -0.2842
  140MOL    H8628164   2.140   6.042   6.297  0.2799 -1.1141 -0.9415
  140MOL    H8728165   2.301   6.091   6.368 -0.3754 -0.1194 -0.0529
  140MOL    H8828166   2.122   5.862   6.437 -1.4413  0.5987 -0.0548
  140MOL    H8928167   2.282   5.880   6.515 -0.6618 -1.5373  0.3631
  140MOL    H9028168   2.021   6.058   6.547 -0.5943 -0.1294  3.2533
  140MOL    H9128169   2.175   6.126   6.594  3.0093 -0.9145 -1.0309
  140MOL    O9228170   2.094   5.984   6.711 -0.5053  0.0800 -0.1461
  140MOL    C9328171   2.186   6.032   6.810  0.1908 -0.1859 -0.8370
  140MOL    C9428172   2.153   5.980   6.948 -0.3672  0.2754  0.6096
  140MOL    C9528173   2.250   6.013   7.053 -0.7317 -0.5696  0.3283
  140MOL    H9628174   2.176   6.141   6.804  1.5787 -0.0827 -1.3697
  140MOL    H9728175   2.293   6.016   6.796  0.7282  0.9570  1.7075
  140MOL    H9828176   2.052   6.003   6.982 -0.7347 -0.2615 -0.1277
  140MOL    H9928177   2.155   5.871   6.948  1.1519  0.2851  0.1635
  140MOL   H10028178   2.270   6.120   7.060 -0.8923 -0.5856  1.1001
  140MOL   H10128179   2.344   5.964   7.025  0.2233  1.5394 -0.3216
  140MOL   O10228180   2.218   5.953   7.178  0.1699  0.1075 -0.0453
  140MOL   C10328181   2.308   6.000   7.280 -0.2280  0.8723 -0.0270
  140MOL   C10428182   2.330   5.898   7.398  0.0818  0.7336  0.4579
  140MOL   C10528183   2.359   5.750   7.358 -0.4261  0.6808 -0.4796
  140MOL   H10628184   2.264   6.093   7.315 -2.2024 -0.4032  1.0117
  140MOL   H10728185   2.406   6.025   7.240 -0.9531  1.0575 -1.7109
  140MOL   H10828186   2.411   5.936   7.460  0.9666  1.5007 -1.1450
  140MOL   H10928187   2.246   5.904   7.468  0.2051  3.1447  0.4371
  140MOL   H11028188   2.425   5.740   7.272  2.3386 -1.2352  1.7543
  140MOL   H11128189   2.268   5.695   7.336  0.2722 -0.6322 -0.1771
  140MOL   O11228190   2.413   5.689   7.480  0.0970  0.1079 -0.0763
  140MOL   C11328191   2.459   5.563   7.446 -0.1746  0.3339 -0.3012
  140MOL   C11428192   2.502   5.476   7.563 -0.6853 -0.5801 -0.9252
  140MOL   C11528193   2.600   5.374   7.505 -0.6422 -0.1644  0.7217
  140MOL   H11628194   2.533   5.572   7.367 -0.9005  0.5530 -0.9542
  140MOL   H11728195   2.375   5.508   7.404 -0.3934  1.1008 -0.8849
  140MOL   H11828196   2.546   5.545   7.634 -1.5001 -0.9774 -0.0334
  140MOL   H11928197   2.414   5.430   7.608  0.9038 -1.1932  1.6657
  140MOL   H12028198   2.693   5.425   7.478 -0.9940  0.0607 -0.0686
  140MOL   H12128199   2.554   5.319   7.424  0.0086  0.6398 -0.2061
  140MOL   O12228200   2.613   5.275   7.603  0.4869  0.1660  0.2917
  140MOL   C12328201   2.717   5.192   7.556  0.4826  0.0947  0.0200
  140MOL   C12428202   2.748   5.071   7.647 -0.1473  0.6140 -0.2084
  140MOL   C12528203   2.878   5.003   7.604 -0.2529  0.7600  0.0734
  140MOL   H12628204   2.808   5.246   7.530  0.5680  0.3986  0.9149
  140MOL   H12728205   2.682   5.148   7.463 -1.3037  1.5992 -0.0416
  140MOL   H12828206   2.778   5.120   7.740  0.9375 -0.8113  0.2031
  140MOL   H12928207   2.668   5.001   7.672 -1.6327  2.3591  0.0447
  140MOL   H13028208   2.960   5.072   7.583 -0.2543  1.3320  1.8615
  140MOL   H13128209   2.861   4.955   7.508  4.2749  1.6092 -1.2878
  140MOL   O13228210   2.923   4.909   7.700 -0.3560 -0.0917 -0.0434
  140MOL   C13328211   3.043   4.845   7.673  0.2961 -0.2167  0.5325
  140MOL   C13428212   3.024   4.717   7.581  0.5145  0.0213  0.3390
  140MOL   C13528213   3.130   4.606   7.594  0.4244 -0.7753  0.1071
  140MOL   H13628214   3.081   4.797   7.763 -3.4447 -0.9906  1.8004
  140MOL   H13728215   3.116   4.922   7.648 -0.2947 -0.0849 -0.8313
  140MOL   H13828216   2.926   4.675   7.603  0.3548  0.5340  0.6152
  140MOL   H13928217   3.020   4.746   7.476  0.6184 -1.3758 -0.0612
  140MOL   H14028218   3.126   4.568   7.696 -0.3818 -0.3394  0.2452
  140MOL   H14128219   3.229   4.651   7.588 -0.4785  1.3911  0.7474
  140MOL   O14228220   3.109   4.507   7.499 -0.2160 -0.1463  0.2318
  140MOL   C14328221   3.180   4.384   7.523  0.8934 -0.1430  0.1750
  140MOL   C14428222   3.118   4.276   7.436  0.0533 -0.1966  0.3669
  140MOL   C14528223   3.187   4.138   7.447  0.2387 -0.1271 -0.1124
  140MOL   H14628224   3.166   4.352   7.626 -2.6456  2.5638  0.6416
  140MOL   H14728225   3.287   4.397   7.506  0.3980  1.4797 -2.0078
  140MOL   H14828226   3.019   4.270   7.482  0.0371  1.7171  0.5886
  140MOL   H14928227   3.103   4.302   7.332 -2.4353  0.9790  0.9715
  140MOL   H15028228   3.130   4.055   7.404  0.9553 -0.5878 -0.1776
  140MOL   H15128229   3.187   4.112   7.553  0.5091  0.6849  0.0915
  140MOL   O15228230   3.308   4.153   7.372  0.0312 -0.4936 -0.4275
  140MOL   C15328231   3.426   4.123   7.449  0.2262 -0.5195 -0.5485
  140MOL   C15428232   3.542   4.198   7.400  0.4825 -0.6153 -0.2688
  140MOL   C15528233   3.665   4.191   7.488 -0.4833  0.4236  0.3893
  140MOL   H15628234   3.438   4.016   7.433  0.0658 -0.2399 -2.5800
  140MOL   H15728235   3.407   4.132   7.556  2.5441  1.2621 -0.2635
  140MOL   H15828236   3.578   4.170   7.301 -2.5794 -2.1645 -1.0283
  140MOL   H15928237   3.513   4.303   7.399 -0.4798 -0.8853 -1.5650
  140MOL   H16028238   3.638   4.209   7.592 -1.1067  1.7396  0.0083
  140MOL   H16128239   3.731   4.272   7.459 -2.4523  2.2871  1.0069
  140MOL   O16228240   3.736   4.064   7.465  0.0069  0.7005  0.1286
  140MOL   C16328241   3.830   4.037   7.568 -0.1006 -0.6047 -0.5529
  140MOL   C16428242   3.786   3.942   7.673 -0.3928  0.5727 -1.0448
  140MOL   C16528243   3.893   3.869   7.758 -0.1895 -0.2947  0.4556
  140MOL   H16628244   3.888   4.120   7.610  0.3593 -0.8213 -0.7638
  140MOL   H16728245   3.894   3.982   7.499 -1.6354 -0.4062 -2.1589
  140MOL   H16828246   3.718   3.997   7.738  0.4894  1.1606 -0.6090
  140MOL   H16928247   3.722   3.870   7.621 -1.4454  1.4900 -1.0516
  140MOL   H17028248   3.963   3.941   0.012 -1.0944  0.7221  0.2669
  140MOL   H17128249   3.955   3.806   7.696  0.2318  1.0032 -0.4554
  140MOL   O17228250   3.833   3.780   0.073 -0.0615 -0.4592  0.0591
  140MOL   C17328251   3.928   3.697   0.130 -0.7634 -0.7097  0.3062
  140MOL   C17428252   3.860   3.624   0.240  0.6472 -0.3220  0.2278
  140MOL   C17528253   3.826   3.717   0.358 -0.0157  0.0488 -0.1115
  140MOL   H17628254   4.011   3.754   0.173 -1.1938 -0.0180  0.2223
  140MOL   H17728255   3.983   3.631   0.064 -0.2015 -1.6429  1.7020
  140MOL   H17828256   3.768   3.571   0.219  0.5713  0.5715 -1.8050
  140MOL   H17928257   3.928   3.543   0.268  0.7725 -0.1305  0.4912
  140MOL   H18028258   3.765   3.802   0.327  0.7692  1.0937  1.1552
  140MOL   H18128259   3.917   3.768   0.389 -1.5852  3.2549 -0.5765
  140MOL   O18228260   3.756   3.637   0.462  0.7028 -0.4536  0.0335
  140MOL   C18328261   3.744   3.714   0.580 -0.3705  0.0965  0.3997
  140MOL   C18428262   3.627   3.815   0.589  0.1961  0.1778  0.1004
  140MOL   C18528263   3.634   3.892   0.720  0.0515  0.2645 -0.3386
  140MOL   H18628264   3.832   3.773   0.606 -1.2328  0.6434  2.1488
  140MOL   H18728265   3.729   3.641   0.660 -0.3610 -0.2691  0.0648
  140MOL   H18828266   3.646   3.881   0.504  0.1184 -0.7725 -0.6577
  140MOL   H18928267   3.529   3.771   0.569  0.4154 -0.9358  1.4387
  140MOL   H19028268   3.733   3.932   0.738  0.7524 -0.8599 -1.5641
  140MOL   H19128269   3.622   3.812   0.793 -0.4863 -0.5015 -1.2463
  140MOL   O19228270   3.521   3.973   0.751  0.0905 -0.0342  0.2716
  140MOL   C19328271   3.514   4.007   0.892  0.3397  0.6159  0.1232
  140MOL   C19428272   3.373   4.051   0.929  0.0879 -0.1798 -0.5139
  140MOL   C19528273   3.354   4.202   0.899  0.2361 -0.6410  0.2141
  140MOL   H19628274   3.584   4.088   0.904  0.0721  1.0878 -1.3193
  140MOL   H19728275   3.544   3.925   0.958 -1.4614  0.3355  0.6319
  140MOL   H19828276   3.300   3.989   0.878 -0.4799  0.9711 -1.1177
  140MOL   H19928277   3.354   4.027   1.033  3.4355 -1.4987 -0.1186
  140MOL   H20028278   3.372   4.216   0.792  0.1500 -0.3768  0.2342
  140MOL   H20128279   3.429   4.263   0.950 -1.5963  1.7883  0.0927
  140MOL   H20228280   3.260   4.252   0.921  0.2660  0.0131 -1.0334
  141MOL     O128281   7.164   1.118   6.226  0.0351 -0.5591 -0.3948
  141MOL     C228282   7.269   1.202   6.196 -0.0679 -0.2642 -0.5017
  141MOL     C328283   7.247   1.279   6.067 -0.0522 -0.1726  0.3779
  141MOL     C428284   7.335   1.396   6.052  0.0381 -0.2558  0.1905
  141MOL     H528285   7.362   1.146   6.184 -0.0200  0.0604 -1.7134
  141MOL     H628286   7.277   1.273   6.278  0.7552  0.3184 -1.0839
  141MOL     H728287   7.256   1.213   5.981 -3.7308  1.6068 -1.4946
  141MOL     H828288   7.145   1.318   6.061 -0.1934 -0.9686 -3.2443
  141MOL     H928289   7.327   1.439   5.951  0.4719 -0.8266 -0.0889
  141MOL    H1028290   7.437   1.359   6.059  0.0151 -0.4315 -0.3392
  141MOL    H1128291   7.186   1.063   6.300 -0.4103 -2.2936 -1.4991
  141MOL    O1228292   7.304   1.486   6.149 -0.3148 -0.6302 -0.0582
  141MOL    C1328293   7.409   1.562   6.200 -0.4937  0.1788 -0.3630
  141MOL    C1428294   7.346   1.662   6.299  0.3586 -0.3214 -0.1535
  141MOL    C1528295   7.454   1.762   6.352  0.1537  0.4424 -0.2366
  141MOL    H1628296   7.456   1.611   6.115 -1.9019 -0.3918 -1.4997
  141MOL    H1728297   7.481   1.493   6.244 -0.6942  0.3623  0.2619
  141MOL    H1828298   7.266   1.718   6.250  0.7407 -0.7688 -1.2985
  141MOL    H1928299   7.299   1.600   6.375  0.2043  0.1249  0.1178
  141MOL    H2028300   7.547   1.709   6.370 -0.6102 -0.6548  0.5616
  141MOL    H2128301   7.410   1.809   6.440 -0.4898  1.7537 -1.2323
  141MOL    O2228302   7.455   1.855   6.245 -0.1030  0.0479  0.5163
  141MOL    C2328303   7.536   1.961   6.292 -0.6140 -0.2828  0.1693
  141MOL    C2428304   7.530   2.077   6.187  0.6924  0.5891 -0.3591
  141MOL    C2528305   7.650   2.163   6.212 -0.0901  0.0497 -0.2579
  141MOL    H2628306   7.636   1.918   6.305 -1.2006 -1.7256  0.0390
  141MOL    H2728307   7.489   1.994   6.384  0.8833  2.3801  0.0063
  141MOL    H2828308   7.535   2.025   6.091  0.3763  0.7282 -0.4536
  141MOL    H2928309   7.437   2.134   6.201  0.8530  0.2914  2.0102
  141MOL    H3028310   7.738   2.099   6.205  1.2681  1.8675 -0.0950
  141MOL    H3128311   7.636   2.203   6.312 -1.2867 -1.3591  0.1566
  141MOL    O3228312   7.656   2.267   6.120 -0.1706 -0.2654 -0.2348
  141MOL    C3328313   7.765   2.358   6.144  0.2175  0.2735  0.5697
  141MOL    C3428314   7.739   2.472   6.048 -0.8022 -0.3469 -0.0760
  141MOL    C3528315   7.756   2.425   5.902 -0.1930 -0.6535  0.4419
  141MOL    H3628316   0.071   2.305   6.128  0.3518  1.4031 -2.6527
  141MOL    H3728317   7.772   2.395   6.246 -2.1484  0.9626  0.5044
  141MOL    H3828318   7.639   2.512   6.065  0.0393  1.7921  0.0140
  141MOL    H3928319   0.024   2.549   6.070  0.5991 -1.6760  0.0385
  141MOL    H4028320   7.671   2.365   5.867 -0.0868  1.3248 -3.4372
  141MOL    H4128321   0.056   2.370   5.871 -0.1949 -0.7033  0.5243
  141MOL    O4228322   7.752   2.532   5.821  0.1575  0.0056 -0.0920
  141MOL    C4328323   0.079   2.607   5.799 -0.7410  0.3662 -0.0035
  141MOL    C4428324   0.033   2.756   5.785  1.1099 -0.0541  0.5785
  141MOL    C4528325   7.752   2.805   5.916  0.1272 -0.0189  0.0383
  141MOL    H4628326   0.112   2.584   5.697  1.4091  2.7475  0.0719
  141MOL    H4728327   0.165   2.595   5.864  0.5982 -2.4419 -2.1847
  141MOL    H4828328   0.106   2.830   5.751 -1.9754  3.3257  1.0994
  141MOL    H4928329   7.742   2.761   5.710  0.6566  1.3486  1.1360
  141MOL    H5028330   0.037   2.791   5.996 -0.3963 -1.4772  0.2742
  141MOL    H5128331   7.662   2.750   5.942 -0.4320 -0.0070 -1.7999
  141MOL    O5228332   7.728   2.946   5.900 -0.0692 -0.6567 -0.6615
  141MOL    C5328333   7.604   2.984   5.962 -0.4435  0.2735 -0.5648
  141MOL    C5428334   7.606   2.965   6.115 -0.1521  0.3661 -0.4713
  141MOL    C5528335   7.710   3.046   6.190 -0.2560 -0.5003  0.2751
  141MOL    H5628336   7.523   2.921   5.926 -1.1200  0.7604  0.0956
  141MOL    H5728337   7.575   3.086   5.935  0.3338  1.2841  2.1512
  141MOL    H5828338   7.506   2.978   6.156  0.2273 -1.8775  1.2756
  141MOL    H5928339   7.619   2.861   6.143  3.5999  1.5746  2.6433
  141MOL    H6028340   7.686   3.152   6.199  2.2914  0.0829  0.5245
  141MOL    H6128341   0.012   3.028   6.131  0.3846  0.3239  1.0021
  141MOL    O6228342   7.735   2.990   6.319  0.3007 -0.2173  0.4059
  141MOL    C6328343   0.067   3.047   6.373 -0.3788 -0.3713  1.2477
  141MOL    C6428344   0.137   2.966   6.484 -0.0222  0.2068  0.0426
  141MOL    C6528345   0.049   2.966   6.615  0.4555  0.1884 -0.2011
  141MOL    H6628346   0.037   3.138   6.424 -1.2787 -0.2188  0.4492
  141MOL    H6728347   0.139   3.070   6.294 -1.2722 -0.5268  0.3813
  141MOL    H6828348   0.163   2.865   6.453  1.5705  0.6756 -0.2121
  141MOL    H6928349   0.235   3.011   6.500  1.3300 -1.6988 -2.5452
  141MOL    H7028350   7.738   2.925   6.599 -0.2602  0.7262  2.6118
  141MOL    H7128351   0.030   3.069   6.646 -0.3681  0.0527 -0.2492
  141MOL    O7228352   0.129   2.895   6.708  0.0975  0.3125 -0.4277
  141MOL    C7328353   0.070   2.899   6.845  0.0679 -0.7744  0.1099
  141MOL    C7428354   0.102   3.028   6.923  0.1887  0.6604 -0.1474
  141MOL    C7528355   0.025   3.052   7.056  0.2600  0.1511  0.5690
  141MOL    H7628356   0.110   2.813   6.898 -3.0105 -2.1450  0.3046
  141MOL    H7728357   7.754   2.868   6.842 -1.1082  2.4512  3.5363
  141MOL    H7828358   0.210   3.043   6.936  0.1788 -1.1128  2.1982
  141MOL    H7928359   0.077   3.122   6.874  0.2471  1.1492  0.7403
  141MOL    H8028360   0.056   2.971   7.121 -1.5557 -0.1699  1.0639
  141MOL    H8128361   7.708   3.052   7.026  0.4605 -0.2390 -0.1452
  141MOL    O8228362   0.075   3.176   7.110 -0.0386  0.2148  0.4500
  141MOL    C8328363   7.772   3.229   7.207 -0.1294  0.1798 -0.1031
  141MOL    C8428364   0.040   3.359   7.271 -1.1169 -0.2737  1.0900
  141MOL    C8528365   0.032   3.476   7.176 -0.2777  0.3451  0.5266
  141MOL    H8628366   7.745   3.152   7.278  0.2766  1.1676  1.1324
  141MOL    H8728367   7.676   3.248   7.157 -0.8374 -1.2489  0.6783
  141MOL    H8828368   7.784   3.384   7.367  2.7443  0.2274  2.8317
  141MOL    H8928369   0.145   3.338   7.289 -1.2594 -0.6647  1.5010
  141MOL    H9028370   7.720   3.482   7.136  0.5718 -0.3596 -1.7814
  141MOL    H9128371   0.097   3.451   7.092 -1.9924 -2.2128 -0.1005
  141MOL    O9228372   0.063   3.593   7.249 -0.1076  0.1082 -0.3178
  141MOL    C9328373   0.061   3.705   7.170  0.8820  0.6599 -0.6566
  141MOL    C9428374   0.043   3.828   7.257  0.8100 -0.3089  0.5044
  141MOL    C9528375   7.759   3.945   7.173  0.2141  0.3945 -0.0460
  141MOL    H9628376   7.773   3.695   7.092  1.0631 -0.0512 -0.7487
  141MOL    H9728377   0.146   3.713   7.102 -0.5249  0.1116 -2.5046
  141MOL    H9828378   7.764   3.805   7.340 -0.1368  1.3079  0.2173
  141MOL    H9928379   0.137   3.869   7.293  1.4999 -2.0352  0.6920
  141MOL   H10028380   7.704   4.008   7.242  0.4572 -0.6057  1.0915
  141MOL   H10128381   7.677   3.893   7.124  1.6663 -0.8691 -1.2362
  141MOL   O10228382   0.067   4.007   7.089  0.6082 -0.1816  0.5185
  141MOL   C10328383   0.034   4.001   6.953  0.0616 -0.1473  0.5206
  141MOL   C10428384   0.143   4.082   6.882  0.4944  0.9202 -0.0606
  141MOL   C10528385   0.265   3.990   6.848 -0.1920 -0.1172  0.0728
  141MOL   H10628386   7.731   4.059   6.936  0.0340 -0.3160  0.0825
  141MOL   H10728387   0.021   3.899   6.918 -0.1051  0.4022 -1.0828
  141MOL   H10828388   0.097   4.115   6.789  3.3967  0.6118 -1.6530
  141MOL   H10928389   0.171   4.174   6.934 -1.5835  1.4723  0.1129
  141MOL   H11028390   0.222   3.903   6.798 -0.4336 -0.2524  0.5125
  141MOL   H11128391   0.298   3.957   6.946  0.5477  0.9144  0.1762
  141MOL   O11228392   0.352   4.062   6.767  0.2128 -0.7719  0.0679
  141MOL   C11328393   0.477   4.001   6.736  0.2782 -0.7009 -0.6587
  141MOL   C11428394   0.555   4.118   6.676 -0.4388 -0.5889  0.6674
  141MOL   C11528395   0.507   4.161   6.542  0.6156 -0.0773 -0.5803
  141MOL   H11628396   0.466   3.910   6.678 -2.2368 -0.0763 -1.2452
  141MOL   H11728397   0.531   3.978   6.828 -4.0273 -0.5735  2.0748
  141MOL   H11828398   0.569   4.200   6.746  0.7659 -0.2005 -0.0139
  141MOL   H11928399   0.649   4.065   6.658 -0.9260 -0.2734 -3.4205
  141MOL   H12028400   0.434   4.240   6.555 -0.1282 -0.8889  0.2707
  141MOL   H12128401   0.470   4.081   6.478 -1.5497  1.4214 -1.2611
  141MOL   O12228402   0.623   4.226   6.478  0.1244  0.2736  0.1885
  141MOL   C12328403   0.589   4.279   6.348 -0.4305  0.2080  0.5508
  141MOL   C12428404   0.697   4.364   6.284  0.0500 -0.2131  0.4763
  141MOL   C12528405   0.715   4.506   6.337 -0.1123  0.4216 -0.2832
  141MOL   H12628406   0.495   4.333   6.349  1.0357  2.8636  3.6405
  141MOL   H12728407   0.569   4.187   6.292  0.2865  0.7520 -0.6019
  141MOL   H12828408   0.792   4.311   6.288  1.2364  1.8972  1.0758
  141MOL   H12928409   0.688   4.376   6.176 -0.2881 -1.6290  0.3307
  141MOL   H13028410   0.753   4.490   6.437  0.2138  0.0715 -0.4601
  141MOL   H13128411   0.615   4.547   6.353  0.2513  2.0874 -2.1027
  141MOL   O13228412   0.795   4.595   6.257 -0.4116  0.1305 -0.3201
  141MOL   C13328413   0.774   4.725   6.312 -0.7858  0.2096  1.3450
  141MOL   C13428414   0.912   4.789   6.348 -0.8304 -0.8304 -0.2297
  141MOL   C13528415   0.977   4.713   6.464 -0.0310 -0.5416 -0.5691
  141MOL   H13628416   0.692   4.737   6.383 -0.1444  1.8803  1.8430
  141MOL   H13728417   0.741   4.780   6.224  0.8932 -0.4390  0.2781
  141MOL   H13828418   0.978   4.811   6.264  0.0246  1.4922  1.0127
  141MOL   H13928419   0.899   4.894   6.372 -0.7458 -0.3504 -2.2035
  141MOL   H14028420   1.001   4.610   6.440  1.3478  0.0053 -1.5659
  141MOL   H14128421   0.896   4.713   6.538 -0.5149 -1.4465 -1.0895
  141MOL   O14228422   1.101   4.773   6.507  0.4180  0.1739  0.3425
  141MOL   C14328423   1.158   4.708   6.617 -0.1095  0.0873 -0.6453
  141MOL   C14428424   1.288   4.773   6.650  0.1213 -0.3333 -0.2174
  141MOL   C14528425   1.341   4.735   6.794  0.6813  0.0461 -0.6553
  141MOL   H14628426   1.183   4.602   6.604 -0.1110  0.0498 -0.3435
  141MOL   H14728427   1.098   4.720   6.707  0.5128 -0.8855 -0.0893
  141MOL   H14828428   1.358   4.748   6.569  1.1394 -3.3034  1.5279
  141MOL   H14928429   1.283   4.882   6.658  1.5163 -0.3292  0.8276
  141MOL   H15028430   1.271   4.779   6.865  0.5583 -0.0672 -0.7082
  141MOL   H15128431   1.446   4.764   6.804  0.9598 -0.7875 -1.1376
  141MOL   O15228432   1.341   4.592   6.811 -0.0902 -0.6428 -0.2548
  141MOL   C15328433   1.430   4.547   6.915  0.4402 -0.1583 -0.0207
  141MOL   C15428434   1.391   4.396   6.926 -0.2797  0.2370  0.5269
  141MOL   C15528435   1.414   4.308   6.798  0.2781  0.3598  0.7594
  141MOL   H15628436   1.418   4.582   7.018 -1.2035 -1.2866  0.1885
  141MOL   H15728437   1.535   4.562   6.887  1.1187 -1.4617  1.7424
  141MOL   H15828438   1.460   4.363   7.005 -0.8325 -1.6028  0.2770
  141MOL   H15928439   1.288   4.380   6.956 -0.4896  0.9024  0.1465
  141MOL   H16028440   1.503   4.331   6.740 -0.4018  1.8348  0.2828
  141MOL   H16128441   1.337   4.321   6.722 -0.1801 -1.7076  0.8434
  141MOL   O16228442   1.421   4.169   6.839  0.1698 -0.1648 -0.0966
  141MOL   C16328443   1.446   4.080   6.737 -0.2042  0.1124  0.6214
  141MOL   C16428444   1.307   4.040   6.689  0.7961 -0.1917  0.8835
  141MOL   C16528445   1.318   3.921   6.587  0.0706 -0.0999  0.7096
  141MOL   H16628446   1.484   3.986   6.779  1.2374  0.6263  0.4963
  141MOL   H16728447   1.514   4.113   6.658 -0.9474  2.0925  0.7875
  141MOL   H16828448   1.231   4.022   6.765 -2.2568  2.3113 -1.4209
  141MOL   H16928449   1.270   4.123   6.628  0.1524 -1.1487 -0.0451
  141MOL   H17028450   1.377   3.839   6.627  0.9638 -0.0600 -0.4888
  141MOL   H17128451   1.380   3.967   6.510 -3.1751  1.6742 -0.9595
  141MOL   O17228452   1.196   3.883   6.535 -0.3497  0.0452 -0.0979
  141MOL   C17328453   1.202   3.798   6.426  0.3322  0.2239 -0.0864
  141MOL   C17428454   1.081   3.703   6.434 -0.0551  0.2781 -0.9218
  141MOL   C17528455   1.066   3.628   6.303 -0.6549  0.0961 -0.5353
  141MOL   H17628456   1.291   3.735   6.422 -0.1780 -0.6465  1.5124
  141MOL   H17728457   1.204   3.860   6.337 -0.6561  0.4902  0.0686
  141MOL   H17828458   1.103   3.629   6.510 -1.0234 -0.4057 -1.3027
  141MOL   H17928459   0.992   3.762   6.455 -0.9404 -1.5473  0.5969
  141MOL   H18028460   1.076   3.687   6.212 -1.8872  0.7648 -0.2444
  141MOL   H18128461   0.972   3.573   6.305 -0.5666 -0.0353  0.2099
  141MOL   O18228462   1.165   3.527   6.294 -0.5239  0.2352 -0.9201
  141MOL   C18328463   1.128   3.418   6.200 -0.1901 -0.3996 -0.3828
  141MOL   C18428464   1.253   3.336   6.177  0.0766 -0.4946  0.6258
  141MOL   C18528465   1.224   3.194   6.122  0.5991  0.4877 -0.2575
  141MOL   H18628466   1.090   3.449   6.103 -1.0419 -0.5777 -0.1090
  141MOL   H18728467   1.048   3.359   6.244 -0.4738  0.0548 -0.2786
  141MOL   H18828468   1.307   3.391   6.100 -2.3380 -0.5836 -1.2015
  141MOL   H18928469   1.320   3.321   6.262  2.2432 -0.9222 -1.1031
  141MOL   H19028470   1.141   3.152   6.179 -0.1196  1.2511 -0.7342
  141MOL   H19128471   1.308   3.127   6.137 -1.2387 -1.7262  0.4123
  141MOL   O19228472   1.202   3.209   5.986 -0.4467 -0.5787 -0.2742
  141MOL   C19328473   1.244   3.095   5.910 -0.0702  0.2634 -0.4020
  141MOL   C19428474   1.230   3.131   5.763  0.1156  0.4829  0.7185
  141MOL   C19528475   1.297   3.259   5.713  0.6113  0.8846 -0.1875
  141MOL   H19628476   1.199   2.997   5.921  1.1874 -0.1002  1.7884
  141MOL   H19728477   1.352   3.083   5.924  0.2864  2.6472 -0.9373
  141MOL   H19828478   1.277   3.051   5.705 -0.9557  0.3945 -0.0671
  141MOL   H19928479   1.125   3.135   5.732  0.7128 -0.7590 -1.6293
  141MOL   H20028480   1.252   3.336   5.776 -0.4766 -0.9187  1.3045
  141MOL   H20128481   1.272   3.269   5.607 -1.3086  1.1316  0.2605
  141MOL   H20228482   1.402   3.255   5.741  1.6448  0.8380 -3.7877
  142MOL     O128483   5.512   6.513   3.086 -0.2533 -0.1568  0.5883
  142MOL     C228484   5.574   6.627   3.021  0.8792 -0.6515 -0.3738
  142MOL     C328485   5.715   6.586   2.962  0.0663 -0.1949  0.0670
  142MOL     C428486   5.779   6.671   2.859 -0.2526  0.1793  0.0970
  142MOL     H528487   5.590   6.698   3.102 -1.6743 -1.9270  1.3104
  142MOL     H628488   5.500   6.669   2.953  0.7048 -0.1728  0.1064
  142MOL     H728489   5.779   6.595   3.049 -0.8718 -0.9629  0.8450
  142MOL     H828490   5.710   6.485   2.922  1.7196  0.7888 -2.8031
  142MOL     H928491   5.774   6.771   2.902  1.4875  0.1268  0.4742
  142MOL    H1028492   5.713   6.679   2.773  0.0595 -0.3530 -0.1960
  142MOL    H1128493   5.568   6.481   3.155  0.1378 -0.3827  0.1690
  142MOL    O1228494   5.914   6.640   2.821  0.7389 -0.6610  0.0847
  142MOL    C1328495   5.949   6.715   2.714  0.5948 -0.5154 -0.5770
  142MOL    C1428496   6.101   6.711   2.686 -0.4522  0.3708 -0.1379
  142MOL    C1528497   6.142   6.810   2.576 -0.9070  0.2302 -0.5003
  142MOL    H1628498   5.917   6.818   2.726  2.0543 -0.2492  1.2673
  142MOL    H1728499   5.906   6.671   2.623  1.0880  0.3422 -1.2304
  142MOL    H1828500   6.159   6.730   2.776 -0.0933  0.7935 -0.4568
  142MOL    H1928501   6.118   6.608   2.653  1.3530  0.9804 -1.2260
  142MOL    H2028502   6.095   6.903   2.607  0.6113  0.5142  1.0340
  142MOL    H2128503   6.087   6.778   2.487  2.1155 -1.8959 -1.7161
  142MOL    O2228504   6.280   6.812   2.566  0.5012  0.2456  0.1989
  142MOL    C2328505   6.327   6.868   2.444 -0.0087 -0.0264  0.8603
  142MOL    C2428506   6.479   6.864   2.417 -0.3860 -0.3671 -0.9386
  142MOL    C2528507   6.567   6.957   2.510 -0.1944  0.3923 -0.2190
  142MOL    H2628508   6.293   6.970   2.426 -0.0087 -0.5611 -2.5330
  142MOL    H2728509   6.285   6.805   2.366 -1.6048  1.9943  0.0332
  142MOL    H2828510   6.522   6.764   2.424 -0.6096 -0.3299  1.3099
  142MOL    H2928511   6.505   6.892   2.314 -0.0262  2.9917 -0.0157
  142MOL    H3028512   6.558   6.914   2.610 -0.4893 -1.1214 -0.8814
  142MOL    H3128513   6.521   7.055   2.504 -1.0877 -0.1747 -3.2195
  142MOL    O3228514   6.704   6.963   2.474 -0.1530  0.0218 -0.7561
  142MOL    C3328515   6.779   7.045   2.560  1.1603  0.0920 -0.0756
  142MOL    C3428516   6.926   7.062   2.510  0.0970 -0.3323  0.5802
  142MOL    C3528517   7.023   7.115   2.627  0.2658  0.0365 -0.1607
  142MOL    H3628518   6.780   7.001   2.660 -0.9464  0.3982  0.1120
  142MOL    H3728519   6.729   7.141   2.572  1.2415 -0.0149  1.2228
  142MOL    H3828520   6.961   6.966   2.473 -1.9476 -0.4124 -1.3038
  142MOL    H3928521   6.928   7.133   2.427  2.2629 -0.4982  0.4759
  142MOL    H4028522   7.006   7.221   2.648 -0.6059  0.1165 -1.1943
  142MOL    H4128523   7.126   7.113   2.593  1.5744  2.7693  3.3712
  142MOL    O4228524   7.013   7.044   2.753  0.1501 -0.7569  0.3002
  142MOL    C4328525   7.080   7.104   2.865  0.4066 -0.1897  0.3546
  142MOL    C4428526   7.096   7.005   2.980 -0.5458  0.7597 -0.6984
  142MOL    C4528527   7.199   7.047   3.089  0.6877 -0.1511  0.2024
  142MOL    H4628528   7.028   7.188   2.911  0.0841  0.2149 -0.7390
  142MOL    H4728529   7.177   7.136   2.827 -1.4228  0.9155 -3.6407
  142MOL    H4828530   7.000   6.987   3.029  1.2718 -0.0708  2.7539
  142MOL    H4928531   7.136   6.909   2.948 -0.1585  0.5066  0.5078
  142MOL    H5028532   7.173   7.143   3.134 -2.1110 -1.4085  1.3846
  142MOL    H5128533   7.300   7.050   3.047  1.5868 -0.3961  2.2660
  142MOL    O5228534   7.179   6.955   3.200 -0.3744  0.2984  0.1271
  142MOL    C5328535   7.288   6.863   3.213  0.6185 -0.0377 -0.3186
  142MOL    C5428536   7.241   6.754   3.303 -0.4872 -0.2606 -0.5878
  142MOL    C5528537   7.350   6.664   3.373  0.2115  0.5756  0.0573
  142MOL    H5628538   7.374   6.917   3.253 -0.4536  1.3483  0.1618
  142MOL    H5728539   7.311   6.819   3.116 -3.4972 -2.6183 -0.2663
  142MOL    H5828540   7.184   6.800   3.384 -0.0287 -0.1313 -0.3404
  142MOL    H5928541   7.164   6.696   3.253 -1.9281  0.1459  1.0994
  142MOL    H6028542   7.415   6.620   3.297  0.0181 -2.2858  1.4565
  142MOL    H6128543   7.305   6.576   3.420  1.7427  0.6340  1.7022
  142MOL    O6228544   7.413   6.749   3.473 -0.0150 -0.2402 -0.2400
  142MOL    C6328545   7.477   6.670   3.579 -0.0967 -0.5911 -0.0102
  142MOL    C6428546   7.402   6.654   3.704 -0.3385  0.2846 -0.3776
  142MOL    C6528547   7.385   6.774   3.790 -0.7925  0.2390  0.0904
  142MOL    H6628548   7.578   6.707   3.596 -0.8606  0.8881  1.3780
  142MOL    H6728549   7.501   6.579   3.524 -2.3775 -1.5115  0.4638
  142MOL    H6828550   7.308   6.608   3.675 -0.6097 -0.0447  0.9982
  142MOL    H6928551   7.460   6.580   3.759 -0.6994 -0.8249 -1.4666
  142MOL    H7028552   7.357   6.854   3.721  1.5352  0.2886 -0.8294
  142MOL    H7128553   7.483   6.811   3.821 -0.3626 -0.2284 -0.7066
  142MOL    O7228554   7.301   6.732   3.899 -0.1407 -0.7751  0.2700
  142MOL    C7328555   7.306   6.819   4.015 -0.4314  0.0705 -0.6552
  142MOL    C7428556   7.217   6.747   4.116  0.2744 -0.0600  0.0305
  142MOL    C7528557   7.226   6.817   4.249  0.1084 -0.3308  0.5678
  142MOL    H7628558   7.265   6.917   3.988 -0.5604 -0.4010 -2.2436
  142MOL    H7728559   7.407   6.831   4.055 -0.1179 -1.1047 -1.0700
  142MOL    H7828560   7.117   6.724   4.080  0.3258 -0.7460  0.3322
  142MOL    H7928561   7.257   6.647   4.128 -0.9226 -0.5640 -0.0870
  142MOL    H8028562   7.146   6.784   4.315  0.0219 -0.5243  0.3698
  142MOL    H8128563   7.217   6.925   4.236 -0.8779 -0.2312  2.0160
  142MOL    O8228564   7.346   6.779   4.315 -0.1626  0.2515 -0.5874
  142MOL    C8328565   7.362   6.822   4.454  0.5947  0.0852 -0.5495
  142MOL    C8428566   7.488   6.759   4.518  0.1881  0.2644 -0.1008
  142MOL    C8528567   7.515   6.807   4.663 -0.0327  0.2016  0.7708
  142MOL    H8628568   7.274   6.798   4.514 -0.6955  1.0875 -1.9808
  142MOL    H8728569   7.366   6.931   4.446 -1.9616  0.1536 -1.5011
  142MOL    H8828570   7.488   6.650   4.513 -0.4213  0.0354  3.7384
  142MOL    H8928571   7.565   6.804   4.455 -0.7993  1.7216 -0.2769
  142MOL    H9028572   7.449   6.748   4.727 -2.2080  2.6861  0.9112
  142MOL    H9128573   7.479   6.908   4.683  1.6325  1.5208 -2.5418
  142MOL    O9228574   7.651   6.784   4.687  0.3303 -0.2157 -0.0998
  142MOL    C9328575   7.671   6.817   4.822  0.3056  0.1672 -0.8581
  142MOL    C9428576   0.038   6.796   4.834  0.6454 -0.4983  0.6334
  142MOL    C9528577   0.078   6.821   4.980  0.4599 -0.0794  0.9033
  142MOL    H9628578   7.627   6.750   4.896  1.9442  1.0701  0.9960
  142MOL    H9728579   7.650   6.921   4.848 -2.9485 -1.1529  2.2662
  142MOL    H9828580   0.068   6.695   4.805 -0.3589 -0.9633  1.1668
  142MOL    H9928581   0.088   6.869   4.771  1.1099 -1.1684  0.2241
  142MOL   H10028582   0.185   6.815   4.997  0.3553 -2.0423  0.9784
  142MOL   H10128583   0.041   6.742   5.044 -2.5906  1.8723  1.6771
  142MOL   O10228584   0.027   6.946   5.031  0.1604 -0.1704  0.1488
  142MOL   C10328585   0.057   6.979   5.169  0.0168 -0.6517  0.6381
  142MOL   C10428586   0.004   7.118   5.206 -0.4535 -0.2816 -0.1524
  142MOL   C10528587   0.092   7.234   5.149 -0.4611  0.0724  0.3850
  142MOL   H10628588   0.163   6.972   5.192  0.4004  2.6250  0.0679
  142MOL   H10728589   0.009   6.894   5.218  0.1240 -0.6323  0.7765
  142MOL   H10828590   7.696   7.144   5.161 -0.9157  0.8025  1.3708
  142MOL   H10928591   0.001   7.127   5.315  0.0869 -0.6571 -0.1056
  142MOL   H11028592   0.022   7.310   5.116  0.1498  0.3916 -0.1894
  142MOL   H11128593   0.153   7.202   5.065 -0.1177  0.6585  0.4020
  142MOL   O11228594   0.172   7.272   5.254  0.0142  0.4212  0.0537
  142MOL   C11328595   0.273   7.362   5.204 -0.3180  0.0893  0.8478
  142MOL   C11428596   0.381   7.395   5.307  0.1495 -0.4820  0.6378
  142MOL   C11528597   0.474   7.269   5.314  0.0332 -0.6032 -0.7900
  142MOL   H11628598   0.224   7.454   5.174 -0.8024  0.0196  1.4120
  142MOL   H11728599   0.314   7.322   5.111 -0.3339 -0.3364  1.0223
  142MOL   H11828600   0.443   7.476   5.268 -1.5421  0.4380 -0.1806
  142MOL   H11928601   0.338   7.412   5.406 -1.0100 -0.5413  0.1541
  142MOL   H12028602   0.528   7.238   5.225 -0.4533  0.3841 -1.4351
  142MOL   H12128603   0.402   7.191   5.339 -0.3485 -0.5485 -1.7121
  142MOL   O12228604   0.568   7.285   5.424  0.1074 -0.3549  0.1101
  142MOL   C12328605   0.642   7.172   5.453 -0.3714  0.4138 -0.3640
  142MOL   C12428606   0.738   7.199   5.573 -0.4055 -0.1377  0.5745
  142MOL   C12528607   0.830   7.083   5.606 -0.4637 -0.1535 -0.2810
  142MOL   H12628608   0.700   7.147   5.364 -2.6992  1.1018 -2.1284
  142MOL   H12728609   0.590   7.080   5.479  0.5169  0.3385  1.1846
  142MOL   H12828610   0.803   7.284   5.558  2.1230 -2.0646  0.3374
  142MOL   H12928611   0.693   7.216   5.671  0.1582 -0.0241  0.8142
  142MOL   H13028612   0.890   7.097   5.696  0.5057  0.0382 -0.9475
  142MOL   H13128613   0.897   7.066   5.521  0.2675 -0.8670  0.4371
  142MOL   O13228614   0.759   6.963   5.627  0.8872 -0.1023  0.9114
  142MOL   C13328615   0.837   6.848   5.648  0.5828  0.7235  0.9844
  142MOL   C13428616   0.903   6.840   5.786  0.4788  0.4012  0.5303
  142MOL   C13528617   1.002   6.727   5.811 -0.3086  0.4220  1.0485
  142MOL   H13628618   0.917   6.834   5.576 -0.7667  0.6158 -0.5122
  142MOL   H13728619   0.762   6.769   5.638 -0.6662  2.1756 -1.5907
  142MOL   H13828620   0.962   6.927   5.813 -0.5160  0.8273  1.3784
  142MOL   H13928621   0.822   6.841   5.859 -0.1656 -1.2491 -0.1384
  142MOL   H14028622   1.090   6.745   5.749 -0.7338 -1.4026 -0.1351
  142MOL   H14128623   0.951   6.633   5.793  1.2944 -0.9694  3.5502
  142MOL   O14228624   1.042   6.719   5.945  0.9789 -0.4183  0.0377
  142MOL   C14328625   1.169   6.660   5.966  0.4097  0.3503  0.4439
  142MOL   C14428626   1.223   6.672   6.113  0.1853 -0.2486 -0.6060
  142MOL   C14528627   1.375   6.702   6.121  0.1564 -0.0750  0.5391
  142MOL   H14628628   1.238   6.699   5.891 -0.0722 -1.6279 -1.0746
  142MOL   H14728629   1.141   6.559   5.935  2.9543  0.0052 -0.8380
  142MOL   H14828630   1.186   6.774   6.124 -2.4175 -1.2599  0.2277
  142MOL   H14928631   1.196   6.607   6.197  0.5325  0.0105 -0.2895
  142MOL   H15028632   1.409   6.769   6.042  1.1537 -0.0438  0.9880
  142MOL   H15128633   1.428   6.609   6.100 -1.6391 -1.0826  0.3625
  142MOL   O15228634   1.409   6.746   6.247 -0.1293  0.1998 -0.2419
  142MOL   C15328635   1.547   6.739   6.285  0.5128 -0.6145  0.3798
  142MOL   C15428636   1.594   6.594   6.308  0.1434 -0.1760  0.1668
  142MOL   C15528637   1.504   6.523   6.401  0.1618  0.6979 -0.1440
  142MOL   H15628638   1.549   6.788   6.382 -0.6191  0.4929 -0.1380
  142MOL   H15728639   1.610   6.787   6.210 -1.8131  2.0457  0.0491
  142MOL   H15828640   1.600   6.554   6.207 -4.8352  0.6378 -0.5613
  142MOL   H15928641   1.697   6.603   6.345  0.0034  1.1568  0.2321
  142MOL   H16028642   1.409   6.505   6.349 -0.8296 -1.3714  2.2676
  142MOL   H16128643   1.478   6.575   6.493  1.5918  0.6459  0.2936
  142MOL   O16228644   1.554   6.399   6.430  0.3378  0.5635 -0.0093
  142MOL   C16328645   1.476   6.327   6.523  0.0269 -0.2107  0.1202
  142MOL   C16428646   1.525   6.182   6.529  0.5808 -0.6191 -0.3863
  142MOL   C16528647   1.682   6.168   6.512  0.3535 -0.0324 -0.9000
  142MOL   H16628648   1.369   6.331   6.501  0.1502 -0.9256 -0.6264
  142MOL   H16728649   1.483   6.380   6.618 -0.1542  1.6752 -0.8978
  142MOL   H16828650   1.468   6.138   6.611 -1.3999 -2.6105 -2.7396
  142MOL   H16928651   1.491   6.122   6.444  1.0288 -2.1026  0.4768
  142MOL   H17028652   1.722   6.241   6.582 -0.4617 -0.1361 -0.3192
  142MOL   H17128653   1.716   6.205   6.416  0.1304 -0.9159 -1.3303
  142MOL   O17228654   1.731   6.036   6.533 -0.0780  0.2091  0.2275
  142MOL   C17328655   1.737   6.012   6.676  0.5602  0.6036  0.0705
  142MOL   C17428656   1.773   5.869   6.696  0.1501  0.5141  0.2195
  142MOL   C17528657   1.751   5.815   6.841 -0.0019 -0.1662  0.3700
  142MOL   H17628658   1.640   6.023   6.724  0.8893 -0.9359  1.1253
  142MOL   H17728659   1.807   6.082   6.722  0.2037  1.7050 -1.0127
  142MOL   H17828660   1.722   5.805   6.624  0.5512 -1.8288  1.9729
  142MOL   H17928661   1.879   5.861   6.671  0.0754 -1.3484  0.4544
  142MOL   H18028662   1.648   5.789   6.865 -0.4798  0.5412 -0.8934
  142MOL   H18128663   1.777   5.902   6.902  0.4213 -1.4530  2.0581
  142MOL   O18228664   1.843   5.710   6.872  0.2917 -0.2418 -0.2976
  142MOL   C18328665   1.811   5.626   6.987 -0.2695  0.1775  0.0858
  142MOL   C18428666   1.851   5.703   7.119 -0.4348 -0.8767 -0.2958
  142MOL   C18528667   1.867   5.613   7.244  0.5526 -0.4775  0.5459
  142MOL   H18628668   1.872   5.536   6.980  0.2542  0.4756  0.8609
  142MOL   H18728669   1.710   5.588   6.972 -0.2378  0.0865  0.0955
  142MOL   H18828670   1.948   5.751   7.106 -1.7000  1.8237 -0.0716
  142MOL   H18928671   1.789   5.788   7.148  0.9470 -0.5707  1.9507
  142MOL   H19028672   1.922   5.521   7.222  1.5337  0.4121 -0.8196
  142MOL   H19128673   1.766   5.589   7.278  0.0743 -1.4682 -1.4746
  142MOL   O19228674   1.939   5.662   7.346 -0.2363 -0.0049 -0.0592
  142MOL   C19328675   1.929   5.603   7.470  0.3429 -0.0841  0.4639
  142MOL   C19428676   2.008   5.686   7.575  0.0346 -0.7610  0.1682
  142MOL   C19528677   2.111   5.606   7.645 -0.4711 -0.2347  0.7239
  142MOL   H19628678   1.952   5.496   7.461  0.2000 -0.1440  0.8141
  142MOL   H19728679   1.826   5.585   7.500 -0.4002 -0.0478 -1.9147
  142MOL   H19828680   2.061   5.769   7.528 -0.6009 -0.3949  0.0886
  142MOL   H19928681   1.938   5.731   7.647  0.8802  0.0038  0.5244
  142MOL   H20028682   2.052   5.528   7.692 -1.7151 -1.0849 -2.1213
  142MOL   H20128683   2.174   5.655   7.720 -0.9183  2.4743 -0.5910
  142MOL   H20228684   2.182   5.570   7.571 -1.1913  0.2647 -0.2164
  143MOL     O128685   6.636   0.612   0.722 -0.2031  0.0739  0.5296
  143MOL     C228686   6.683   0.540   0.836  0.4275 -0.5913 -0.7506
  143MOL     C328687   6.771   0.419   0.795  0.6125  0.2130  1.3283
  143MOL     C428688   6.840   0.348   0.913 -0.1901  0.4148  0.4353
  143MOL     H528689   6.591   0.500   0.878  0.3147  0.5918  0.1602
  143MOL     H628690   6.743   0.597   0.907  0.6975 -1.1785 -0.5063
  143MOL     H728691   6.726   0.344   0.731 -0.0959  1.8663 -0.1479
  143MOL     H828692   6.838   0.458   0.719  2.0536 -1.4115  1.7299
  143MOL     H928693   6.768   0.332   0.994 -1.1244 -0.8031 -0.6088
  143MOL    H1028694   6.913   0.420   0.950  0.3147  1.2707 -2.1412
  143MOL    H1128695   6.578   0.548   0.681  1.5821 -1.6383  0.6070
  143MOL    O1228696   6.902   0.228   0.865 -0.0361 -0.2004 -0.2953
  143MOL    C1328697   7.035   0.251   0.812  0.8505  0.0853  0.6256
  143MOL    C1428698   7.105   0.120   0.777  0.4333  0.3548  0.0082
  143MOL    C1528699   7.070   0.058   0.642 -0.0022 -0.1002  0.1593
  143MOL    H1628700   7.094   0.305   0.886  0.4779  2.7041 -0.9473
  143MOL    H1728701   7.029   0.321   0.729 -0.9245  0.1994  0.8378
  143MOL    H1828702   7.214   0.131   0.774  0.6130 -1.4115 -0.5961
  143MOL    H1928703   7.090   0.050   0.859  0.5855 -1.5892 -1.5790
  143MOL    H2028704   7.084   0.128   0.559 -2.3478  0.4504  0.2119
  143MOL    H2128705   6.965   0.032   0.631  0.7823 -2.3724 -2.7552
  143MOL    O2228706   7.158   7.732   0.641 -0.2954 -0.3116 -0.0639
  143MOL    C2328707   7.136   7.636   0.536 -0.0041 -0.0319  0.4818
  143MOL    C2428708   7.168   7.690   0.401  0.4449 -0.2960  0.0405
  143MOL    C2528709   7.151   7.591   0.291 -0.2650  0.2385  0.0945
  143MOL    H2628710   7.035   7.596   0.534  0.1994 -0.5544  0.6099
  143MOL    H2728711   7.212   7.561   0.557  1.0694  1.0346  0.5241
  143MOL    H2828712   7.116   7.780   0.371  0.7070  0.0552  0.6252
  143MOL    H2928713   7.273   7.717   0.393  0.0735  0.9297 -0.9034
  143MOL    H3028714   7.047   7.557   0.291 -0.8937  2.0618 -1.3350
  143MOL    H3128715   7.219   7.507   0.301  2.1154  2.1250  0.0175
  143MOL    O3228716   7.181   7.635   0.163  0.1111 -0.2985  0.1793
  143MOL    C3328717   7.076   7.723   0.109  0.3644  0.2193 -0.4864
  143MOL    C3428718   7.133   7.788   7.771 -0.8581  0.1481  0.7532
  143MOL    C3528719   7.023   0.065   7.682 -0.2358 -0.3077  0.3829
  143MOL    H3628720   7.047   0.012   0.180  1.3316 -1.3415  1.6426
  143MOL    H3728721   6.987   7.669   0.079 -1.5462  1.6852  2.3216
  143MOL    H3828722   7.211   0.069   0.014  0.0302 -1.1639  1.4889
  143MOL    H3928723   7.187   7.722   7.703 -1.0221  1.4237 -0.6340
  143MOL    H4028724   6.940   7.784   7.668 -1.4606  0.7118  2.4535
  143MOL    H4128725   7.064   0.076   7.582  1.2790 -0.0706  1.0201
  143MOL    O4228726   6.980   0.182   7.751 -0.0422  0.1351  0.6002
  143MOL    C4328727   6.874   0.255   7.693  0.5546 -0.4507 -0.1773
  143MOL    C4428728   6.737   0.182   7.695  0.3162 -0.5795 -0.6248
  143MOL    C4528729   6.617   0.264   7.643  0.0237 -0.2912  0.4862
  143MOL    H4628730   6.897   0.285   7.591 -0.0108 -0.5771 -0.3475
  143MOL    H4728731   6.864   0.347   7.751 -0.4245 -2.1399  2.4449
  143MOL    H4828732   6.754   0.101   7.624 -2.7564 -0.2150 -1.8784
  143MOL    H4928733   6.713   0.144   0.005  0.6904 -1.5452 -0.9058
  143MOL    H5028734   6.536   0.239   7.713  1.0730 -1.4080  1.3309
  143MOL    H5128735   6.583   0.237   7.543  0.6829  0.8283 -0.0425
  143MOL    O5228736   6.641   0.400   7.655  0.1125  0.2225  0.8963
  143MOL    C5328737   6.601   0.458   7.776 -0.7756  0.0720 -0.6255
  143MOL    C5428738   6.634   0.606   7.779 -0.0379  0.1601  0.6232
  143MOL    C5528739   6.599   0.670   0.130  0.3664 -0.0599 -0.2398
  143MOL    H5628740   6.636   0.402   0.074 -1.7260  2.8132  1.5962
  143MOL    H5728741   6.492   0.460   7.780 -0.8418 -0.8259 -1.6177
  143MOL    H5828742   6.742   0.616   7.765  0.2670 -1.8485  1.3780
  143MOL    H5928743   6.589   0.661   7.697  2.9339  2.5267  0.5119
  143MOL    H6028744   6.654   0.631   0.215  0.5965 -1.2208 -0.9095
  143MOL    H6128745   6.498   0.642   0.161  1.2974 -0.1267  2.9254
  143MOL    O6228746   6.627   0.805   0.119 -0.6504 -0.1335 -0.2073
  143MOL    C6328747   6.582   0.875   0.233  0.6368 -0.0101 -0.0468
  143MOL    C6428748   6.619   1.029   0.227 -0.1289 -0.3664  0.3861
  143MOL    C6528749   6.543   1.117   0.120 -0.2351  0.2410  0.1468
  143MOL    H6628750   6.630   0.834   0.321  1.2994  1.2886  0.2177
  143MOL    H6728751   6.473   0.874   0.241  0.6362  0.2280 -0.0244
  143MOL    H6828752   6.609   1.075   0.325 -0.7684 -0.1673  0.2277
  143MOL    H6928753   6.727   1.031   0.211  0.2147 -2.3856  2.1875
  143MOL    H7028754   6.567   1.083   0.019  1.1449  0.9295  0.2365
  143MOL    H7128755   6.574   1.219   0.143  1.9928 -0.1414 -1.0417
  143MOL    O7228756   6.403   1.097   0.133  0.7593  0.0597 -0.8664
  143MOL    C7328757   6.324   1.165   0.044  0.1090  0.4215  0.0844
  143MOL    C7428758   6.185   1.157   0.106 -0.1439  0.0757  0.1162
  143MOL    C7528759   6.072   1.215   0.013  0.3683  0.4450  0.1281
  143MOL    H7628760   6.337   1.114   7.738 -0.4988 -0.1762  0.3223
  143MOL    H7728761   6.361   1.266   0.023  0.8992  0.3457  1.0431
  143MOL    H7828762   6.150   1.056   0.126  2.6870 -0.5411  2.2833
  143MOL    H7928763   6.184   1.204   0.205  1.0329  1.0458 -0.3144
  143MOL    H8028764   6.077   1.166   7.704  1.7637  0.6426  0.0866
  143MOL    H8128765   6.083   1.322   7.782  1.8179  0.5903  1.6708
  143MOL    O8228766   5.950   1.186   0.081  0.5697  0.6968 -0.4192
  143MOL    C8328767   5.840   1.234   0.009  0.2136 -0.4283  0.1879
  143MOL    C8428768   5.715   1.170   0.064 -0.5961 -0.1765  0.8640
  143MOL    C8528769   5.587   1.192   7.779  0.5568 -0.3008  0.2605
  143MOL    H8628770   5.844   1.185   7.700  1.9290 -2.1396  1.0954
  143MOL    H8728771   5.832   1.342   7.786  0.0415 -0.5225 -0.6025
  143MOL    H8828772   5.727   1.063   0.079  0.5279 -0.1897 -0.0872
  143MOL    H8928773   5.703   1.208   0.166  1.5308 -0.1357  1.1199
  143MOL    H9028774   5.594   1.157   7.676  3.5446 -2.1065  1.0174
  143MOL    H9128775   5.570   1.300   7.775  1.4107 -0.1523  0.5646
  143MOL    O9228776   5.481   1.131   0.063  0.4971 -0.0878  0.6289
  143MOL    C9328777   5.362   1.211   0.056 -0.0114 -0.4214  0.6877
  143MOL    C9428778   5.262   1.159   0.157  0.4237 -0.1524 -0.2723
  143MOL    C9528779   5.122   1.227   0.142  0.0964  0.0105  0.4085
  143MOL    H9628780   5.324   1.208   7.743 -2.3992 -0.7553  1.5516
  143MOL    H9728781   5.372   1.318   0.076 -3.0000  0.4705 -2.0664
  143MOL    H9828782   5.257   1.052   0.134  1.0300 -0.6351  1.7735
  143MOL    H9928783   5.304   1.173   0.256 -1.2905  2.0346  0.1805
  143MOL   H10028784   5.047   1.197   0.215 -0.4007  0.9013  0.2748
  143MOL   H10128785   5.078   1.201   0.046  0.2695  0.5174  0.1905
  143MOL   O10228786   5.135   1.368   0.150 -0.6266  1.0045  0.2594
  143MOL   C10328787   5.013   1.432   0.116  0.3972  0.2794  0.0082
  143MOL   C10428788   5.020   1.574   0.171 -0.4035 -0.1777 -0.0421
  143MOL   C10528789   5.050   1.571   0.326  0.0228  0.5349 -0.3905
  143MOL   H10628790   4.922   1.382   0.151 -0.0162  0.5201 -0.7065
  143MOL   H10728791   5.000   1.443   0.008 -1.7756 -0.7544  0.1256
  143MOL   H10828792   5.098   1.629   0.118 -0.3639  0.2873  0.4917
  143MOL   H10928793   4.923   1.619   0.149 -0.3182  0.1039  0.1515
  143MOL   H11028794   5.150   1.528   0.336  0.2284  0.7697 -1.4434
  143MOL   H11128795   4.988   1.490   0.367  0.3993  1.4348  2.0238
  143MOL   O11228796   5.038   1.696   0.390 -0.1983  0.8293  0.3542
  143MOL   C11328797   4.899   1.732   0.400  0.1345 -0.0634 -0.4593
  143MOL   C11428798   4.871   1.856   0.490  0.2834  0.2267  0.2268
  143MOL   C11528799   4.928   1.980   0.431 -0.0089  0.3750 -0.1182
  143MOL   H11628800   4.847   1.650   0.449 -0.6793  0.1845 -0.9013
  143MOL   H11728801   4.852   1.742   0.302  0.8656  1.4562 -0.6668
  143MOL   H11828802   4.767   1.846   0.520  0.3051 -0.2807  0.1400
  143MOL   H11928803   4.919   1.845   0.587 -0.8159 -0.9351  0.6541
  143MOL   H12028804   4.878   2.009   0.338  0.8445  0.9146 -0.4136
  143MOL   H12128805   5.034   1.963   0.410 -0.2569 -2.4157  0.6926
  143MOL   O12228806   4.896   2.085   0.530  0.4827 -0.1893 -0.4839
  143MOL   C12328807   4.972   2.205   0.495 -0.7888  0.0230  0.1956
  143MOL   C12428808   4.983   2.287   0.622  0.0834  0.0262  0.3592
  143MOL   C12528809   5.087   2.226   0.713  0.0826 -0.0647  0.6353
  143MOL   H12628810   4.912   2.260   0.422 -0.1792  0.6993  0.2037
  143MOL   H12728811   5.071   2.182   0.458 -0.8143 -0.9749  0.7285
  143MOL   H12828812   5.013   2.388   0.594 -0.7404 -0.4654 -2.4154
  143MOL   H12928813   4.885   2.295   0.669  0.6125  0.4268  1.4195
  143MOL   H13028814   5.185   2.220   0.665 -0.0787 -0.6910  0.3860
  143MOL   H13128815   5.055   2.129   0.749  1.2106 -0.9074 -0.5760
  143MOL   O13228816   5.108   2.305   0.828  0.1758  0.3130 -0.0530
  143MOL   C13328817   5.217   2.256   0.907  0.3351 -0.2996  0.2867
  143MOL   C13428818   5.267   2.362   1.003 -0.1508 -0.0078  0.0951
  143MOL   C13528819   5.347   2.475   0.940 -0.1282 -0.3115 -0.0027
  143MOL   H13628820   5.307   2.227   0.853  1.5104  2.3877  0.7239
  143MOL   H13728821   5.164   2.184   0.970  2.2699 -1.3897  0.6994
  143MOL   H13828822   5.186   2.411   1.058  0.6998  2.0173 -0.4311
  143MOL   H13928823   5.323   2.315   1.084 -0.6643 -1.3942 -0.3384
  143MOL   H14028824   5.283   2.539   0.879 -0.7619 -0.3423  0.6262
  143MOL   H14128825   5.428   2.433   0.880  0.9650 -0.2817  1.4475
  143MOL   O14228826   5.398   2.565   1.035 -0.2058 -0.5940 -0.1876
  143MOL   C14328827   5.488   2.516   1.134  0.3887  0.3783  0.7123
  143MOL   C14428828   5.572   2.623   1.192 -0.1890  0.2180  0.6320
  143MOL   C14528829   5.486   2.724   1.260  0.2425 -0.6435 -0.6998
  143MOL   H14628830   5.556   2.447   1.084  0.1946  0.4985  0.2768
  143MOL   H14728831   5.439   2.462   1.216  0.4000 -1.9907 -0.7800
  143MOL   H14828832   5.648   2.577   1.255  2.0585  1.1665 -1.3262
  143MOL   H14928833   5.636   2.667   1.116 -0.6213  0.2602  0.2883
  143MOL   H15028834   5.458   2.679   1.355  2.1937  3.0279  1.7001
  143MOL   H15128835   5.409   2.751   1.187 -0.5833  0.1891  0.4455
  143MOL   O15228836   5.565   2.834   1.290  0.0670 -0.3662 -0.4187
  143MOL   C15328837   5.490   2.940   1.357  0.3836 -0.0886 -0.9157
  143MOL   C15428838   5.584   3.022   1.438 -0.3220 -0.0305  0.6814
  143MOL   C15528839   5.532   3.156   1.490  0.1934 -0.8573 -0.2536
  143MOL   H15628840   5.413   2.908   1.428 -0.6941  2.3713 -0.9490
  143MOL   H15728841   5.431   3.005   1.292 -2.6009 -2.9916 -1.2427
  143MOL   H15828842   5.613   2.972   1.530 -0.8227  2.2138  2.1120
  143MOL   H15928843   5.663   3.038   1.365 -0.8616  2.1065  0.5127
  143MOL   H16028844   5.439   3.146   1.545 -0.2185 -1.0555 -0.9697
  143MOL   H16128845   5.517   3.221   1.403  0.0286 -0.3314  0.1656
  143MOL   O16228846   5.628   3.210   1.576 -0.6513 -0.3881 -0.6607
  143MOL   C16328847   5.586   3.336   1.621 -0.2068 -0.3508 -0.3075
  143MOL   C16428848   5.695   3.415   1.683 -0.7587 -0.2226  0.5835
  143MOL   C16528849   5.660   3.557   1.729 -0.8979 -0.9661  0.2105
  143MOL   H16628850   5.513   3.315   1.699  0.2229 -1.3798 -0.1757
  143MOL   H16728851   5.531   3.390   1.544  1.6313  2.1404  0.0706
  143MOL   H16828852   5.727   3.359   1.771 -0.2514 -1.0890 -0.1399
  143MOL   H16928853   5.779   3.418   1.614 -1.1816  2.6535  0.1355
  143MOL   H17028854   5.584   3.562   1.807 -2.2353  2.0605 -1.2092
  143MOL   H17128855   5.640   3.619   1.641 -2.1303 -0.7099  0.6622
  143MOL   O17228856   5.783   3.598   1.792  0.3893  0.9831  0.2651
  143MOL   C17328857   5.767   3.731   1.838  0.1066  0.4398 -0.3818
  143MOL   C17428858   5.888   3.751   1.921  0.6589  0.2195  0.2970
  143MOL   C17528859   5.912   3.897   1.963 -0.2292 -0.5079  0.0329
  143MOL   H17628860   5.679   3.744   1.901 -1.1835 -0.3313 -1.9915
  143MOL   H17728861   5.775   3.803   1.756  0.2797 -0.3922 -1.0951
  143MOL   H17828862   5.879   3.681   2.004 -0.3757  0.8402  0.7116
  143MOL   H17928863   5.981   3.725   1.870 -0.2389 -1.0681 -0.7003
  143MOL   H18028864   5.887   3.971   1.888 -1.0612  1.6394  2.3639
  143MOL   H18128865   6.013   3.920   1.995 -0.3984  2.3410 -1.3775
  143MOL   O18228866   5.818   3.923   2.063  0.0852 -0.0196 -0.5112
  143MOL   C18328867   5.847   4.040   2.132  0.1917  0.1652 -0.3688
  143MOL   C18428868   5.742   4.052   2.243 -0.8725 -1.1537  0.9305
  143MOL   C18528869   5.756   4.185   2.320  0.1421  0.1904  0.5783
  143MOL   H18628870   5.835   4.126   2.065  1.2198  2.3515  2.1682
  143MOL   H18728871   5.949   4.041   2.169  0.4170  1.8762 -1.0027
  143MOL   H18828872   5.647   4.045   2.192 -0.7202  1.3901  0.2328
  143MOL   H18928873   5.745   3.963   2.306  0.9143 -0.3578  2.0478
  143MOL   H19028874   5.764   4.260   2.241 -0.4909 -1.5373 -1.1683
  143MOL   H19128875   5.845   4.188   2.383 -0.0717 -0.2030  0.9015
  143MOL   O19228876   5.644   4.200   2.408  0.5026  0.3515 -0.2704
  143MOL   C19328877   5.617   4.327   2.461  0.2823  0.0414  0.2552
  143MOL   C19428878   5.487   4.322   2.541  0.0236  0.5907  0.5424
  143MOL   C19528879   5.369   4.299   2.450 -0.0509  0.1126 -0.5137
  143MOL   H19628880   5.598   4.380   2.368  2.5970  1.1441  0.3880
  143MOL   H19728881   5.702   4.376   2.507  0.8933 -1.0647  0.3140
  143MOL   H19828882   5.485   4.239   2.612 -0.7175 -1.2674 -1.5876
  143MOL   H19928883   5.470   4.418   2.588  2.3366  0.9578  0.7083
  143MOL   H20028884   5.293   4.258   2.517 -0.3110 -1.3530 -1.6635
  143MOL   H20128885   5.385   4.228   2.368 -0.4680 -0.2437 -0.2904
  143MOL   H20228886   5.327   4.388   2.405 -0.5086  0.6163  0.9031
  144MOL     O128887   3.460   4.856   0.397  0.2610  0.1771 -0.2330
  144MOL     C228888   3.348   4.809   0.327  0.0637 -0.6575  0.5764
  144MOL     C328889   3.384   4.674   0.261 -0.5917  0.5964  0.3560
  144MOL     C428890   3.270   4.612   0.181  0.0560 -0.1521  0.4640
  144MOL     H528891   3.334   4.875   0.241 -0.4430  0.9699  1.8871
  144MOL     H628892   3.254   4.810   0.383 -0.9522 -1.0738 -1.0845
  144MOL     H728893   3.474   4.687   0.201 -0.7039  0.6940  0.2110
  144MOL     H828894   3.397   4.597   0.338  0.7410 -0.5231 -0.9471
  144MOL     H928895   3.226   4.685   0.114  0.5283  0.6092  0.9706
  144MOL    H1028896   3.180   4.595   0.239 -1.1255 -0.5297 -1.4579
  144MOL    H1128897   3.455   4.946   0.426 -1.3480  0.0921 -0.2237
  144MOL    O1228898   3.296   4.494   0.107 -0.1350 -0.2714  0.5589
  144MOL    C1328899   3.349   4.371   0.176 -0.4195  0.1054 -0.1630
  144MOL    C1428900   3.368   4.260   0.081 -0.4774 -0.2187  0.4689
  144MOL    C1528901   3.413   4.129   0.151 -0.5306  0.4671 -0.1754
  144MOL    H1628902   3.285   4.345   0.260  2.0502 -0.3814  1.6107
  144MOL    H1728903   3.443   4.402   0.222 -0.9733 -0.3470  1.3006
  144MOL    H1828904   3.267   4.243   0.045 -0.1398 -1.0997 -0.0997
  144MOL    H1928905   3.435   4.282   7.785  1.6378 -0.6922  1.9726
  144MOL    H2028906   3.331   4.114   0.221  0.2334 -0.0893  0.5976
  144MOL    H2128907   3.506   4.157   0.200 -1.1114  0.4831  0.9362
  144MOL    O2228908   3.427   4.031   0.049  0.1453  0.6216  0.3943
  144MOL    C2328909   3.478   3.901   0.090  0.8884 -0.5254 -0.4743
  144MOL    C2428910   3.383   3.836   0.189  0.1065  0.5772  0.0581
  144MOL    C2528911   3.439   3.703   0.236  0.4063 -0.3645 -0.2196
  144MOL    H2628912   3.581   3.912   0.123  1.2405 -0.2522 -1.6509
  144MOL    H2728913   3.482   3.843   7.787  1.8957 -4.7940  2.1551
  144MOL    H2828914   3.376   3.887   0.286 -0.2317  0.0223  0.3242
  144MOL    H2928915   3.284   3.819   0.146 -0.2873  0.2635  1.0817
  144MOL    H3028916   3.536   3.719   0.283  0.2482  0.7017 -0.2406
  144MOL    H3128917   3.458   3.641   0.148 -1.3269  0.1216 -0.9646
  144MOL    O3228918   3.345   3.651   0.323  0.5908 -0.2172  0.3815
  144MOL    C3328919   3.375   3.519   0.358 -0.1413 -0.2091  0.6065
  144MOL    C3428920   3.276   3.463   0.461 -0.4195  0.5602 -0.4166
  144MOL    C3528921   3.264   3.557   0.587  0.3045  0.4415  0.5260
  144MOL    H3628922   3.460   3.517   0.427  0.5205 -1.4099 -0.2270
  144MOL    H3728923   3.393   3.452   0.275 -1.7391 -0.3045  0.3250
  144MOL    H3828924   3.173   3.453   0.425  0.1114  2.3803 -2.5943
  144MOL    H3928925   3.311   3.363   0.486 -1.9168  0.1630  0.1640
  144MOL    H4028926   3.199   3.641   0.563  0.2211  0.1958 -0.1401
  144MOL    H4128927   3.358   3.600   0.621  1.3683 -1.3074 -0.0872
  144MOL    O4228928   3.213   3.484   0.694  0.3959 -0.2397  0.0387
  144MOL    C4328929   3.074   3.482   0.696  0.1589  0.0360  0.5678
  144MOL    C4428930   3.008   3.394   0.793 -0.1071  0.3420  0.8648
  144MOL    C4528931   2.856   3.411   0.796 -0.4937 -0.6443 -0.2080
  144MOL    H4628932   3.048   3.459   0.593  1.8296 -0.7755  0.3016
  144MOL    H4728933   3.042   3.578   0.738 -1.0966 -0.4368  0.7124
  144MOL    H4828934   3.020   3.289   0.764 -2.8615 -0.1970  1.4959
  144MOL    H4928935   3.045   3.401   0.896 -0.1904 -1.2571  1.0139
  144MOL    H5028936   2.802   3.323   0.830  0.0374 -1.5906 -1.7493
  144MOL    H5128937   2.830   3.429   0.691 -1.1823 -0.1341  0.0544
  144MOL    O5228938   2.824   3.518   0.879  0.3003  0.0829  0.1880
  144MOL    C5328939   2.687   3.556   0.879 -0.0823  0.5720  1.1397
  144MOL    C5428940   2.659   3.685   0.789  0.3276 -0.0701  0.2964
  144MOL    C5528941   2.607   3.663   0.644  0.2500  0.5239  0.1492
  144MOL    H5628942   2.649   3.569   0.980  0.1610  2.1921  1.0235
  144MOL    H5728943   2.626   3.474   0.840  1.6701 -0.7998  1.2183
  144MOL    H5828944   2.578   3.741   0.836 -1.5745 -2.2504 -0.2708
  144MOL    H5928945   2.748   3.748   0.796  0.0709  0.0737  3.0167
  144MOL    H6028946   2.509   3.619   0.660  0.1613  0.7699  0.2735
  144MOL    H6128947   2.675   3.591   0.598  0.9860  0.6859  0.9867
  144MOL    O6228948   2.603   3.780   0.564  0.3576  0.0563  0.1789
  144MOL    C6328949   2.551   3.751   0.436  0.1665 -0.2996 -0.1196
  144MOL    C6428950   2.530   3.889   0.368 -0.4258  0.5721 -0.3917
  144MOL    C6528951   2.661   3.948   0.322 -0.0201  0.3644 -0.1405
  144MOL    H6628952   2.458   3.694   0.443 -0.1294  0.1624 -0.2923
  144MOL    H6728953   2.623   3.695   0.376 -0.0683  2.8101 -3.4841
  144MOL    H6828954   2.476   3.873   0.275 -1.2110 -0.5302  0.2455
  144MOL    H6928955   2.469   3.956   0.429  0.0571  1.0272 -0.4065
  144MOL    H7028956   2.681   3.886   0.234 -0.4511 -1.1744  0.8220
  144MOL    H7128957   2.726   3.946   0.408  1.2798  0.6427 -1.1001
  144MOL    O7228958   2.657   4.082   0.273 -0.1337 -0.0348 -0.2518
  144MOL    C7328959   2.633   4.191   0.365 -0.7121  0.6229  0.1852
  144MOL    C7428960   2.527   4.284   0.305  0.5687  0.0304  0.4332
  144MOL    C7528961   2.503   4.410   0.383  0.4882 -0.2425  0.7956
  144MOL    H7628962   2.729   4.239   0.384 -0.5764 -0.4915  2.4767
  144MOL    H7728963   2.595   4.152   0.459 -1.1191 -2.8517 -1.3531
  144MOL    H7828964   2.564   4.312   0.206 -0.7190 -1.3359 -0.4653
  144MOL    H7928965   2.436   4.231   0.278 -0.2717  1.5174  0.2600
  144MOL    H8028966   2.592   4.471   0.375  0.8593 -1.0117 -1.2666
  144MOL    H8128967   2.449   4.394   0.476 -2.6792  0.4633 -0.8451
  144MOL    O8228968   2.401   4.488   0.315  0.3890  0.3166 -0.6509
  144MOL    C8328969   2.392   4.618   0.362  0.1809 -0.1964 -0.2985
  144MOL    C8428970   2.333   4.633   0.506  0.0706 -0.1708  0.6535
  144MOL    C8528971   2.449   4.650   0.604  0.4919 -0.2052 -0.0353
  144MOL    H8628972   2.319   4.665   0.296 -1.0528 -0.2499  1.0009
  144MOL    H8728973   2.478   4.682   0.342 -0.6973  1.3796  0.8379
  144MOL    H8828974   2.258   4.711   0.521  1.3758  0.8820  1.8942
  144MOL    H8928975   2.270   4.548   0.530  0.7757 -0.8786  0.0283
  144MOL    H9028976   2.483   4.752   0.617  2.2411 -0.8112  0.1794
  144MOL    H9128977   2.533   4.586   0.576 -0.2158 -1.3087  0.2965
  144MOL    O9228978   2.395   4.609   0.730 -0.6509  0.7818  0.1162
  144MOL    C9328979   2.478   4.608   0.843  0.8054  0.3786 -1.0547
  144MOL    C9428980   2.425   4.514   0.947  0.9086  0.5179  0.4307
  144MOL    C9528981   2.293   4.566   1.018  0.2316 -0.1925  0.7102
  144MOL    H9628982   2.482   4.706   0.890  1.7860 -0.2808  0.2795
  144MOL    H9728983   2.582   4.582   0.822  1.0817  2.0256 -1.7505
  144MOL    H9828984   2.403   4.414   0.909  0.9720  0.5311  0.3590
  144MOL    H9928985   2.503   4.491   1.019  2.9903 -0.8549 -2.1541
  144MOL   H10028986   2.217   4.604   0.949  0.2431  3.3628  2.5808
  144MOL   H10128987   2.306   4.645   1.091 -0.1584  1.0437 -0.5236
  144MOL   O10228988   2.244   4.456   1.093 -0.1892  0.0654  0.5343
  144MOL   C10328989   2.114   4.484   1.143  0.2256 -0.2297 -0.4081
  144MOL   C10428990   2.087   4.366   1.243 -0.3849 -0.1638 -0.4529
  144MOL   C10528991   1.950   4.353   1.313  0.8765 -0.4510 -0.2958
  144MOL   H10628992   2.043   4.489   1.060 -0.4765  0.0477  0.2054
  144MOL   H10728993   2.103   4.565   1.214 -1.8891 -0.6224 -0.2487
  144MOL   H10828994   2.117   4.275   1.192  0.8461 -0.6519  1.1025
  144MOL   H10928995   2.158   4.363   1.326 -0.4578 -0.8422 -0.4102
  144MOL   H11028996   1.953   4.252   1.354  0.0026 -0.3865 -0.0789
  144MOL   H11128997   1.876   4.357   1.233 -0.3767  1.0686  0.9152
  144MOL   O11228998   1.927   4.463   1.411  0.0176  0.2949 -0.2156
  144MOL   C11328999   1.792   4.467   1.469  0.0077 -0.6470  0.6272
  144MOL   C11429000   1.771   4.582   1.574  0.4545  0.4586  0.4486
  144MOL   C11529001   1.637   4.593   1.639 -0.2928 -0.6853  1.0131
  144MOL   H11629002   1.797   4.376   1.529 -2.8148 -0.8717  0.6042
  144MOL   H11729003   1.727   4.460   1.382  1.3227  1.7829 -0.5954
  144MOL   H11829004   1.860   4.585   1.637  0.7858  0.1939 -0.0042
  144MOL   H11929005   1.773   4.673   1.513 -1.7109  0.5183  0.4354
  144MOL   H12029006   1.619   4.516   1.715 -0.7887  0.6503  2.2602
  144MOL   H12129007   1.564   4.577   1.559 -1.0573 -1.5521  1.8585
  144MOL   O12229008   1.633   4.720   1.693 -0.0585 -0.5468 -0.0550
  144MOL   C12329009   1.502   4.766   1.728 -0.4031 -0.0521  0.3939
  144MOL   C12429010   1.524   4.911   1.765 -0.0467 -0.2055 -0.2735
  144MOL   C12529011   1.564   4.997   1.641 -0.1858  0.3094  0.3920
  144MOL   H12629012   1.465   4.719   1.819 -2.8230  0.5346 -0.2348
  144MOL   H12729013   1.423   4.750   1.654  0.9010 -1.8320 -0.6645
  144MOL   H12829014   1.429   4.946   1.804 -0.6067 -0.9329 -0.9902
  144MOL   H12929015   1.590   4.924   1.851  0.3989 -1.0924 -0.4758
  144MOL   H13029016   1.497   4.972   1.559 -1.6004 -1.7411  2.1190
  144MOL   H13129017   1.667   4.967   1.621 -0.6486  0.1414 -1.8531
  144MOL   O13229018   1.548   5.137   1.666 -0.7680 -0.4406  0.2404
  144MOL   C13329019   1.665   5.216   1.696  0.3130  0.3324  0.6394
  144MOL   C13429020   1.645   5.359   1.625 -0.0383 -0.3193  0.0656
  144MOL   C13529021   1.765   5.450   1.638  0.2638  0.1172 -0.5791
  144MOL   H13629022   1.753   5.171   1.651  0.8374 -1.1444  3.0342
  144MOL   H13729023   1.675   5.225   1.804 -0.2426  0.8152  0.6523
  144MOL   H13829024   1.627   5.338   1.519 -0.5415 -1.1665  0.3117
  144MOL   H13929025   1.563   5.418   1.666 -0.5205 -0.3002 -0.9044
  144MOL   H14029026   1.797   5.463   1.741 -2.4308 -2.4983  0.6468
  144MOL   H14129027   1.737   5.548   1.598  0.0014 -0.2885 -1.4075
  144MOL   O14229028   1.867   5.390   1.566 -0.5074 -0.1660  0.3627
  144MOL   C14329029   1.961   5.473   1.512  0.2494 -0.2703 -0.5891
  144MOL   C14429030   2.044   5.395   1.415  1.3821  0.8174 -0.3511
  144MOL   C14529031   2.145   5.482   1.348 -0.1611  0.1545 -0.2254
  144MOL   H14629032   2.021   5.528   1.585  1.4780 -2.0182 -0.2419
  144MOL   H14729033   1.917   5.552   1.451  2.6825 -0.3853 -2.5608
  144MOL   H14829034   2.095   5.305   1.450  0.2592 -0.4320 -1.8437
  144MOL   H14929035   1.990   5.347   1.333  2.2516 -1.9467  0.6486
  144MOL   H15029036   2.205   5.534   1.422  1.7018 -0.2755 -1.3931
  144MOL   H15129037   2.104   5.559   1.282  0.2042  1.2480  0.8140
  144MOL   O15229038   2.233   5.412   1.270  0.0098 -0.0407  0.4012
  144MOL   C15329039   2.337   5.489   1.208  0.1938  0.1360 -0.0965
  144MOL   C15429040   2.443   5.403   1.141  0.1834  0.3887  0.1722
  144MOL   C15529041   2.546   5.494   1.076 -0.1958 -0.1813 -0.3985
  144MOL   H15629042   2.380   5.556   1.283  1.5030  1.0490 -1.6156
  144MOL   H15729043   2.293   5.575   1.156 -1.3619 -0.2159  0.6043
  144MOL   H15829044   2.485   5.342   1.221 -0.2127  0.4780  0.4548
  144MOL   H15929045   2.394   5.341   1.066  1.4381  1.0405 -1.1930
  144MOL   H16029046   2.510   5.549   0.989  1.3555  0.7708 -0.4640
  144MOL   H16129047   2.627   5.427   1.046  1.5114  1.2175  0.9816
  144MOL   O16229048   2.609   5.584   1.169  0.3224 -0.1017 -0.2419
  144MOL   C16329049   2.686   5.698   1.108 -0.6361  0.5000 -0.0687
  144MOL   C16429050   2.599   5.802   1.036 -0.0172  0.1179 -0.0927
  144MOL   C16529051   2.534   5.912   1.130 -0.2568  0.1518 -0.3013
  144MOL   H16629052   2.749   5.647   1.035 -1.1327  0.8922 -0.7806
  144MOL   H16729053   2.752   5.741   1.183 -0.3669 -1.1404  0.6764
  144MOL   H16829054   2.669   5.851   0.967 -0.0364  1.1278  0.5987
  144MOL   H16929055   2.522   5.754   0.976  0.9771  0.2326 -1.5063
  144MOL   H17029056   2.607   5.938   1.207  1.0671  0.8390 -1.7810
  144MOL   H17129057   2.447   5.866   1.178 -2.3633  1.2079 -2.9721
  144MOL   O17229058   2.474   6.022   1.063  0.3861  0.2381  0.3294
  144MOL   C17329059   2.571   6.117   1.023 -0.0712 -0.1973 -0.1005
  144MOL   C17429060   2.503   6.219   0.935 -0.5507 -0.8108  0.3367
  144MOL   C17529061   2.596   6.339   0.890  0.4702 -0.4832 -0.0713
  144MOL   H17629062   2.658   6.075   0.973 -0.3111  0.6457 -1.2383
  144MOL   H17729063   2.611   6.177   1.106 -0.7399  1.0224 -0.6486
  144MOL   H17829064   2.475   6.162   0.846 -1.2156  0.4662 -0.2976
  144MOL   H17929065   2.411   6.253   0.983 -1.4512 -1.2152 -1.0459
  144MOL   H18029066   2.531   6.401   0.828  1.3837 -0.2434 -0.7869
  144MOL   H18129067   2.682   6.300   0.835  0.7904 -0.2353  0.2540
  144MOL   O18229068   2.632   6.415   1.008  0.2881 -0.2030  0.1567
  144MOL   C18329069   2.745   6.499   0.983 -0.5254 -0.1956 -0.2016
  144MOL   C18429070   2.775   6.559   1.117 -0.1545 -0.2800  0.0694
  144MOL   C18529071   2.886   6.658   1.105  0.3629 -0.9605 -1.3725
  144MOL   H18629072   2.720   6.576   0.909  1.7993 -2.2129 -3.2032
  144MOL   H18729073   2.828   6.444   0.938  0.0311 -0.7525  1.4882
  144MOL   H18829074   2.691   6.606   1.169  0.4271 -0.5560  1.2983
  144MOL   H18929075   2.816   6.487   1.188  2.4505 -2.0311 -3.0923
  144MOL   H19029076   2.851   6.750   1.057  0.8153 -1.2988 -2.3671
  144MOL   H19129077   2.968   6.619   1.045 -0.5949  1.6420 -4.5180
  144MOL   O19229078   2.927   6.693   1.241 -0.6613  0.2111 -0.8520
  144MOL   C19329079   3.021   6.795   1.237 -0.1854 -0.1492  0.0440
  144MOL   C19429080   3.078   6.827   1.374 -0.2496  0.1891 -0.1013
  144MOL   C19529081   3.146   6.963   1.380 -0.2784  0.4253  0.4128
  144MOL   H19629082   2.961   6.882   1.208  0.1762  1.6014  4.1735
  144MOL   H19729083   3.096   6.761   1.165 -1.0770  0.6177 -1.2703
  144MOL   H19829084   2.993   6.817   1.441 -1.6755  0.7537 -1.7783
  144MOL   H19929085   3.153   6.755   1.406  0.2839  0.2428 -1.2108
  144MOL   H20029086   3.206   6.977   1.470  0.6085  0.8159 -0.2383
  144MOL   H20129087   3.080   7.048   1.364 -2.3432 -0.9668  1.3382
  144MOL   H20229088   3.221   6.967   1.301  1.6953 -2.1024  2.0771
  145MOL     O129089   3.637   0.505   6.763  0.3191  0.1822 -0.3727
  145MOL     C229090   3.534   0.567   6.836 -0.0767  0.2755 -0.2365
  145MOL     C329091   3.576   0.630   6.972  0.6921  0.2358 -0.2386
  145MOL     C429092   3.448   0.675   7.043 -0.0210  0.0335  0.5728
  145MOL     H529093   3.453   0.494   6.834  1.7027 -1.9030  3.1874
  145MOL     H629094   3.492   0.644   6.771  0.1972 -0.7516 -1.6780
  145MOL     H729095   3.631   0.548   7.018 -0.5732 -0.8005 -0.5429
  145MOL     H829096   3.649   0.709   6.958  2.4409 -1.5967 -1.7216
  145MOL     H929097   3.471   0.707   7.144 -1.0763  0.1891  0.7754
  145MOL    H1029098   3.368   0.601   7.043 -2.8020  2.8085 -2.9026
  145MOL    H1129099   3.584   0.487   6.686 -0.3003  2.9220 -0.6639
  145MOL    O1229100   3.403   0.785   6.960 -0.2099  0.1206 -0.3081
  145MOL    C1329101   3.288   0.858   7.000  0.4497 -0.2466 -0.4478
  145MOL    C1429102   3.270   0.969   6.899 -0.3191 -0.4375  0.5254
  145MOL    C1529103   3.135   1.041   6.921  0.6227  0.5703 -0.3952
  145MOL    H1629104   3.304   0.900   7.099 -0.8033 -0.4193 -0.1701
  145MOL    H1729105   3.208   0.784   6.993 -1.2957  1.5585 -0.2664
  145MOL    H1829106   3.344   1.050   6.897 -0.0255 -0.6536  2.0980
  145MOL    H1929107   3.253   0.930   6.799  0.8726  0.7392 -0.1611
  145MOL    H2029108   3.126   1.091   7.017 -1.5755  0.0950 -0.3329
  145MOL    H2129109   3.064   0.958   6.913  0.3942  0.7184  0.1318
  145MOL    O2229110   3.110   1.133   6.812  0.1466  0.0118 -1.0157
  145MOL    C2329111   2.980   1.188   6.826 -0.9757 -0.2490  0.1459
  145MOL    C2429112   2.953   1.275   6.708 -0.1352 -0.5634  0.0700
  145MOL    C2529113   2.807   1.310   6.673  0.1590  0.4818 -0.0509
  145MOL    H2629114   2.962   1.237   6.922 -0.8924  1.2149 -0.5641
  145MOL    H2729115   2.906   1.109   6.818  0.7880 -2.0142  1.1229
  145MOL    H2829116   3.016   1.362   6.723 -0.0120 -0.6398 -0.0021
  145MOL    H2929117   2.992   1.222   6.620 -0.0702 -0.8440  0.2681
  145MOL    H3029118   2.766   1.356   6.763  0.6690  0.9276 -0.0480
  145MOL    H3129119   2.743   1.222   6.666  0.6882  0.2770 -2.8804
  145MOL    O3229120   2.787   1.400   6.570 -0.2605 -0.6937 -0.3550
  145MOL    C3329121   2.654   1.448   6.575  0.1214  0.2576  0.7380
  145MOL    C3429122   2.617   1.527   6.450  0.2788  0.0548  0.7027
  145MOL    C3529123   2.471   1.581   6.439 -0.0341  0.2421 -0.1910
  145MOL    H3629124   2.652   1.505   6.668  1.6826  1.6930 -0.0734
  145MOL    H3729125   2.589   1.361   6.582  2.1595 -1.3622 -0.0581
  145MOL    H3829126   2.679   1.615   6.465 -1.6080  1.3291  1.2121
  145MOL    H3929127   2.647   1.471   6.362  1.5147  2.0904 -0.2040
  145MOL    H4029128   2.398   1.501   6.424  0.6599 -0.4657  0.1533
  145MOL    H4129129   2.471   1.639   6.347 -2.4016 -1.7617 -1.5199
  145MOL    O4229130   2.429   1.660   6.551  0.5825 -0.7642  0.1571
  145MOL    C4329131   2.291   1.701   6.553  0.1888  1.0665  0.0101
  145MOL    C4429132   2.236   1.699   6.704  0.1215  0.1100 -0.3533
  145MOL    C4529133   2.315   1.792   6.800 -0.9338  0.1158  0.5934
  145MOL    H4629134   2.232   1.631   6.494 -1.2957  1.2056  1.2912
  145MOL    H4729135   2.291   1.800   6.507  1.9939  1.8711  1.6298
  145MOL    H4829136   2.132   1.731   6.715  0.9364  2.1970  1.7701
  145MOL    H4929137   2.235   1.599   6.748  0.5894  1.2860  2.4231
  145MOL    H5029138   2.306   1.889   6.750  0.9749  1.3029  2.4396
  145MOL    H5129139   2.415   1.750   6.807 -1.0654 -0.1346  0.9550
  145MOL    O5229140   2.239   1.794   6.920  0.3969  0.1000  0.1808
  145MOL    C5329141   2.326   1.819   7.031  0.3663  0.1133 -0.0544
  145MOL    C5429142   2.245   1.848   7.154  0.2481 -0.0110  0.2354
  145MOL    C5529143   2.317   1.939   7.253  0.1835  0.3764 -0.0616
  145MOL    H5629144   2.390   1.905   7.011 -3.2165  2.7930 -0.6683
  145MOL    H5729145   2.386   1.729   7.039 -1.4660 -1.0525  0.7955
  145MOL    H5829146   2.163   1.906   7.111  0.7820  0.7329  0.2179
  145MOL    H5929147   2.199   1.766   7.210  1.0484  0.8792  2.2028
  145MOL    H6029148   2.248   1.975   7.330 -0.8543 -2.0492  0.1667
  145MOL    H6129149   2.372   2.028   7.221  1.0601 -0.5851 -1.2643
  145MOL    O6229150   2.426   1.869   7.311 -0.1372  0.4310 -0.1564
  145MOL    C6329151   2.448   1.901   7.442  0.0692 -0.1892  0.3959
  145MOL    C6429152   2.586   1.839   7.486  0.5676  0.2315 -0.1600
  145MOL    C6529153   2.635   1.891   7.618  0.4584  0.3735 -0.8702
  145MOL    H6629154   2.367   1.872   7.508  0.2610 -3.1371 -0.6136
  145MOL    H6729155   2.459   2.010   7.448 -0.5055 -0.1578  0.9125
  145MOL    H6829156   2.569   1.733   7.506 -2.0283  0.9020  1.4952
  145MOL    H6929157   2.668   1.841   7.414  0.0641  2.3698 -0.7076
  145MOL    H7029158   2.562   1.883   7.699  0.5450  0.4308 -0.7857
  145MOL    H7129159   2.649   1.999   7.608  0.8223  0.7038  2.7160
  145MOL    O7229160   2.758   1.833   7.656  0.0433 -0.7823  0.0861
  145MOL    C7329161   2.819   1.892   7.768  0.2412  0.5782  0.1558
  145MOL    C7429162   2.928   1.804   0.043  0.4308 -0.2544 -0.4481
  145MOL    C7529163   2.875   1.692   0.118 -0.0416  0.5949  0.5225
  145MOL    H7629164   2.735   1.911   0.046 -0.3546 -0.1333 -0.3759
  145MOL    H7729165   2.849   1.992   7.737  2.8601 -0.7456 -1.8758
  145MOL    H7829166   3.004   1.779   7.757  0.0676  2.4067 -1.7741
  145MOL    H7929167   2.979   1.867   0.115  0.0337 -3.4947  2.7946
  145MOL    H8029168   2.835   1.628   0.040 -1.5587  1.9801  0.1257
  145MOL    H8129169   2.800   1.726   0.189  0.4737  1.2158  0.7750
  145MOL    O8229170   2.991   1.634   0.180 -0.4586 -0.3544 -0.2864
  145MOL    C8329171   2.959   1.532   0.268  0.1275 -1.0768  0.1771
  145MOL    C8429172   3.075   1.530   0.372  0.1939 -0.5543  0.3942
  145MOL    C8529173   3.070   1.405   0.459 -0.3723  0.2652  0.0725
  145MOL    H8629174   2.948   1.437   0.216  1.1154 -3.1633  3.5821
  145MOL    H8729175   2.868   1.553   0.325  0.7787  1.1687  0.4618
  145MOL    H8829176   3.172   1.545   0.324  1.1986 -0.2257  2.4848
  145MOL    H8929177   3.056   1.620   0.430 -2.3485 -2.8317  3.2174
  145MOL    H9029178   3.062   1.312   0.402  2.5032 -0.9866  1.5770
  145MOL    H9129179   2.990   1.405   0.534  0.4492  2.1023  0.9776
  145MOL    O9229180   3.195   1.418   0.528  0.1948  0.1278 -0.0086
  145MOL    C9329181   3.209   1.325   0.640 -0.2420 -0.5329 -0.0738
  145MOL    C9429182   3.346   1.338   0.709 -0.1792 -0.0090  0.4552
  145MOL    C9529183   3.374   1.213   0.799 -0.8474 -0.4629 -0.3617
  145MOL    H9629184   3.212   1.221   0.606  1.2454 -0.8842  1.1036
  145MOL    H9729185   3.121   1.331   0.703 -0.1025 -1.6849  0.2352
  145MOL    H9829186   3.425   1.338   0.634  0.5558 -0.6482  1.2184
  145MOL    H9929187   3.373   1.424   0.770  0.4823 -0.8984  1.4494
  145MOL   H10029188   3.448   1.232   0.876 -1.1143 -2.1635  0.3491
  145MOL   H10129189   3.408   1.137   0.728 -0.9272  0.0802 -0.9920
  145MOL   O10229190   3.247   1.189   0.868  0.4886 -0.2474 -0.4553
  145MOL   C10329191   3.215   1.052   0.876 -0.5058 -0.0466  0.1461
  145MOL   C10429192   3.096   1.034   0.972 -0.3163 -0.2819  0.1683
  145MOL   C10529193   3.026   0.894   0.970  0.3767  0.2740  0.0594
  145MOL   H10629194   3.297   0.988   0.910 -1.9548 -1.6385  0.7213
  145MOL   H10729195   3.189   1.026   0.774  0.0661  0.1709 -0.0520
  145MOL   H10829196   3.126   1.043   1.077  1.6755  0.5255 -0.4662
  145MOL   H10929197   3.026   1.112   0.944  2.3534  2.3488  0.6331
  145MOL   H11029198   3.101   0.816   0.956  0.4024  0.6352 -2.0264
  145MOL   H11129199   2.974   0.883   0.874  0.9258  1.6456 -0.3982
  145MOL   O11229200   2.950   0.885   1.081 -0.3762  0.3007  0.0747
  145MOL   C11329201   2.810   0.928   1.068  0.8799  0.2882 -0.1308
  145MOL   C11429202   2.730   0.890   1.193  0.3179  0.5276 -0.2047
  145MOL   C11529203   2.590   0.960   1.193  0.0542  0.1094 -0.1596
  145MOL   H11629204   2.771   0.869   0.986 -0.0675 -0.4379  0.8387
  145MOL   H11729205   2.800   1.034   1.044  1.7252  0.1392 -1.2022
  145MOL   H11829206   2.716   0.782   1.204 -0.5750  0.8466  2.2996
  145MOL   H11929207   2.792   0.927   1.275 -1.0164  0.5933  0.7841
  145MOL   H12029208   2.606   1.066   1.216 -2.3932  0.0303  2.0457
  145MOL   H12129209   2.534   0.915   1.275  0.9897 -1.3843 -0.3216
  145MOL   O12229210   2.519   0.928   1.078  0.6665  0.2170  0.1731
  145MOL   C12329211   2.393   0.996   1.093  1.0853 -0.1034 -0.1763
  145MOL   C12429212   2.309   0.980   0.974 -0.4311  0.2035  0.2672
  145MOL   C12529213   2.295   0.838   0.924  0.5167  0.6696  0.4144
  145MOL   H12629214   2.398   1.100   1.126 -2.2939 -0.3739  1.3996
  145MOL   H12729215   2.345   0.940   1.172 -1.4461  1.0732 -0.8385
  145MOL   H12829216   2.209   1.021   0.987 -0.9740 -1.4073  1.4304
  145MOL   H12929217   2.360   1.053   0.912 -0.7312  0.9658  0.9089
  145MOL   H13029218   2.249   0.784   1.007 -1.5738 -0.1613 -1.2151
  145MOL   H13129219   2.389   0.801   0.884 -0.7042 -1.9495 -0.1189
  145MOL   O13229220   2.210   0.849   0.805 -0.7463 -0.2888 -0.0503
  145MOL   C13329221   2.148   0.730   0.768 -0.3759  0.2571 -0.1842
  145MOL   C13429222   2.063   0.763   0.645  0.0596 -0.2072 -0.5028
  145MOL   C13529223   1.970   0.880   0.662  0.3676 -0.6656 -0.8479
  145MOL   H13629224   2.089   0.711   0.858 -1.0850  2.5058 -0.1379
  145MOL   H13729225   2.219   0.649   0.755  1.1051  1.3848  0.6698
  145MOL   H13829226   2.136   0.772   0.565  0.6506 -0.4727  0.0083
  145MOL   H13929227   2.006   0.672   0.626 -0.3115 -0.3409  1.1987
  145MOL   H14029228   2.008   0.976   0.625 -0.8020 -0.8316 -2.5282
  145MOL   H14129229   1.951   0.902   0.767 -0.7635  2.7279 -1.6912
  145MOL   O14229230   1.842   0.845   0.614 -0.2127  0.8362  0.1539
  145MOL   C14329231   1.767   0.960   0.580  0.0286 -0.2056  0.6897
  145MOL   C14429232   1.698   1.006   0.711 -0.1834 -0.3058 -0.1796
  145MOL   C14529233   1.574   1.097   0.690 -0.2755  0.2538  0.6937
  145MOL   H14629234   1.694   0.919   0.510  0.9122 -1.5912  0.5815
  145MOL   H14729235   1.826   1.031   0.521  1.5924 -1.4797  0.7074
  145MOL   H14829236   1.659   0.915   0.756  0.3166  0.0888  1.0591
  145MOL   H14929237   1.775   1.053   0.771  1.4065 -1.6406 -1.1359
  145MOL   H15029238   1.515   1.100   0.782 -0.4820 -0.1814  0.5759
  145MOL   H15129239   1.514   1.051   0.612 -1.3245  0.1816  1.5297
  145MOL   O15229240   1.616   1.226   0.652  0.4794 -0.2768 -0.3516
  145MOL   C15329241   1.517   1.313   0.592 -0.8244  0.7344 -0.0516
  145MOL   C15429242   1.565   1.463   0.612 -0.1980  0.0997 -0.3625
  145MOL   C15529243   1.678   1.497   0.521  0.5804  0.1373  0.1454
  145MOL   H15629244   1.429   1.288   0.651 -0.2343  0.1573  0.6010
  145MOL   H15729245   1.512   1.283   0.488  0.3405  1.5345 -0.3482
  145MOL   H15829246   1.483   1.530   0.587 -1.0859 -0.3197  1.2967
  145MOL   H15929247   1.589   1.487   0.716 -0.0955 -1.2754 -0.0566
  145MOL   H16029248   1.631   1.507   0.423  0.8965 -0.2072 -0.0389
  145MOL   H16129249   1.754   1.419   0.524  1.3499  0.8423 -0.5784
  145MOL   O16229250   1.741   1.619   0.565 -0.7362  0.4280 -0.7487
  145MOL   C16329251   1.860   1.645   0.499  0.3835  0.1939  0.2781
  145MOL   C16429252   1.934   1.765   0.547 -0.3140 -0.9074  0.3374
  145MOL   C16529253   2.088   1.751   0.522  0.1877 -0.4168  0.1836
  145MOL   H16629254   1.838   1.647   0.392 -1.5012 -0.8663  0.6047
  145MOL   H16729255   1.921   1.556   0.516  1.4984  0.9989  0.4954
  145MOL   H16829256   1.888   1.851   0.498  2.6801  1.3084  1.2687
  145MOL   H16929257   1.909   1.785   0.652  0.0516 -0.5530  0.3579
  145MOL   H17029258   2.135   1.846   0.546 -2.0871  0.7867 -0.0143
  145MOL   H17129259   2.094   1.727   0.416 -0.8810  1.8170 -0.4086
  145MOL   O17229260   2.131   1.647   0.599  0.1693  0.4271 -0.4087
  145MOL   C17329261   2.174   1.682   0.731  0.0762 -0.1347  0.1567
  145MOL   C17429262   2.235   1.563   0.795  0.0554  0.5222 -0.4274
  145MOL   C17529263   2.297   1.596   0.931 -0.1336 -0.3282  0.0427
  145MOL   H17629264   2.088   1.727   0.781  0.3073  1.4989 -0.8952
  145MOL   H17729265   2.249   1.760   0.723 -0.1981  0.0425 -0.7900
  145MOL   H17829266   2.162   1.482   0.793 -1.4414  1.7852  1.6317
  145MOL   H17929267   2.310   1.519   0.730 -0.9719 -3.2166  0.8091
  145MOL   H18029268   2.225   1.626   1.006  1.1587  0.4639  0.9860
  145MOL   H18129269   2.360   1.685   0.919 -0.6580  0.1249  0.6710
  145MOL   O18229270   2.361   1.485   0.986 -0.2021  0.1878  0.1311
  145MOL   C18329271   2.426   1.533   1.107  0.2400 -0.7998 -0.1524
  145MOL   C18429272   2.496   1.410   1.167 -0.2897  0.4006 -0.8513
  145MOL   C18529273   2.511   1.407   1.321 -0.0095  0.5165 -0.2117
  145MOL   H18629274   2.353   1.571   1.179 -0.9734  0.6488 -2.0808
  145MOL   H18729275   2.489   1.619   1.080 -2.6548  1.1101 -1.1587
  145MOL   H18829276   2.448   1.317   1.135  0.5741 -1.1209  2.1412
  145MOL   H18929277   2.591   1.409   1.113 -0.9818  0.9365 -2.1060
  145MOL   H19029278   2.419   1.436   1.372  0.4578  0.9417  0.3901
  145MOL   H19129279   2.591   1.478   1.341  0.0465 -0.4479  3.2916
  145MOL   O19229280   2.565   1.286   1.365  0.1468 -0.5235 -0.0732
  145MOL   C19329281   2.617   1.282   1.490  0.2734 -0.2354 -0.2190
  145MOL   C19429282   2.654   1.138   1.528 -0.1337 -0.0336  0.4073
  145MOL   C19529283   2.711   1.133   1.673 -0.5507 -0.5571  0.1353
  145MOL   H19629284   2.548   1.328   1.561 -0.2152 -2.4221  0.7533
  145MOL   H19729285   2.698   1.355   1.477  0.9029 -0.8604  0.1530
  145MOL   H19829286   2.563   1.078   1.523  0.2520 -0.6152  0.3015
  145MOL   H19929287   2.722   1.093   1.456 -0.3440  0.4080 -0.0653
  145MOL   H20029288   2.737   1.029   1.694  0.0645 -0.1741  1.3119
  145MOL   H20129289   2.647   1.174   1.751  0.4625 -0.4447  0.9265
  145MOL   H20229290   2.808   1.177   1.697  0.1386  0.3728 -4.0723
  146MOL     O129291   7.559   2.056   4.989  0.5012  0.0471 -0.0174
  146MOL     C229292   7.548   2.092   5.126 -0.9899  0.3964 -0.2840
  146MOL     C329293   7.675   2.151   5.188  0.1014 -0.1613  0.0223
  146MOL     C429294   7.664   2.161   5.343 -0.5154 -0.0934 -0.7009
  146MOL     H529295   7.505   2.015   5.191  0.0213 -0.4345 -0.6037
  146MOL     H629296   7.459   2.155   5.130 -0.3923  1.2697 -0.6646
  146MOL     H729297   7.760   2.087   5.166 -1.0811 -1.4074 -0.9899
  146MOL     H829298   7.687   2.251   5.146  1.2265 -0.2281  0.1678
  146MOL     H929299   7.765   2.186   5.377 -0.8901 -1.1395  1.2659
  146MOL    H1029300   7.623   2.066   5.376  0.4873  0.0353  0.9650
  146MOL    H1129301   7.513   2.126   4.945 -1.3706 -0.7907  0.5540
  146MOL    O1229302   7.567   2.261   5.386 -0.4028 -0.1712 -0.2740
  146MOL    C1329303   7.588   2.387   5.338 -0.5238 -1.1422 -0.2169
  146MOL    C1429304   7.523   2.491   5.422 -0.4122  0.1938  0.0067
  146MOL    C1529305   7.539   2.629   5.366 -0.1122  0.3345  0.4583
  146MOL    H1629306   7.544   2.395   5.239 -1.9225 -1.3715  0.3724
  146MOL    H1729307   7.695   2.407   5.339 -0.6755 -0.3245  0.7866
  146MOL    H1829308   7.416   2.471   5.430 -0.7224  2.1554  1.1471
  146MOL    H1929309   7.560   2.479   5.524 -0.9854 -0.1084  0.1809
  146MOL    H2029310   7.461   2.697   5.402 -0.3869 -0.0689  0.6272
  146MOL    H2129311   7.521   2.627   5.259  0.4931 -0.5931  0.3647
  146MOL    O2229312   7.665   2.687   5.400 -0.0047 -0.1316  0.9627
  146MOL    C2329313   7.678   2.807   5.325  0.3382 -0.3274 -0.8147
  146MOL    C2429314   0.012   2.880   5.361  0.3288  0.0989 -0.7944
  146MOL    C2529315   0.031   2.997   5.273 -0.2828 -0.1184 -0.2955
  146MOL    H2629316   7.595   2.877   5.340  0.7631  0.0165 -0.0679
  146MOL    H2729317   7.667   2.794   5.217  0.5421  1.0326 -1.0099
  146MOL    H2829318   0.017   2.918   5.463 -1.0749 -0.2238 -0.5961
  146MOL    H2929319   0.096   2.815   5.337  0.0835 -0.3607 -0.4183
  146MOL    H3029320   7.740   3.072   5.280 -0.1386  0.0221 -0.1899
  146MOL    H3129321   0.040   2.970   5.168  2.1253  1.0956 -0.4264
  146MOL    O3229322   0.149   3.062   5.315 -0.8364 -0.2228 -0.9490
  146MOL    C3329323   0.179   3.183   5.240  0.0103  1.0109  0.1111
  146MOL    C3429324   0.308   3.245   5.305 -0.5246 -0.2210 -0.3790
  146MOL    C3529325   0.356   3.378   5.233 -0.0797  0.1994  0.4527
  146MOL    H3629326   0.097   3.252   5.261  0.3763  0.8511  2.2314
  146MOL    H3729327   0.191   3.178   5.132 -0.8062  2.2164 -0.0362
  146MOL    H3829328   0.283   3.275   5.406  0.2540  0.6272 -0.4309
  146MOL    H3929329   0.389   3.173   5.318  0.3193  0.9848  1.1954
  146MOL    H4029330   0.421   3.432   5.301  1.1039 -0.0103 -0.5031
  146MOL    H4129331   0.269   3.431   5.195 -0.6658 -1.2561 -0.2639
  146MOL    O4229332   0.427   3.331   5.117 -0.2028 -0.7120 -0.3140
  146MOL    C4329333   0.432   3.432   5.015  0.1500 -0.4314 -0.0802
  146MOL    C4429334   0.522   3.395   4.900 -0.1754  0.4157  0.2185
  146MOL    C4529335   0.451   3.319   4.782 -0.9432 -0.0184  0.4492
  146MOL    H4629336   0.474   3.527   5.048 -2.0675  0.4539  0.2819
  146MOL    H4729337   0.338   3.464   4.969  0.5323  1.7904  0.5913
  146MOL    H4829338   0.572   3.483   4.860 -1.1834  1.2046  0.6739
  146MOL    H4929339   0.605   3.330   4.928 -1.2875 -1.3702 -0.4949
  146MOL    H5029340   0.391   3.392   4.728 -1.2743  0.7802  1.8774
  146MOL    H5129341   0.380   3.242   4.814  0.3565 -0.8114  1.4545
  146MOL    O5229342   0.549   3.257   4.708  0.2187  0.4422  0.0035
  146MOL    C5329343   0.505   3.198   4.589 -0.2286  0.8839 -0.4219
  146MOL    C5429344   0.614   3.105   4.526 -0.1453 -0.6459 -0.6578
  146MOL    C5529345   0.565   3.054   4.391 -0.1945  0.2585 -0.3231
  146MOL    H5629346   0.490   3.276   4.514 -3.2944  0.3859 -0.4060
  146MOL    H5729347   0.414   3.140   4.602  0.3560 -0.2654 -1.3849
  146MOL    H5829348   0.711   3.154   4.525  0.0226 -0.9704 -1.9255
  146MOL    H5929349   0.623   3.022   4.595 -0.8941  1.7878  2.4841
  146MOL    H6029350   0.644   2.997   4.343  0.0284 -1.5997  2.1644
  146MOL    H6129351   0.544   3.138   4.325  0.4976  0.8784  0.2227
  146MOL    O6229352   0.457   2.965   4.423  0.0155 -0.8648  0.4716
  146MOL    C6329353   0.417   2.873   4.324 -0.2740 -0.3754  0.0257
  146MOL    C6429354   0.310   2.776   4.374  0.5212 -0.0156 -0.3789
  146MOL    C6529355   0.266   2.677   4.258  0.5756  0.4353 -0.2597
  146MOL    H6629356   0.507   2.822   4.290  0.4255 -0.0516  1.3369
  146MOL    H6729357   0.389   2.927   4.234  1.6708 -1.5690 -1.3276
  146MOL    H6829358   0.350   2.731   4.465  0.6756 -0.0076 -0.4438
  146MOL    H6929359   0.227   2.839   4.406  0.9595  0.5763 -0.4112
  146MOL    H7029360   0.207   2.745   4.197  0.1301 -0.0419 -0.3690
  146MOL    H7129361   0.188   2.610   4.295  0.5493  1.0749  0.8583
  146MOL    O7229362   0.375   2.618   4.186  0.0943  0.5313 -0.0353
  146MOL    C7329363   0.446   2.517   4.262 -0.2164  0.4892  0.3153
  146MOL    C7429364   0.551   2.441   4.188  0.2202  0.4886  0.6670
  146MOL    C7529365   0.650   2.372   4.286  0.2371  0.3441  0.0469
  146MOL    H7629366   0.365   2.452   4.294 -0.6933  1.2226  0.6214
  146MOL    H7729367   0.486   2.564   4.353  1.8083 -5.2496  2.6003
  146MOL    H7829368   0.508   2.370   4.117 -0.2136 -1.1556  2.5300
  146MOL    H7929369   0.609   2.515   4.132 -2.4571  3.9180  2.2691
  146MOL    H8029370   0.604   2.320   4.370  1.7004 -0.1480  0.5502
  146MOL    H8129371   0.705   2.450   4.337 -0.6914  0.8029  0.3524
  146MOL    O8229372   0.742   2.288   4.218  0.0056 -0.1501  0.2636
  146MOL    C8329373   0.872   2.271   4.282 -0.9343 -0.2397  0.4737
  146MOL    C8429374   0.874   2.170   4.401 -0.0966  0.5709 -0.7282
  146MOL    C8529375   1.012   2.135   4.458  0.2753  0.1742  0.0653
  146MOL    H8629376   0.922   2.362   4.315  0.0672 -1.4338  2.3821
  146MOL    H8729377   0.928   2.221   4.203 -1.4702 -1.8616  1.0848
  146MOL    H8829378   0.810   2.214   4.477  0.8476 -0.9768  0.9932
  146MOL    H8929379   0.823   2.078   4.371 -0.2347 -0.6580  2.9859
  146MOL    H9029380   1.078   2.074   4.396 -1.2425  0.5266 -1.9499
  146MOL    H9129381   0.991   2.063   4.537 -1.0395  0.5395  0.0687
  146MOL    O9229382   1.073   2.258   4.506 -0.2805  0.0769  1.0600
  146MOL    C9329383   1.201   2.245   4.562  0.7124  0.0197 -0.3475
  146MOL    C9429384   1.250   2.371   4.622  0.4404  0.4282  0.3451
  146MOL    C9529385   1.139   2.433   4.714  0.3261  0.3032 -0.8070
  146MOL    H9629386   1.261   2.194   4.486  1.8745 -0.4159  0.8465
  146MOL    H9729387   1.190   2.171   4.641 -2.4731  0.0631 -0.6699
  146MOL    H9829388   1.337   2.333   4.676 -0.0517  0.9562  1.5418
  146MOL    H9929389   1.278   2.439   4.541 -0.3955  1.9057  1.2728
  146MOL   H10029390   1.123   2.370   4.802  0.1561 -0.3058 -1.2690
  146MOL   H10129391   1.044   2.446   4.662 -0.7517  0.7192  1.2040
  146MOL   O10229392   1.164   2.559   4.763  0.3286 -0.2262  0.1567
  146MOL   C10329393   1.085   2.604   4.864  0.2152 -0.2586  0.2860
  146MOL   C10429394   1.142   2.735   4.921 -0.5702 -0.2624 -0.5205
  146MOL   C10529395   1.083   2.770   5.058  0.1459  0.1032  0.3428
  146MOL   H10629396   1.072   2.525   4.937  1.5415  0.3114  1.1455
  146MOL   H10729397   0.986   2.623   4.822  0.3217 -2.3658 -0.9775
  146MOL   H10829398   1.250   2.725   4.933 -0.5827  0.0633 -0.1511
  146MOL   H10929399   1.124   2.810   4.844  1.8657  0.0362 -0.8434
  146MOL   H11029400   1.104   2.871   5.091  0.8817  0.6167 -1.5822
  146MOL   H11129401   1.129   2.704   5.132 -0.4034  0.4387  0.9820
  146MOL   O11229402   0.940   2.748   5.072 -0.3700  0.1737 -0.0224
  146MOL   C11329403   0.863   2.833   4.993  0.2584 -0.0432  0.8667
  146MOL   C11429404   0.721   2.777   4.987 -0.5874  0.1728 -0.9748
  146MOL   C11529405   0.632   2.865   4.896 -0.0914  0.1726  0.1669
  146MOL   H11629406   0.900   2.830   4.891 -0.7811  0.5069  0.4713
  146MOL   H11729407   0.884   2.937   5.018  1.6154  0.2528 -1.3627
  146MOL   H11829408   0.728   2.678   4.942  3.5547 -0.2886  0.5057
  146MOL   H11929409   0.689   2.778   5.092  3.0074  0.3910  0.1849
  146MOL   H12029410   0.661   2.845   4.792  1.9921 -2.3028  1.1730
  146MOL   H12129411   0.644   2.971   4.917  1.1022  0.4165 -1.5661
  146MOL   O12229412   0.496   2.822   4.917  0.0097  0.0153 -0.2057
  146MOL   C12329413   0.402   2.930   4.923 -0.4547 -0.0975 -0.3073
  146MOL   C12429414   0.270   2.878   4.973 -0.1442  0.2659 -1.0038
  146MOL   C12529415   0.178   2.828   4.862  0.4445  0.3645  0.2356
  146MOL   H12629416   0.390   2.980   4.827 -0.8754  1.5767  0.6027
  146MOL   H12729417   0.440   3.010   4.987  1.1012 -0.4403 -0.7860
  146MOL   H12829418   0.298   2.795   5.039 -0.1272  0.0901 -1.2295
  146MOL   H12929419   0.211   2.951   5.027  0.0308  1.5251 -2.4937
  146MOL   H13029420   0.207   2.749   4.793  1.1050  2.1893 -1.6359
  146MOL   H13129421   0.181   2.918   4.800  1.9740  0.8248  0.9457
  146MOL   O13229422   0.057   2.816   4.925 -0.1353  0.4083 -0.0030
  146MOL   C13329423   7.738   2.796   4.837  0.7920 -0.4480 -0.4356
  146MOL   C13429424   7.604   2.781   4.904  0.1068  0.5629 -0.3992
  146MOL   C13529425   7.494   2.769   4.803  1.3119 -0.3874  0.5563
  146MOL   H13629426   7.754   2.707   4.776  0.4931  1.3886 -3.2736
  146MOL   H13729427   7.730   2.879   4.766  2.1071 -1.3868 -1.7119
  146MOL   H13829428   7.595   2.689   4.961  0.6962  1.8552  1.8472
  146MOL   H13929429   7.581   2.870   4.962 -1.2755  0.0746 -0.1956
  146MOL   H14029430   7.496   2.667   4.764 -3.2669  0.7662 -3.2459
  146MOL   H14129431   7.505   2.843   4.724  0.7754 -2.7411 -1.8113
  146MOL   O14229432   7.369   2.786   4.877 -0.3050 -0.3740 -0.2106
  146MOL   C14329433   7.267   2.867   4.816  0.0415  0.1179  0.7237
  146MOL   C14429434   7.147   2.885   4.907  0.8391  0.5280 -0.7196
  146MOL   C14529435   7.033   2.971   4.854  0.0260  0.6237 -0.1137
  146MOL   H14629436   7.239   2.816   4.725 -0.2260  1.1699  0.2042
  146MOL   H14729437   7.324   2.959   4.799  0.1020  0.1708  1.1971
  146MOL   H14829438   7.111   2.784   4.923  3.1121 -0.1131  0.5323
  146MOL   H14929439   7.182   2.918   5.004 -1.0915 -0.2797  0.2788
  146MOL   H15029440   7.061   3.075   4.837  0.2993  0.8252  1.5038
  146MOL   H15129441   6.957   2.958   4.931 -0.2261 -1.0364 -0.6181
  146MOL   O15229442   6.976   2.918   4.732 -0.3440 -0.2919  0.2693
  146MOL   C15329443   6.878   3.013   4.672 -0.3426 -0.0189 -0.3707
  146MOL   C15429444   6.790   2.953   4.558 -0.1546  0.1182 -0.2022
  146MOL   C15529445   6.736   2.813   4.594  0.7598 -1.0429 -0.1434
  146MOL   H15629446   6.921   3.107   4.639 -2.7143  0.5641 -1.9084
  146MOL   H15729447   6.816   3.051   4.754 -1.2309 -0.1662 -0.9601
  146MOL   H15829448   6.715   3.029   4.537 -0.0020  0.3466  0.0893
  146MOL   H15929449   6.842   2.937   4.463 -1.2172 -0.5266 -0.6856
  146MOL   H16029450   6.711   2.812   4.700 -0.9037 -2.7121 -0.5163
  146MOL   H16129451   6.812   2.739   4.569  1.7490  0.5545 -2.0339
  146MOL   O16229452   6.620   2.790   4.518  0.3287 -0.4325  0.0534
  146MOL   C16329453   6.566   2.662   4.548  0.3326  0.6161 -0.0036
  146MOL   C16429454   6.437   2.662   4.458  0.1191 -0.1959 -0.3947
  146MOL   C16529455   6.364   2.525   4.468 -0.4483  0.2305 -0.8798
  146MOL   H16629456   6.538   2.647   4.652  0.6501  2.5420  0.3852
  146MOL   H16729457   6.646   2.589   4.537  0.0623  0.3044  0.1073
  146MOL   H16829458   6.361   2.740   4.470 -0.5399 -1.0578  1.1722
  146MOL   H16929459   6.472   2.672   4.356  2.3671  1.3329  0.4846
  146MOL   H17029460   6.325   2.508   4.569 -1.3070 -1.0876 -1.4138
  146MOL   H17129461   6.426   2.441   4.439 -0.4144 -1.5339  3.8695
  146MOL   O17229462   6.261   2.524   4.367 -0.0506  0.6566  0.2840
  146MOL   C17329463   6.179   2.404   4.381 -0.3577 -0.1070  1.2019
  146MOL   C17429464   6.076   2.399   4.264  0.0912 -0.4073  0.5178
  146MOL   C17529465   5.977   2.277   4.279  0.2841  0.1996 -0.1142
  146MOL   H17629466   6.134   2.408   4.481  0.7285  0.8076  1.6684
  146MOL   H17729467   6.237   2.312   4.382  2.0679  1.3491 -0.4047
  146MOL   H17829468   6.010   2.486   4.258  0.7186 -0.0559 -1.9154
  146MOL   H17929469   6.130   2.390   4.169  3.2993  1.3124  2.1201
  146MOL   H18029470   5.925   2.273   4.375  1.6888  0.4125  0.6569
  146MOL   H18129471   6.029   2.181   4.271  1.2913  0.6129  1.3040
  146MOL   O18229472   5.878   2.271   4.183  0.5408  0.1072  0.3169
  146MOL   C18329473   5.774   2.176   4.205 -0.3621  0.2538 -0.4212
  146MOL   C18429474   5.640   2.256   4.226 -0.5989  0.2091 -0.0831
  146MOL   C18529475   5.518   2.175   4.275 -0.4051 -0.1667 -0.8890
  146MOL   H18629476   5.783   2.126   4.302  2.7009  0.1297 -0.7358
  146MOL   H18729477   5.777   2.099   4.127  2.3931  0.6250 -0.7312
  146MOL   H18829478   5.665   2.335   4.297 -1.0334  0.6985 -0.4722
  146MOL   H18929479   5.616   2.307   4.132  1.9170 -1.4710 -1.6997
  146MOL   H19029480   5.547   2.093   4.341 -2.7372  1.4164  2.2337
  146MOL   H19129481   5.461   2.130   4.193 -0.7603 -3.1474  0.9361
  146MOL   O19229482   5.453   2.259   4.370 -0.0861  0.5313 -0.1730
  146MOL   C19329483   5.374   2.355   4.297  0.4585  0.2229  0.9579
  146MOL   C19429484   5.279   2.429   4.383  0.2206 -0.2332  0.5802
  146MOL   C19529485   5.201   2.537   4.315  0.1047  0.3874 -0.0271
  146MOL   H19629486   5.310   2.304   4.225 -0.4843  1.1778  1.1099
  146MOL   H19729487   5.439   2.420   4.238  0.5349 -0.8718 -0.1995
  146MOL   H19829488   5.210   2.360   4.432 -0.0299 -0.2519  0.2008
  146MOL   H19929489   5.338   2.483   4.457  2.2550 -1.0163 -0.4372
  146MOL   H20029490   5.136   2.514   4.231  0.8950 -0.4169 -0.4237
  146MOL   H20129491   5.270   2.611   4.274 -1.4355  1.5306 -0.6150
  146MOL   H20229492   5.137   2.594   4.383 -0.3392 -0.3051  0.1403
  147MOL     O129493   4.715   1.147   7.507 -0.2560 -0.4558  0.0694
  147MOL     C229494   4.845   1.180   7.465  0.0145 -0.1511  0.0814
  147MOL     C329495   4.912   1.276   7.561  0.0102 -0.0865  0.0493
  147MOL     C429496   5.059   1.320   7.522 -0.8016  0.3833  0.1344
  147MOL     H529497   4.855   1.236   7.372  0.3251  1.1769  0.8896
  147MOL     H629498   4.897   1.085   7.467  1.8084  0.6145 -3.9549
  147MOL     H729499   4.854   1.368   7.564  0.6329  0.2840  0.9238
  147MOL     H829500   4.904   1.230   7.660  0.5348 -0.0382  0.1146
  147MOL     H929501   5.099   1.373   7.609  1.6258  0.0015 -0.7177
  147MOL    H1029502   5.064   1.363   7.422 -0.3868 -3.0299 -1.3885
  147MOL    H1129503   4.725   1.091   7.582 -1.4237  1.4267  1.6655
  147MOL    O1229504   5.134   1.200   7.500  0.0222  0.3194 -0.5148
  147MOL    C1329505   5.263   1.209   7.459  0.2864  0.1939  0.1905
  147MOL    C1429506   5.325   1.078   7.431 -0.3617 -0.0523 -0.9435
  147MOL    C1529507   5.451   1.092   7.346  0.2175 -0.0636  0.0893
  147MOL    H1629508   5.330   1.269   7.520 -1.4909  2.3270  0.1241
  147MOL    H1729509   5.243   1.266   7.368 -0.7952 -3.5853 -2.0940
  147MOL    H1829510   5.347   1.035   7.529  0.8514 -0.0437 -1.2154
  147MOL    H1929511   5.257   1.007   7.384 -0.0523 -1.8893  1.2656
  147MOL    H2029512   5.422   1.100   7.241  0.5828 -0.3291 -0.0310
  147MOL    H2129513   5.497   0.994   7.353 -3.2394 -1.7208  0.7083
  147MOL    O2229514   5.533   1.196   7.398  0.1537 -0.6299  0.6087
  147MOL    C2329515   5.647   1.217   7.319 -0.4236  0.0471 -0.7855
  147MOL    C2429516   5.720   1.335   7.387 -0.3417 -0.5814 -0.1560
  147MOL    C2529517   5.834   1.394   7.289 -0.2418 -0.7356  0.9289
  147MOL    H2629518   5.607   1.239   7.220 -0.6238 -0.7318 -0.8760
  147MOL    H2729519   5.722   1.139   7.322  1.1104  1.4447 -1.8054
  147MOL    H2829520   5.656   1.421   7.405  0.5244  0.3079 -1.2535
  147MOL    H2929521   5.773   1.315   7.480 -1.0848  1.8931  0.8503
  147MOL    H3029522   5.913   1.325   7.260 -1.5618 -0.7994 -2.6747
  147MOL    H3129523   5.903   1.470   7.329  1.6024  0.3685 -4.0096
  147MOL    O3229524   5.774   1.452   7.176 -0.2223  0.1437 -0.9135
  147MOL    C3329525   5.866   1.477   7.072  0.3264  0.1916  0.0507
  147MOL    C3429526   5.814   1.585   6.971  0.4558 -0.1849  0.2268
  147MOL    C3529527   5.781   1.716   7.043  0.2456  0.0056 -0.1785
  147MOL    H3629528   5.865   1.379   7.025  1.1747  0.8001 -1.2715
  147MOL    H3729529   5.957   1.509   7.122  0.0607  0.2877  0.4802
  147MOL    H3829530   5.890   1.613   6.898  0.9345  0.3595  0.9286
  147MOL    H3929531   5.726   1.538   6.927  0.2015  1.1222 -0.7043
  147MOL    H4029532   5.865   1.771   7.085 -0.1357  0.6467 -0.2465
  147MOL    H4129533   5.710   1.699   7.124  0.5183 -1.4106 -0.2154
  147MOL    O4229534   5.727   1.798   6.943  0.2787 -0.0123  0.1218
  147MOL    C4329535   5.638   1.898   6.995  0.2041 -0.2889 -0.0995
  147MOL    C4429536   5.573   1.972   6.878 -0.6114  0.0656  0.3227
  147MOL    C4529537   5.675   2.027   6.779  0.2876 -0.3369 -0.2321
  147MOL    H4629538   5.692   1.974   7.052  2.3645 -0.2441 -2.1486
  147MOL    H4729539   5.561   1.865   7.064 -0.9239  2.6291  0.1378
  147MOL    H4829540   5.521   1.889   6.829  2.0815 -1.2274 -0.4730
  147MOL    H4929541   5.501   2.043   6.918 -1.4001 -0.5666  0.0524
  147MOL    H5029542   5.752   1.961   6.740 -1.0933 -2.2074  0.1339
  147MOL    H5129543   5.733   2.104   6.830 -1.0890  0.6777 -0.1749
  147MOL    O5229544   5.597   2.073   6.675  0.4403 -0.2690 -0.2014
  147MOL    C5329545   5.607   2.001   6.553 -0.8348 -0.0450  0.2184
  147MOL    C5429546   5.472   2.039   6.481 -0.5940  1.0345 -0.6566
  147MOL    C5529547   5.490   1.974   6.347 -0.2899 -0.0169 -0.2510
  147MOL    H5629548   5.625   1.895   6.572 -0.6066 -0.0103  0.2061
  147MOL    H5729549   5.691   2.044   6.497 -1.4205  2.1798  1.0195
  147MOL    H5829550   5.382   2.004   6.532  1.4026  0.4082  2.5184
  147MOL    H5929551   5.442   2.143   6.479  1.2829  1.6431  1.8109
  147MOL    H6029552   5.516   1.870   6.328 -0.5957 -0.1601  0.1164
  147MOL    H6129553   5.573   2.022   6.295  0.0804 -1.1077 -0.6638
  147MOL    O6229554   5.368   1.993   6.272  0.1777  0.4008  0.2265
  147MOL    C6329555   5.273   1.887   6.286 -0.0482 -0.5408 -0.1677
  147MOL    C6429556   5.144   1.944   6.230  0.6005  0.3787  0.3192
  147MOL    C6529557   5.144   1.951   6.074  0.2118 -0.7191 -0.5221
  147MOL    H6629558   5.256   1.863   6.391 -2.8317 -0.5771 -0.6012
  147MOL    H6729559   5.303   1.803   6.223 -0.8906  0.3008 -1.7329
  147MOL    H6829560   5.050   1.897   6.257  0.1111  0.9974 -0.2749
  147MOL    H6929561   5.118   2.048   6.252 -1.2315  0.1074 -0.4765
  147MOL    H7029562   5.229   2.009   6.038  1.0878 -1.9262 -0.4070
  147MOL    H7129563   5.056   2.008   6.042  1.1481  0.8403 -0.3726
  147MOL    O7229564   5.149   1.823   6.018  0.1452  0.1755 -0.0039
  147MOL    C7329565   5.158   1.810   5.876 -0.1030  0.0341  0.2560
  147MOL    C7429566   5.213   1.677   5.822 -0.2158 -0.2649  0.1847
  147MOL    C7529567   5.141   1.547   5.876 -0.2964  0.1631  0.3129
  147MOL    H7629568   5.217   1.892   5.837 -0.0240  0.1370  0.5872
  147MOL    H7729569   5.063   1.840   5.831 -0.9101 -1.8698  0.6604
  147MOL    H7829570   5.212   1.682   5.714 -2.0913 -0.5099  0.1676
  147MOL    H7929571   5.321   1.673   5.837  0.0340  0.4227 -1.4267
  147MOL    H8029572   5.034   1.549   5.857 -0.0342 -0.0383 -1.2705
  147MOL    H8129573   5.144   1.562   5.983 -0.9004  0.5964  0.2668
  147MOL    O8229574   5.187   1.420   5.831 -0.4773 -0.5568  0.0495
  147MOL    C8329575   5.310   1.373   5.892 -0.1495 -0.0585 -0.7346
  147MOL    C8429576   5.323   1.228   5.846 -0.0298  0.8740  0.3419
  147MOL    C8529577   5.453   1.163   5.912 -0.2624  0.3843  0.0875
  147MOL    H8629578   5.296   1.387   6.000 -0.6555  0.8300 -0.9119
  147MOL    H8729579   5.392   1.440   5.867 -0.6104  0.9772  0.4538
  147MOL    H8829580   5.232   1.176   5.878 -0.2962  1.6104  0.7876
  147MOL    H8929581   5.330   1.224   5.737 -0.4724 -1.1356  0.3610
  147MOL    H9029582   5.451   1.182   6.019  0.2079  0.4742  0.0779
  147MOL    H9129583   5.552   1.196   5.879 -0.0955  1.5300  1.6565
  147MOL    O9229584   5.458   1.023   5.901  0.4672  0.1744  0.3105
  147MOL    C9329585   5.574   0.965   5.949 -0.2493 -0.2508  0.3517
  147MOL    C9429586   5.561   0.819   5.894  0.0254 -0.1513  0.2202
  147MOL    C9529587   5.684   0.734   5.899  0.1433  0.3718  0.2568
  147MOL    H9629588   5.579   0.966   6.058  1.7352 -0.3257  0.2873
  147MOL    H9729589   5.663   1.011   5.905 -0.1738  0.0447  0.8059
  147MOL    H9829590   5.476   0.773   5.946 -0.4147  0.6936  0.2589
  147MOL    H9929591   5.525   0.836   5.793  0.7268  0.8146  0.1259
  147MOL   H10029592   5.729   0.717   5.997 -0.0254 -1.4834  0.0380
  147MOL   H10129593   5.753   0.786   5.832  1.9358  0.0873  1.8616
  147MOL   O10229594   5.642   0.613   5.839  0.0182 -0.2208  0.0830
  147MOL   C10329595   5.759   0.530   5.830  0.1170  0.0458 -0.0225
  147MOL   C10429596   5.743   0.396   5.748  0.2813  0.1847  0.0776
  147MOL   C10529597   5.870   0.340   5.683 -0.5049 -0.7324 -0.6408
  147MOL   H10629598   5.795   0.514   5.931 -0.9682  0.7170  0.4745
  147MOL   H10729599   5.827   0.599   5.780  0.9735 -1.3722 -0.8442
  147MOL   H10829600   5.710   0.325   5.823  1.3384  0.8612  1.1869
  147MOL   H10929601   5.668   0.424   5.673 -0.4299 -0.9833  0.3444
  147MOL   H11029602   5.942   0.328   5.764  0.9992  1.9004 -1.5213
  147MOL   H11129603   5.898   0.414   5.609 -1.8589  0.7973  0.3493
  147MOL   O11229604   5.844   0.209   5.620  0.4337  0.3148 -0.1586
  147MOL   C11329605   5.967   0.155   5.576  0.8033  0.8329  0.4729
  147MOL   C11429606   5.947   0.018   5.505 -0.1257 -0.1887 -0.8755
  147MOL   C11529607   6.064   7.715   5.481  0.1362  0.1712  0.4433
  147MOL   H11629608   6.032   0.140   5.662 -0.8761  0.3700  1.6718
  147MOL   H11729609   6.024   0.227   5.517  0.3478  1.5839  0.9401
  147MOL   H11829610   5.878   7.762   5.576  0.5614 -0.1288 -0.1635
  147MOL   H11929611   5.893   0.030   5.411 -1.1341  1.3156 -0.1318
  147MOL   H12029612   6.113   7.697   5.577 -3.4638  0.8623  2.5145
  147MOL   H12129613   6.142   7.747   5.412 -0.4817  2.6762  0.8566
  147MOL   O12229614   6.023   7.593   5.430  0.0783  0.0929 -0.1523
  147MOL   C12329615   6.119   7.501   5.391  0.0672  0.4888 -0.0240
  147MOL   C12429616   6.075   7.351   5.372  0.2770 -0.0682  0.3563
  147MOL   C12529617   6.047   7.298   5.508  0.3398 -0.5420  0.1318
  147MOL   H12629618   6.200   7.515   5.462  0.6680  0.1826 -0.6374
  147MOL   H12729619   6.152   7.533   5.292 -0.1885  1.5678  0.2401
  147MOL   H12829620   5.986   7.349   5.308  2.1200 -1.1150 -2.2594
  147MOL   H12929621   6.148   7.286   5.324  0.0916  0.0914 -0.1474
  147MOL   H13029622   5.995   7.202   5.512  0.8928 -0.8855 -0.7454
  147MOL   H13129623   6.005   7.378   5.569  1.8887 -0.3511  0.9694
  147MOL   O13229624   6.180   7.274   5.558  0.1076  0.2860 -0.5173
  147MOL   C13329625   6.174   7.219   5.691  0.1906 -0.1108  0.2400
  147MOL   C13429626   6.183   7.325   5.802 -0.6609 -0.7666  0.3071
  147MOL   C13529627   6.134   7.283   5.942 -0.5602 -0.1638 -0.5023
  147MOL   H13629628   6.250   7.141   5.700  0.7319  0.4102  0.2469
  147MOL   H13729629   6.078   7.168   5.697 -0.4848  0.8596 -1.9167
  147MOL   H13829630   6.282   7.367   5.821 -0.1077 -0.0840 -3.7385
  147MOL   H13929631   6.116   7.403   5.768 -0.7479 -2.1624 -2.8897
  147MOL   H14029632   6.140   7.362   6.017 -1.1160 -1.9821  1.5007
  147MOL   H14129633   6.212   7.215   5.977 -1.1543 -0.6794 -0.1771
  147MOL   O14229634   6.009   7.227   5.942  0.2846 -0.0575  0.4374
  147MOL   C14329635   5.895   7.316   5.916 -0.2262 -0.2363  0.2898
  147MOL   C14429636   5.774   7.231   5.920  0.3035  0.1650  0.1397
  147MOL   C14529637   5.652   7.321   5.892  0.3127 -0.1374 -0.5885
  147MOL   H14629638   5.914   7.362   5.818  0.4159  0.6674  0.8202
  147MOL   H14729639   5.903   7.394   5.992  1.0513  1.6286 -1.6708
  147MOL   H14829640   5.779   7.140   5.861  0.4725  0.2925 -0.0402
  147MOL   H14929641   5.769   7.195   6.023  2.4797 -0.6844 -0.0187
  147MOL   H15029642   5.674   7.398   5.817  0.4486 -0.6095 -1.0377
  147MOL   H15129643   5.620   7.388   5.972 -0.8613 -0.9535 -0.3659
  147MOL   O15229644   5.540   7.239   5.846  0.1498  0.7730 -0.1991
  147MOL   C15329645   5.482   7.163   5.955  0.5690  0.4980  1.0457
  147MOL   C15429646   5.372   7.072   5.901 -0.2483  0.5485 -0.4960
  147MOL   C15529647   5.428   6.978   5.789 -0.1023  0.8257  0.3036
  147MOL   H15629648   5.459   7.216   6.048 -0.4680 -2.1623  2.3509
  147MOL   H15729649   5.561   7.094   5.985 -1.2188 -1.4222  1.3860
  147MOL   H15829650   5.337   7.015   5.987  1.9542  0.6166  0.4628
  147MOL   H15929651   5.294   7.135   5.858 -1.0336  0.4584  0.7610
  147MOL   H16029652   5.503   6.918   5.839  0.4954  0.9473 -0.4346
  147MOL   H16129653   5.470   7.046   5.715 -0.3515 -2.2015 -2.7408
  147MOL   O16229654   5.321   6.906   5.732  0.7253  0.3181 -0.1629
  147MOL   C16329655   5.362   6.815   5.632 -0.6178 -0.4427 -0.7791
  147MOL   C16429656   5.402   6.690   5.694  0.5889 -0.8283  1.4559
  147MOL   C16529657   5.291   6.585   5.700 -0.0617 -1.0723  1.0045
  147MOL   H16629658   5.438   6.863   5.571 -0.1617 -1.2347 -0.8384
  147MOL   H16729659   5.275   6.793   5.571 -2.5932 -2.4671  2.6225
  147MOL   H16829660   5.486   6.645   5.639  0.1864  2.0959 -1.7026
  147MOL   H16929661   5.442   6.707   5.794  0.2970  0.2423  1.3885
  147MOL   H17029662   5.238   6.586   5.605 -0.5174 -0.1883  1.2695
  147MOL   H17129663   5.212   6.612   5.770 -0.8041 -1.4131  0.3152
  147MOL   O17229664   5.342   6.456   5.722 -0.1027 -0.2539 -0.0449
  147MOL   C17329665   5.252   6.344   5.697 -0.0284 -0.5109  0.2931
  147MOL   C17429666   5.155   6.320   5.812  0.6832  0.2798 -0.1624
  147MOL   C17529667   5.014   6.365   5.785  0.4042  0.3667  0.0545
  147MOL   H17629668   5.319   6.261   5.674 -0.6624 -0.4740 -1.8301
  147MOL   H17729669   5.203   6.356   5.600  0.1557  0.8587  0.3551
  147MOL   H17829670   5.152   6.213   5.831  0.5867  0.3851  0.4331
  147MOL   H17929671   5.188   6.366   5.905 -1.2796  0.6454  0.3666
  147MOL   H18029672   4.954   6.296   5.726 -1.3910 -0.1746  2.4672
  147MOL   H18129673   5.007   6.460   5.732  1.4027  0.5630  0.2624
  147MOL   O18229674   4.944   6.363   5.909  0.3417  1.2145 -0.0213
  147MOL   C18329675   4.802   6.382   5.910 -0.9478 -0.4681 -0.0367
  147MOL   C18429676   4.733   6.249   5.891 -0.0038  0.5536 -0.2790
  147MOL   C18529677   4.777   6.140   5.983 -0.1617  0.1605 -0.3093
  147MOL   H18629678   4.767   6.457   5.839  0.1253 -0.2180 -0.3144
  147MOL   H18729679   4.774   6.418   6.009  1.2409  2.2488 -0.3374
  147MOL   H18829680   4.630   6.270   5.918 -0.4316  0.5550 -1.8384
  147MOL   H18929681   4.719   6.216   5.788  1.4011  0.2801 -0.3948
  147MOL   H19029682   4.777   6.169   6.087  1.3765 -1.2128  0.1008
  147MOL   H19129683   4.878   6.100   5.976  0.2403  0.8327  1.4434
  147MOL   O19229684   4.689   6.032   5.958 -0.0091  0.2340 -0.2763
  147MOL   C19329685   4.706   5.927   6.049 -0.2506  0.2515 -0.0062
  147MOL   C19429686   4.600   5.820   6.023 -0.4441  0.8421 -0.5671
  147MOL   C19529687   4.454   5.873   6.006 -0.2195  0.4074 -0.1080
  147MOL   H19629688   4.696   5.972   6.148 -1.1284  0.6610 -0.2734
  147MOL   H19729689   4.805   5.887   6.029  0.4214  1.4667  0.8766
  147MOL   H19829690   4.642   5.757   5.944  3.4422  2.8096 -0.1635
  147MOL   H19929691   4.618   5.752   6.106  0.0761 -0.2826 -1.5777
  147MOL   H20029692   4.442   5.953   6.079  1.5555  2.3249 -1.8595
  147MOL   H20129693   4.369   5.805   6.007  0.1855 -0.1511 -2.0333
  147MOL   H20229694   4.449   5.930   5.913  2.5544  3.3994  1.4685
  148MOL     O129695   1.256   1.968   2.373 -0.2250  0.5377 -0.2473
  148MOL     C229696   1.270   1.916   2.241  0.5044 -0.6815  0.3997
  148MOL     C329697   1.338   1.788   2.267 -0.1612  0.0093  0.3229
  148MOL     C429698   1.327   1.687   2.155 -0.0357  0.6380  0.4516
  148MOL     H529699   1.321   1.977   2.166  1.3703 -0.1285  1.4273
  148MOL     H629700   1.164   1.904   2.220  0.5027 -1.3882  0.7984
  148MOL     H729701   1.442   1.804   2.294 -0.0813 -0.4786  0.3210
  148MOL     H829702   1.304   1.729   2.352  0.0748  2.6383  2.3030
  148MOL     H929703   1.345   1.728   2.056 -2.0009 -1.5872 -0.8747
  148MOL    H1029704   1.220   1.670   2.140  0.5738 -0.3319 -3.1032
  148MOL    H1129705   1.216   1.899   2.422  1.3993 -0.0656  0.2618
  148MOL    O1229706   1.402   1.571   2.177 -0.0789 -0.2760 -0.7474
  148MOL    C1329707   1.368   1.470   2.075 -0.3856 -0.2036  0.2446
  148MOL    C1429708   1.446   1.335   2.096 -0.0071 -0.6175 -0.6107
  148MOL    C1529709   1.468   1.260   1.966  0.1274 -0.1262 -0.3912
  148MOL    H1629710   1.390   1.513   1.977 -1.5472 -4.9487 -2.2447
  148MOL    H1729711   1.260   1.454   2.074 -0.5925  1.0809  0.5129
  148MOL    H1829712   1.548   1.356   2.130 -0.3453 -1.6677  1.1278
  148MOL    H1929713   1.396   1.282   2.177  1.2487  0.8702  1.1905
  148MOL    H2029714   1.525   1.327   1.902 -0.1050 -0.3539 -0.8391
  148MOL    H2129715   1.371   1.239   1.922 -0.8439  0.8480  1.2366
  148MOL    O2229716   1.543   1.143   1.991 -0.3937 -0.3788 -0.5131
  148MOL    C2329717   1.518   1.058   1.880  0.4149 -0.2915 -0.7453
  148MOL    C2429718   1.626   0.959   1.880 -0.4695  0.0538 -0.2975
  148MOL    C2529719   1.762   1.020   1.830 -0.1245 -0.6669 -0.1289
  148MOL    H2629720   1.516   1.096   1.778 -0.5620 -2.7951 -1.7094
  148MOL    H2729721   1.429   0.997   1.899 -0.4487  1.5219  1.2352
  148MOL    H2829722   1.639   0.920   1.981 -0.3286 -0.8656 -0.6647
  148MOL    H2929723   1.609   0.874   1.813  0.4445 -0.4502  0.0986
  148MOL    H3029724   1.778   1.114   1.884 -0.3228 -0.6971 -0.0157
  148MOL    H3129725   1.762   1.034   1.722  0.3321 -1.3276 -0.2165
  148MOL    O3229726   1.868   0.932   1.847  0.0131 -0.3380  0.4474
  148MOL    C3329727   2.003   0.969   1.817  0.1653 -0.3260  0.0018
  148MOL    C3429728   2.089   0.982   1.944 -0.0182  0.5488 -0.4039
  148MOL    C3529729   2.223   1.025   1.894 -0.1207  0.0850  0.2628
  148MOL    H3629730   1.998   1.073   1.786 -0.5596 -0.1268  0.7658
  148MOL    H3729731   2.046   0.905   1.741 -0.1551 -1.9748  1.1810
  148MOL    H3829732   2.058   1.043   2.029  1.0946  3.0447 -1.7650
  148MOL    H3929733   2.110   0.887   1.993  1.2891  0.7942 -0.4942
  148MOL    H4029734   2.209   1.113   1.831 -0.5950 -0.5419 -0.5066
  148MOL    H4129735   2.258   0.953   1.820 -1.2488  0.0753 -0.2677
  148MOL    O4229736   2.312   1.046   2.003  0.2035 -0.1786  0.3048
  148MOL    C4329737   2.429   1.120   1.975 -0.6687  0.4460 -0.3835
  148MOL    C4429738   2.502   1.136   2.104  0.1138 -0.2601 -0.0118
  148MOL    C4529739   2.560   1.006   2.155  0.4006  0.2260 -0.1730
  148MOL    H4629740   2.419   1.218   1.930  1.2122  0.2560 -1.2555
  148MOL    H4729741   2.490   1.059   1.908 -2.0035 -0.3658 -0.8904
  148MOL    H4829742   2.581   1.212   2.101 -0.2745  0.1389 -0.2365
  148MOL    H4929743   2.430   1.188   2.168  0.7482 -1.9764  2.1452
  148MOL    H5029744   2.647   0.982   2.093 -1.3282 -0.9837 -2.2142
  148MOL    H5129745   2.490   0.923   2.142  0.2435  0.3404 -0.0601
  148MOL    O5229746   2.604   1.043   2.293  0.3953  0.5042  0.0098
  148MOL    C5329747   2.590   0.938   2.385  0.5209 -0.3703  0.5815
  148MOL    C5429748   2.635   0.968   2.532  0.0375 -0.0162  0.6693
  148MOL    C5529749   2.604   0.853   2.629  0.6747 -0.4880  0.1997
  148MOL    H5629750   2.637   0.846   2.352  0.4703 -0.0523 -0.3714
  148MOL    H5729751   2.483   0.924   2.404  0.0910 -0.2910 -1.6789
  148MOL    H5829752   2.743   0.982   2.521  0.0298 -0.7457 -0.4389
  148MOL    H5929753   2.592   1.062   2.564 -1.2621  0.6310 -2.7669
  148MOL    H6029754   2.618   0.756   2.581  0.6208 -0.4968  0.2019
  148MOL    H6129755   2.498   0.865   2.653  0.2829 -3.0443 -0.0975
  148MOL    O6229756   2.681   0.860   2.748  0.0598 -0.4272 -0.3781
  148MOL    C6329757   2.653   0.744   2.829  0.2383 -0.5323 -0.2243
  148MOL    C6429758   2.725   0.744   2.962 -0.2685  0.0981  0.5092
  148MOL    C6529759   2.679   0.619   3.043  0.6262 -0.2682 -0.0861
  148MOL    H6629760   2.662   0.649   2.776 -0.2858 -1.1244  0.7402
  148MOL    H6729761   2.548   0.747   2.858  0.9291 -1.0135  2.4433
  148MOL    H6829762   2.834   0.751   2.953 -0.0976  0.5350  2.5328
  148MOL    H6929763   2.693   0.831   3.018 -0.8655  0.6921 -0.7573
  148MOL    H7029764   2.735   0.536   3.002  5.7668  2.3768  1.1288
  148MOL    H7129765   2.573   0.597   3.030  1.1606 -3.2833  0.4784
  148MOL    O7229766   2.699   0.642   3.180  0.2078 -0.1641  0.4762
  148MOL    C7329767   2.715   0.531   3.264  0.1003  0.0260  0.7436
  148MOL    C7429768   2.773   0.577   3.402  0.0528 -0.0732 -0.4328
  148MOL    C7529769   2.705   0.513   3.524 -0.3433  0.4504  0.0843
  148MOL    H7629770   2.783   0.468   3.208  1.2605  1.9834 -0.0947
  148MOL    H7729771   2.622   0.474   3.268 -0.6395  1.2259  0.7233
  148MOL    H7829772   2.881   0.562   3.407 -0.0738 -0.9162 -0.0624
  148MOL    H7929773   2.767   0.685   3.407  5.1021  0.3101 -0.1483
  148MOL    H8029774   2.681   0.413   3.490  0.1278  0.9896 -1.8907
  148MOL    H8129775   2.605   0.555   3.531  0.2623  2.0431 -0.4046
  148MOL    O8229776   2.775   0.505   3.651  0.2965 -0.1061 -0.1395
  148MOL    C8329777   2.749   0.622   3.729  0.3314  0.4389 -0.5344
  148MOL    C8429778   2.846   0.634   3.847 -0.3965  0.5355  0.4583
  148MOL    C8529779   2.832   0.748   3.948  0.2565 -0.3888 -0.4200
  148MOL    H8629780   2.642   0.616   3.752  0.2828  0.8592 -0.6316
  148MOL    H8729781   2.760   0.711   3.667  0.9392  1.9035  1.6323
  148MOL    H8829782   2.835   0.548   3.913  0.0297 -0.9480 -1.3774
  148MOL    H8929783   2.944   0.630   3.799 -0.7497  1.6191 -0.3714
  148MOL    H9029784   2.732   0.755   3.990 -0.5788  1.6485 -2.6133
  148MOL    H9129785   2.854   0.844   3.902 -0.7383 -0.0243 -0.1425
  148MOL    O9229786   2.921   0.716   4.050 -0.2091 -0.1696 -0.0257
  148MOL    C9329787   2.939   0.827   4.139 -0.0365 -0.1017 -0.3007
  148MOL    C9429788   3.035   0.788   4.252  0.0408 -0.4788  0.0187
  148MOL    C9529789   3.067   0.912   4.336  0.0345  0.0829  0.6489
  148MOL    H9629790   2.845   0.856   4.185 -0.2365 -1.7917  0.3969
  148MOL    H9729791   2.985   0.905   4.078  1.3138 -1.5642 -1.2144
  148MOL    H9829792   2.995   0.706   4.311 -1.3392  1.6283  2.1109
  148MOL    H9929793   3.128   0.760   4.202 -1.0359 -3.0037 -0.6747
  148MOL   H10029794   2.980   0.967   4.371  0.1539  0.2513  0.6866
  148MOL   H10129795   3.127   0.989   4.287  2.0016 -1.5379  0.4511
  148MOL   O10229796   3.146   0.867   4.445  0.1293 -0.8383  0.3225
  148MOL   C10329797   3.162   0.977   4.535  0.3223  0.1985 -0.1839
  148MOL   C10429798   3.276   0.934   4.636 -0.5195 -0.4614 -0.6367
  148MOL   C10529799   3.226   0.870   4.765  0.3049 -0.0565  0.5529
  148MOL   H10629800   3.072   1.000   4.592 -1.2639 -2.9271 -1.3122
  148MOL   H10729801   3.202   1.068   4.491  2.2280  0.0924  1.2600
  148MOL   H10829802   3.356   0.870   4.599 -1.5302 -0.6752 -2.4945
  148MOL   H10929803   3.336   1.020   4.667  0.6585 -1.6625  0.5162
  148MOL   H11029804   3.310   0.822   4.814  1.2916 -0.0336 -1.0630
  148MOL   H11129805   3.175   0.789   4.713  1.1239  0.6834 -1.4792
  148MOL   O11229806   3.146   0.958   4.846 -0.0783 -0.7994  0.1881
  148MOL   C11329807   3.052   0.877   4.920  0.2397  0.0046  0.2030
  148MOL   C11429808   2.956   0.976   4.995  0.7517  0.3684 -0.5913
  148MOL   C11529809   2.861   1.050   4.896 -0.0944  0.9622 -0.5360
  148MOL   H11629810   3.114   0.808   4.977 -0.0822 -0.5405 -0.1021
  148MOL   H11729811   2.999   0.826   4.840  1.0755 -3.2050  1.6359
  148MOL   H11829812   2.897   0.925   5.072  0.4407  0.2000 -0.9399
  148MOL   H11929813   3.016   1.043   5.056 -1.3156  2.2531 -0.5377
  148MOL   H12029814   2.923   1.071   4.809 -0.3028 -1.0823 -1.1853
  148MOL   H12129815   2.821   1.143   4.937 -2.2491 -0.4107  0.5346
  148MOL   O12229816   2.741   0.973   4.871 -0.2982  0.7141 -0.2811
  148MOL   C12329817   2.666   1.025   4.755 -0.9217  0.2595 -0.9985
  148MOL   C12429818   2.726   1.012   4.618 -0.5070 -0.4146 -0.0203
  148MOL   C12529819   2.710   0.867   4.567  0.3868  0.4279 -0.4658
  148MOL   H12629820   2.676   1.132   4.770  0.7136 -0.0003 -0.1569
  148MOL   H12729821   2.564   0.989   4.766 -1.2290  0.7275 -2.2555
  148MOL   H12829822   2.687   1.087   4.548  2.1888 -1.0840 -2.3685
  148MOL   H12929823   2.834   1.031   4.620 -0.9969  2.6611 -0.0260
  148MOL   H13029824   2.748   0.794   4.639 -0.5979  1.2040  0.8734
  148MOL   H13129825   2.762   0.841   4.475  2.1303 -0.2107  0.6781
  148MOL   O13229826   2.572   0.852   4.556  0.5546  0.1667  0.3492
  148MOL   C13329827   2.537   0.730   4.494  0.3892 -0.2791  0.9300
  148MOL   C13429828   2.383   0.732   4.495 -0.1966  0.4108 -0.1271
  148MOL   C13529829   2.323   0.595   4.457 -0.4835 -0.1141 -0.0307
  148MOL   H13629830   2.569   0.642   4.549 -1.0584 -1.1929  0.3360
  148MOL   H13729831   2.584   0.726   4.395 -1.8504  2.8805 -0.3485
  148MOL   H13829832   2.362   0.775   4.593  1.6034 -0.9002  0.8627
  148MOL   H13929833   2.345   0.802   4.421  0.3268  1.2052  0.3409
  148MOL   H14029834   2.339   0.525   4.539 -2.7037 -1.1271 -0.4216
  148MOL   H14129835   2.378   0.555   4.372  1.0785  2.6214 -0.3690
  148MOL   O14229836   2.181   0.616   4.439  0.1515  0.1358  0.1925
  148MOL   C14329837   2.135   0.509   4.352 -0.8422  0.5373  0.3924
  148MOL   C14429838   1.984   0.507   4.355  0.1433 -0.2079  0.2692
  148MOL   C14529839   1.923   0.635   4.293  0.6102  0.5315 -0.5947
  148MOL   H14629840   2.166   0.418   4.404 -3.5432 -0.1476  0.8834
  148MOL   H14729841   2.188   0.501   4.257  2.1011 -0.8871  2.0577
  148MOL   H14829842   1.958   0.414   4.304 -0.6682 -1.2957  2.6152
  148MOL   H14929843   1.954   0.500   4.459  0.5855 -1.3596  0.3274
  148MOL   H15029844   1.963   0.728   4.332  0.2084  0.2213  0.5725
  148MOL   H15129845   1.817   0.635   4.317  0.6965 -1.3401 -0.0728
  148MOL   O15229846   1.950   0.631   4.154  0.1411 -0.6616 -0.1731
  148MOL   C15329847   1.890   0.747   4.094 -0.3162 -0.4555 -1.3355
  148MOL   C15429848   1.928   0.754   3.939  0.2366 -0.4439 -0.2847
  148MOL   C15529849   1.862   0.863   3.854  0.2028  0.7064  0.1786
  148MOL   H15629850   1.935   0.832   4.145 -0.6723 -0.6976 -0.6176
  148MOL   H15729851   1.785   0.741   4.122  0.5563  0.1435  2.3317
  148MOL   H15829852   2.034   0.765   3.917  0.5617  1.9153  2.0405
  148MOL   H15929853   1.910   0.652   3.905 -0.7559 -0.0012 -1.1173
  148MOL   H16029854   1.756   0.837   3.850  0.5648 -0.8092  0.0324
  148MOL   H16129855   1.895   0.851   3.751  2.1188  1.4013  0.6876
  148MOL   O16229856   1.884   0.993   3.902 -0.1953 -0.4450  0.5200
  148MOL   C16329857   1.799   1.089   3.839 -0.6334 -0.2772  0.0707
  148MOL   C16429858   1.759   1.199   3.943  0.3182  0.1079  0.1494
  148MOL   C16529859   1.885   1.284   3.979 -0.4723 -1.0637  0.0739
  148MOL   H16629860   1.709   1.036   3.807 -2.2934  2.0067  0.7923
  148MOL   H16729861   1.849   1.127   3.751 -0.0632  1.2539  1.0292
  148MOL   H16829862   1.677   1.264   3.913 -1.1799 -1.4487  0.7934
  148MOL   H16929863   1.726   1.152   4.035  2.3073 -0.4290  0.6174
  148MOL   H17029864   1.904   1.338   3.886  0.2378 -0.8759  0.3255
  148MOL   H17129865   1.973   1.226   4.004 -0.3048 -0.1987  1.5534
  148MOL   O17229866   1.864   1.377   4.081 -0.6111 -0.2755  0.3076
  148MOL   C17329867   1.984   1.433   4.130  0.0533  0.5943 -0.0527
  148MOL   C17429868   1.959   1.540   4.230  0.1028  0.1473 -0.6232
  148MOL   C17529869   2.082   1.578   4.314  0.1610  0.4237 -0.0548
  148MOL   H17629870   2.032   1.471   4.039  0.6470 -0.6827 -0.2757
  148MOL   H17729871   2.043   1.355   4.178  0.7761 -0.2799 -2.2671
  148MOL   H17829872   1.905   1.615   4.173 -0.8967  0.2858  0.4823
  148MOL   H17929873   1.881   1.504   4.297  1.1696 -0.7093  0.1721
  148MOL   H18029874   2.054   1.655   4.386  0.1636  0.5737 -0.2152
  148MOL   H18129875   2.150   1.637   4.252  1.4781 -1.3719 -0.3663
  148MOL   O18229876   2.134   1.470   4.393 -0.0669  0.0852  0.6074
  148MOL   C18329877   2.216   1.516   4.501 -0.2911 -0.5248  0.0978
  148MOL   C18429878   2.131   1.539   4.623  0.6157 -0.2726 -0.0333
  148MOL   C18529879   2.213   1.585   4.740  0.2116 -0.8493 -0.8425
  148MOL   H18629880   2.266   1.603   4.458  1.5207 -0.9205  1.3492
  148MOL   H18729881   2.292   1.441   4.525 -1.4574 -1.1764  1.8753
  148MOL   H18829882   2.050   1.609   4.604  0.8915  0.4023  1.2490
  148MOL   H18929883   2.091   1.439   4.638 -1.3342  0.4169 -0.5595
  148MOL   H19029884   2.251   1.685   4.720  0.0065 -0.5260  0.3675
  148MOL   H19129885   2.293   1.516   4.763  0.3567 -0.4084 -0.0156
  148MOL   O19229886   2.130   1.582   4.858 -0.5082 -0.0690  0.6091
  148MOL   C19329887   2.210   1.608   4.974 -0.3604  0.1332  0.7986
  148MOL   C19429888   2.113   1.619   5.099  0.2481  0.2308  0.6016
  148MOL   C19529889   2.056   1.484   5.153 -0.3858 -0.8382  0.5278
  148MOL   H19629890   2.269   1.699   4.959  0.3365 -0.6425 -1.3242
  148MOL   H19729891   2.275   1.524   4.997 -2.6661 -1.8385  0.3741
  148MOL   H19829892   2.161   1.677   5.178  0.1064 -1.8255  2.2450
  148MOL   H19929893   2.029   1.679   5.064 -2.5124 -2.8646  1.7196
  148MOL   H20029894   2.132   1.406   5.147  1.7905  1.1293  1.3804
  148MOL   H20129895   1.971   1.438   5.103 -0.2222 -0.9405  0.3438
  148MOL   H20229896   2.036   1.495   5.260  3.7543 -3.0023  1.6654
  149MOL     O129897   4.202   0.237   0.150 -0.4328  0.3798  0.1268
  149MOL     C229898   4.223   0.375   0.141  0.1714 -0.8427 -0.2736
  149MOL     C329899   4.278   0.419   0.009  0.1409  0.7070  0.3095
  149MOL     C429900   4.304   0.574   7.788  0.2065 -0.0847 -0.0780
  149MOL     H529901   4.285   0.411   0.223  0.6904 -2.4090  0.0397
  149MOL     H629902   4.121   0.408   0.158  0.6806  0.7959 -0.3741
  149MOL     H729903   4.376   0.373   7.787 -0.2456 -0.2666  0.9174
  149MOL     H829904   4.200   0.385   7.730 -0.8131  0.7696  1.3686
  149MOL     H929905   4.333   0.591   7.684 -2.1343  3.5980 -0.2206
  149MOL    H1029906   4.389   0.618   0.052 -1.2895  3.1836 -0.2783
  149MOL    H1129907   4.200   0.213   0.241  4.4011 -1.1503 -0.0549
  149MOL    O1229908   4.193   0.643   0.053  0.4688 -0.1380  0.0638
  149MOL    C1329909   4.202   0.781   0.047 -0.4082  0.5039  0.1780
  149MOL    C1429910   4.078   0.840   0.108 -0.8300  0.9246 -0.1186
  149MOL    C1529911   3.946   0.816   0.028  1.2587 -0.8127 -0.0915
  149MOL    H1629912   4.217   0.809   7.731  0.0611 -1.6514 -0.3516
  149MOL    H1729913   4.287   0.812   0.108 -0.2031  0.8236 -0.2634
  149MOL    H1829914   4.065   0.807   0.211 -0.4489  2.7925  0.5523
  149MOL    H1929915   4.110   0.944   0.116 -1.3832  1.1746 -1.0345
  149MOL    H2029916   3.931   0.713   7.786 -0.7792 -0.6342  0.2370
  149MOL    H2129917   3.963   0.868   7.722 -2.8804 -0.4456 -0.7211
  149MOL    O2229918   3.833   0.872   0.092  0.6416 -0.3133 -0.1996
  149MOL    C2329919   3.719   0.869   7.788  0.8091  0.0302 -0.1299
  149MOL    C2429920   3.605   0.913   0.095 -0.4407  0.5804 -0.0566
  149MOL    C2529921   3.486   0.971   0.020  0.6611 -0.3792  0.1368
  149MOL    H2629922   3.710   0.768   7.750 -0.0698 -0.2380  0.7866
  149MOL    H2729923   3.731   0.944   7.709 -0.0332  0.2045 -0.0929
  149MOL    H2829924   3.571   0.821   0.141 -0.1271  0.2136 -0.5577
  149MOL    H2929925   3.637   0.970   0.182  2.1165  0.7642 -1.0902
  149MOL    H3029926   3.447   0.890   7.747  1.8173 -0.6798 -0.2124
  149MOL    H3129927   3.503   1.042   7.727 -0.5900 -0.5502 -0.2913
  149MOL    O3229928   3.399   1.016   0.117  0.2631  0.0490  1.0079
  149MOL    C3329929   3.267   1.038   0.062 -0.0057  0.0873 -0.1793
  149MOL    C3429930   3.179   1.127   0.150 -0.7857 -0.2873  0.0399
  149MOL    C3529931   3.049   1.178   0.089  0.0268  1.4397 -0.6769
  149MOL    H3629932   3.227   0.937   0.059  0.3757 -0.1147  1.1057
  149MOL    H3729933   3.274   1.083   7.751  0.7591 -0.2803 -0.2968
  149MOL    H3829934   3.152   1.073   0.241 -0.8323 -0.6261 -0.1725
  149MOL    H3929935   3.236   1.205   0.201  0.1930 -0.4252 -0.8242
  149MOL    H4029936   3.013   1.244   0.168 -1.3331 -1.4800  1.2265
  149MOL    H4129937   2.981   1.095   0.072  2.1946 -0.4570 -0.4542
  149MOL    O4229938   3.069   1.253   7.756  0.7991  0.2185  0.1521
  149MOL    C4329939   2.952   1.326   7.718 -0.5534  0.2744 -0.1533
  149MOL    C4429940   2.957   1.361   7.565  0.0332  0.5656  0.2911
  149MOL    C4529941   2.839   1.444   7.511  0.6428  0.8551  0.5057
  149MOL    H4629942   2.947   1.416   7.781  2.1172  1.1068 -1.1020
  149MOL    H4729943   2.860   1.268   7.731 -1.8699  2.5957  1.4722
  149MOL    H4829944   3.051   1.416   7.555  1.7374 -2.1971  0.6315
  149MOL    H4929945   2.962   1.276   7.498  2.4737  0.6864  0.2620
  149MOL    H5029946   2.855   1.474   7.408  1.4308  2.0830  0.9784
  149MOL    H5129947   2.820   1.535   7.569  1.4702  0.5166  1.3338
  149MOL    O5229948   2.724   1.361   7.526 -0.4461  0.6253 -0.1171
  149MOL    C5329949   2.590   1.403   7.490  0.5734  0.0273  0.4686
  149MOL    C5429950   2.500   1.277   7.512  0.2979 -0.2459 -0.0976
  149MOL    C5529951   2.494   1.226   7.659 -0.2819 -0.0668  0.0014
  149MOL    H5629952   2.590   1.437   7.387  2.0351 -0.6122  0.2447
  149MOL    H5729953   2.566   1.482   7.561 -1.0636  0.0394 -0.0893
  149MOL    H5829954   2.403   1.318   7.486  0.6029 -0.1177 -1.0568
  149MOL    H5929955   2.514   1.197   7.440  2.1032 -2.5121  2.6374
  149MOL    H6029956   2.474   1.303   7.734  3.0223  0.3947  0.5003
  149MOL    H6129957   2.590   1.178   7.678  0.0787  1.1076  1.3149
  149MOL    O6229958   2.392   1.126   7.660 -0.0108 -0.4606 -0.1447
  149MOL    C6329959   2.362   1.074   0.003 -0.5001  0.1681 -0.2568
  149MOL    C6429960   2.246   0.969   7.780  0.0990 -0.5947 -0.2920
  149MOL    C6529961   2.226   0.900   0.119 -0.1238  0.5210  0.1464
  149MOL    H6629962   2.312   1.154   0.058 -0.0371  0.1180  0.2386
  149MOL    H6729963   2.451   1.044   0.057  0.6208  0.3837 -1.9547
  149MOL    H6829964   2.155   1.014   7.741 -0.7785 -2.2688 -0.2347
  149MOL    H6929965   2.281   0.901   7.702  0.7823 -2.8716  1.9234
  149MOL    H7029966   2.207   0.971   0.199 -0.8845 -0.0038  0.4366
  149MOL    H7129967   2.303   0.831   0.151  0.8603  0.5165 -2.1100
  149MOL    O7229968   2.106   0.821   0.107 -0.0308 -0.3990 -0.1022
  149MOL    C7329969   2.069   0.758   0.225  0.0733  0.5657 -0.0986
  149MOL    C7429970   1.935   0.691   0.206 -0.5832  0.7146  0.6654
  149MOL    C7529971   1.872   0.626   0.331  0.3005  0.0655 -0.1216
  149MOL    H7629972   2.073   0.825   0.311  0.7331  0.8103 -0.3126
  149MOL    H7729973   2.153   0.691   0.242 -0.9299 -0.7823 -0.4380
  149MOL    H7829974   1.872   0.752   0.142 -0.2560  1.2601  0.8661
  149MOL    H7929975   1.954   0.608   0.137 -1.3751  0.2102  1.0404
  149MOL    H8029976   1.832   0.703   0.397 -0.1041 -0.1366 -0.1321
  149MOL    H8129977   1.933   0.554   0.385 -0.3386 -0.0109  0.5135
  149MOL    O8229978   1.750   0.558   0.292 -0.4341  0.5855 -0.3204
  149MOL    C8329979   1.694   0.482   0.400 -0.1343 -0.5201  0.6417
  149MOL    C8429980   1.556   0.413   0.361 -0.2650  0.3274  0.3861
  149MOL    C8529981   1.466   0.381   0.478  0.3753  0.0867 -0.1531
  149MOL    H8629982   1.684   0.548   0.486  0.3945  1.6824 -0.9332
  149MOL    H8729983   1.765   0.404   0.429  1.4203  1.1989  1.5776
  149MOL    H8829984   1.498   0.477   0.295 -2.6641 -1.0470  1.0618
  149MOL    H8929985   1.581   0.328   0.297 -0.9968 -0.7379  1.4788
  149MOL    H9029986   1.375   0.350   0.426  0.1272 -1.6333  1.2538
  149MOL    H9129987   1.460   0.472   0.537  1.0771 -1.1248  1.8442
  149MOL    O9229988   1.515   0.281   0.562 -0.2667  0.0851 -0.3533
  149MOL    C9329989   1.439   0.278   0.684  0.3471  0.1524  0.0142
  149MOL    C9429990   1.507   0.177   0.766 -1.1105 -0.6235 -0.3266
  149MOL    C9529991   1.436   0.140   0.898  0.0229 -0.1209 -0.0396
  149MOL    H9629992   1.339   0.243   0.659 -0.5761  1.4108  1.8161
  149MOL    H9729993   1.434   0.368   0.746  0.4796  1.2974 -1.5835
  149MOL    H9829994   1.518   0.086   0.706 -2.7587 -0.8253 -0.3587
  149MOL    H9929995   1.613   0.199   0.780 -0.9983 -0.7092 -1.0213
  149MOL   H10029996   1.425   0.231   0.957 -0.4514  0.1630 -0.5643
  149MOL   H10129997   1.498   0.072   0.957 -0.7544 -1.5528 -0.8655
  149MOL   O10229998   1.298   0.095   0.873 -0.0487 -0.9277  0.2884
  149MOL   C10329999   1.225   0.076   0.995 -0.3500 -0.3123 -0.1076
  149MOL   C10430000   1.093   0.015   0.957  0.8651 -0.0602  0.3478
  149MOL   C10530001   1.104   7.672   0.883  0.0636  0.5799  0.1840
  149MOL   H10630002   1.219   0.168   1.053 -1.7894  0.0089 -0.7423
  149MOL   H10730003   1.280   7.786   1.048  1.2918  0.0380 -1.2289
  149MOL   H10830004   1.032   7.778   1.044  1.1611 -0.0526  0.5560
  149MOL   H10930005   1.037   0.089   0.900 -1.4236 -0.9180  1.3909
  149MOL   H11030006   1.166   7.602   0.938  2.6425  0.6995 -2.4467
  149MOL   H11130007   1.153   7.696   0.788  0.8583 -1.2753  0.1061
  149MOL   O11230008   0.980   7.616   0.857 -0.6590  0.8322 -0.0469
  149MOL   C11330009   0.984   7.482   0.815 -0.1190  0.2452  0.3974
  149MOL   C11430010   0.846   7.421   0.791 -0.5189  0.3684  0.2895
  149MOL   C11530011   0.868   7.283   0.726 -0.0595 -0.2980  0.4777
  149MOL   H11630012   1.031   7.425   0.894  0.0964  0.0061  0.0991
  149MOL   H11730013   1.046   7.474   0.725 -0.4361 -0.0584  0.2052
  149MOL   H11830014   0.794   7.419   0.886 -0.4414  1.8237  0.3624
  149MOL   H11930015   0.790   7.491   0.729  0.8526  0.4037 -0.9466
  149MOL   H12030016   0.925   7.279   0.633  0.6620  1.0636  0.8456
  149MOL   H12130017   0.770   7.242   0.700 -0.2403 -0.8305  1.9329
  149MOL   O12230018   0.919   7.197   0.826  0.1967  0.3453  0.1923
  149MOL   C12330019   0.934   7.064   0.770 -0.0624  0.1778 -0.4982
  149MOL   C12430020   0.962   6.976   0.891 -0.1353  0.1970 -0.2257
  149MOL   C12530021   1.097   7.005   0.965  0.6545 -0.3601  0.0462
  149MOL   H12630022   1.015   7.070   0.696 -0.5496 -0.9986 -1.1496
  149MOL   H12730023   0.854   7.020   0.710 -1.1946  0.0653  1.0796
  149MOL   H12830024   0.878   6.960   0.958  0.3725 -0.1104  0.3479
  149MOL   H12930025   0.966   6.874   0.855 -0.8160 -0.7965  2.3750
  149MOL   H13030026   1.163   7.057   0.896  1.0617  0.0390  0.7375
  149MOL   H13130027   1.153   6.917   0.996 -0.2654 -1.0588 -0.2626
  149MOL   O13230028   1.064   7.091   1.077 -0.7330  0.5578 -0.0264
  149MOL   C13330029   1.168   7.190   1.095 -0.2711 -0.2504  0.3815
  149MOL   C13430030   1.116   7.299   1.191  0.2693  0.1612  0.1565
  149MOL   C13530031   1.210   7.409   1.227  0.0795 -0.4493 -0.8139
  149MOL   H13630032   1.200   7.237   1.002 -0.9306  1.7896  1.1593
  149MOL   H13730033   1.260   7.147   1.136  1.2464  2.0789 -0.5410
  149MOL   H13830034   1.026   7.336   1.143  0.2200 -2.1820 -1.6439
  149MOL   H13930035   1.090   7.251   1.286  0.6319  0.1748  0.2634
  149MOL   H14030036   1.237   7.474   1.143  0.2386 -0.5156 -0.8148
  149MOL   H14130037   1.301   7.367   1.270 -0.0913  1.7117  1.7801
  149MOL   O14230038   1.151   7.490   1.323 -0.2368 -0.0828 -0.8638
  149MOL   C14330039   1.066   7.591   1.281 -0.0961  0.4893 -0.1692
  149MOL   C14430040   0.972   7.644   1.392  0.7872  0.3390 -0.4566
  149MOL   C14530041   0.880   7.753   1.331 -0.4375 -0.1470  1.3043
  149MOL   H14630042   1.007   7.553   1.197  0.7479  0.7311 -0.8736
  149MOL   H14730043   1.138   7.665   1.248  1.2935 -0.7766 -0.0121
  149MOL   H14830044   0.920   7.563   1.444  0.2788  1.8144  1.3797
  149MOL   H14930045   1.029   7.695   1.470  0.2134  2.4641 -1.3922
  149MOL   H15030046   0.790   7.758   1.393 -0.1650  0.4622  1.6597
  149MOL   H15130047   0.838   7.725   1.235  1.4899  0.1561  0.3660
  149MOL   O15230048   0.947   0.090   1.334  0.5852  0.4837  0.8048
  149MOL   C15330049   0.895   0.187   1.240 -0.8353  0.2997 -0.0531
  149MOL   C15430050   1.010   0.296   1.246  0.0487 -1.0240 -0.1184
  149MOL   C15530051   1.014   0.371   1.375 -0.2108  0.1114 -0.7081
  149MOL   H15630052   0.799   0.222   1.278 -1.3377  0.1263 -1.1661
  149MOL   H15730053   0.892   0.143   1.141 -1.4019  0.6484 -0.1943
  149MOL   H15830054   1.108   0.251   1.235  0.0862 -1.9430  3.5233
  149MOL   H15930055   0.990   0.378   1.177  0.4633  1.3474  2.5129
  149MOL   H16030056   1.037   0.293   1.447 -0.5934  1.8477  1.3596
  149MOL   H16130057   0.922   0.418   1.411  0.2937 -0.2075  1.0458
  149MOL   O16230058   1.116   0.466   1.379 -0.0904  0.0843 -0.3140
  149MOL   C16330059   1.111   0.526   1.509 -0.2243 -0.2420 -0.2674
  149MOL   C16430060   1.221   0.629   1.530 -0.7667  0.1403 -0.5881
  149MOL   C16530061   1.218   0.730   1.408 -0.1690  0.0532 -0.3482
  149MOL   H16630062   1.125   0.446   1.583  0.5453  0.9598  0.9112
  149MOL   H16730063   1.017   0.575   1.535 -0.3356 -1.5573  1.9490
  149MOL   H16830064   1.210   0.684   1.624 -0.0169  0.6001 -0.7674
  149MOL   H16930065   1.318   0.581   1.528 -0.7907  0.1218 -1.6478
  149MOL   H17030066   1.120   0.775   1.395 -0.2142  0.3370  0.8874
  149MOL   H17130067   1.243   0.685   1.312  0.3156 -1.4784  0.4796
  149MOL   O17230068   1.304   0.840   1.436  0.1024  0.2442 -0.0178
  149MOL   C17330069   1.306   0.936   1.332 -0.7012  0.2048 -0.0027
  149MOL   C17430070   1.399   1.056   1.370  0.1680  0.4163 -0.3165
  149MOL   C17530071   1.545   1.031   1.396  0.4766  0.1294  0.3321
  149MOL   H17630072   1.208   0.975   1.304 -0.6661  0.4235  0.1797
  149MOL   H17730073   1.352   0.889   1.245 -0.7261 -0.3873  0.3027
  149MOL   H17830074   1.392   1.134   1.294  0.7803 -1.8278 -2.7920
  149MOL   H17930075   1.359   1.097   1.462  0.8444 -0.6869  0.4853
  149MOL   H18030076   1.562   0.949   1.466  1.6975 -0.0970 -0.2189
  149MOL   H18130077   1.586   1.118   1.449 -1.6609  1.2175  0.2473
  149MOL   O18230078   1.618   1.016   1.270 -0.6111 -0.4844 -0.2722
  149MOL   C18330079   1.757   0.991   1.295 -0.6219  0.4038 -0.7967
  149MOL   C18430080   1.840   0.926   1.180 -0.5492 -0.1714  1.2214
  149MOL   C18530081   1.759   0.802   1.133  0.4076 -0.9176  0.1560
  149MOL   H18630082   1.771   0.915   1.372 -0.2228 -0.6065 -1.8514
  149MOL   H18730083   1.795   1.090   1.320  3.6021 -1.5567  1.1495
  149MOL   H18830084   1.877   0.994   1.103 -0.5255 -0.4795  0.9575
  149MOL   H18930085   1.934   0.898   1.226 -1.1305 -0.5822  2.1621
  149MOL   H19030086   1.667   0.838   1.087  0.6061 -0.3551  0.2022
  149MOL   H19130087   1.739   0.744   1.223 -1.7999 -2.0000 -0.9819
  149MOL   O19230088   1.844   0.727   1.051  0.0601  0.3701 -0.2416
  149MOL   C19330089   1.798   0.592   1.021  0.8297 -0.1977 -0.5188
  149MOL   C19430090   1.764   0.584   0.867  0.0327  0.3319  0.8680
  149MOL   C19530091   1.739   0.448   0.812  0.1160  0.5118  0.1316
  149MOL   H19630092   1.713   0.569   1.085  1.2836  1.8301  0.8308
  149MOL   H19730093   1.875   0.519   1.047  0.7928 -0.6328 -1.5887
  149MOL   H19830094   1.675   0.642   0.844 -1.1686 -1.6175  0.4565
  149MOL   H19930095   1.838   0.646   0.817 -2.6973  2.1311 -1.0945
  149MOL   H20030096   1.839   0.407   0.797  1.2839  2.8985  1.1135
  149MOL   H20130097   1.694   0.455   0.713 -2.9401 -2.0901  1.2586
  149MOL   H20230098   1.674   0.382   0.870  0.8437 -0.1595  0.2049
  150MOL     O130099   1.349   4.865   7.275 -0.5508 -0.0141  0.2616
  150MOL     C230100   1.486   4.916   7.263  0.6067  0.5331  0.9342
  150MOL     C330101   1.506   4.985   7.128 -0.7332 -0.2784 -0.8776
  150MOL     C430102   1.645   5.037   7.112  0.3785  0.2510  0.1332
  150MOL     H530103   1.563   4.839   7.267  1.0244  0.6381 -3.1678
  150MOL     H630104   1.493   4.979   7.351  1.1941  0.2807  1.0720
  150MOL     H730105   1.482   4.913   7.050 -0.3329  1.2645 -2.4653
  150MOL     H830106   1.433   5.064   7.113  0.4425  0.4890 -2.8390
  150MOL     H930107   1.663   5.084   7.015  1.2975 -0.6624 -0.1543
  150MOL    H1030108   1.714   4.955   7.134 -0.3460 -0.3454  0.1888
  150MOL    H1130109   1.336   4.823   7.359 -0.0366 -2.5880 -0.8932
  150MOL    O1230110   1.668   5.136   7.207  0.2488 -0.2254 -0.2210
  150MOL    C1330111   1.811   5.168   7.224  0.2453  0.2990  0.1014
  150MOL    C1430112   1.820   5.243   7.359 -0.4950 -0.2490 -0.2534
  150MOL    C1530113   1.809   5.159   7.489 -0.4171 -0.2684 -0.2220
  150MOL    H1630114   1.845   5.226   7.138  0.0671  1.7149  0.9734
  150MOL    H1730115   1.888   5.090   7.217 -1.8108 -1.9494  1.7349
  150MOL    H1830116   1.924   5.274   7.361 -0.0491 -1.7187  2.0237
  150MOL    H1930117   1.754   5.330   7.363  0.0647  0.2056 -0.8281
  150MOL    H2030118   1.862   5.065   7.482 -0.0045 -0.0749  0.3218
  150MOL    H2130119   1.707   5.133   7.517 -0.5510 -1.3999 -1.7019
  150MOL    O2230120   1.866   5.240   7.586 -0.0543 -0.0131  0.5607
  150MOL    C2330121   1.845   5.199   7.722 -0.0170  0.3971  0.3187
  150MOL    C2430122   1.707   5.241   7.775 -0.1198 -0.0881 -0.5331
  150MOL    C2530123   1.690   5.198   0.132 -0.5940 -0.1637 -0.1369
  150MOL    H2630124   1.927   5.233   7.786  3.0272 -2.2567 -1.9917
  150MOL    H2730125   1.855   5.092   7.737 -1.8879 -0.7640 -5.5862
  150MOL    H2830126   1.688   5.348   7.769  0.6073  0.0977  0.5042
  150MOL    H2930127   1.627   5.202   7.711  1.6317 -2.4012 -1.3732
  150MOL    H3030128   1.729   5.273   0.201 -0.3542  0.9219 -1.4391
  150MOL    H3130129   1.736   5.101   0.153  0.8630  0.7390  0.9216
  150MOL    O3230130   1.554   5.191   0.179 -0.0673 -0.3203 -0.2836
  150MOL    C3330131   1.538   5.150   0.317 -1.0985 -0.1581  0.7767
  150MOL    C3430132   1.390   5.131   0.341 -0.0345 -0.1300  0.4714
  150MOL    C3530133   1.374   5.105   0.494  0.1848 -0.2563  0.0331
  150MOL    H3630134   1.588   5.223   0.382 -1.2997 -1.5912  2.5619
  150MOL    H3730135   1.591   5.056   0.327 -0.8502 -0.8435 -5.0557
  150MOL    H3830136   1.332   5.220   0.319  1.0634  0.6815  0.8560
  150MOL    H3930137   1.357   5.048   0.278 -0.9963 -1.4436  2.6142
  150MOL    H4030138   1.406   5.190   0.554 -1.8202  2.6177 -2.7610
  150MOL    H4130139   1.430   5.015   0.521 -0.9441 -1.0561 -0.2601
  150MOL    O4230140   1.241   5.084   0.518  0.3750  0.4399  0.0994
  150MOL    C4330141   1.205   5.082   0.654 -0.4850 -0.0034  0.1053
  150MOL    C4430142   1.100   4.981   0.676 -0.8303 -0.5613  0.1194
  150MOL    C4530143   1.155   4.845   0.644  0.3894  0.8584  0.1119
  150MOL    H4630144   1.176   5.186   0.673 -1.4476 -0.3120  0.3322
  150MOL    H4730145   1.293   5.057   0.713  1.0765  0.0707 -2.1414
  150MOL    H4830146   1.061   4.989   0.778  1.8672  1.2093  1.0693
  150MOL    H4930147   1.023   4.989   0.599  0.4777  2.0165 -0.9679
  150MOL    H5030148   1.164   4.838   0.535 -1.8149 -2.4052  0.0784
  150MOL    H5130149   1.075   4.771   0.655  1.3946 -0.2828 -0.0566
  150MOL    O5230150   1.254   4.821   0.737 -0.2665  0.1893 -0.7046
  150MOL    C5330151   1.342   4.711   0.727 -0.0776  0.7426 -0.3839
  150MOL    C5430152   1.428   4.719   0.858  0.5647 -0.3013 -0.0437
  150MOL    C5530153   1.506   4.844   0.864 -0.2779 -0.0804  0.0426
  150MOL    H5630154   1.399   4.723   0.636 -1.5734 -1.0704 -1.6122
  150MOL    H5730155   1.289   4.616   0.716 -0.3208  0.6497  1.3642
  150MOL    H5830156   1.356   4.713   0.941  1.2781 -0.2184  0.5863
  150MOL    H5930157   1.486   4.628   0.877 -2.1401 -1.9355  0.6840
  150MOL    H6030158   1.564   4.848   0.957 -1.4360 -0.6928  0.8017
  150MOL    H6130159   1.444   4.933   0.859 -0.2656 -0.1622 -1.6707
  150MOL    O6230160   1.608   4.857   0.763  0.0153  1.0367  0.2395
  150MOL    C6330161   1.651   4.987   0.753  0.1346  0.2405  0.2055
  150MOL    C6430162   1.754   5.003   0.636 -0.3688  0.4880 -0.3557
  150MOL    C6530163   1.836   5.133   0.634  0.5802 -0.2465 -0.0933
  150MOL    H6630164   1.694   5.008   0.851  0.1911  0.8812  0.0514
  150MOL    H6730165   1.569   5.055   0.727 -1.0654 -0.9216  0.8921
  150MOL    H6830166   1.823   4.919   0.646 -1.2916 -0.4572 -1.6933
  150MOL    H6930167   1.706   4.983   0.540  1.3773 -0.2484 -1.1013
  150MOL    H7030168   1.917   5.141   0.561  3.1876 -2.3846  2.4227
  150MOL    H7130169   1.887   5.142   0.730  1.6142 -0.4928 -0.6156
  150MOL    O7230170   1.737   5.241   0.618  0.3072  0.0563 -0.0540
  150MOL    C7330171   1.786   5.376   0.588 -0.8586 -0.2451  0.5672
  150MOL    C7430172   1.817   5.395   0.440 -0.1731 -0.4854 -0.2521
  150MOL    C7530173   1.719   5.490   0.358 -0.7194 -0.0242  0.6162
  150MOL    H7630174   1.868   5.413   0.650 -2.2394  1.6123  1.3243
  150MOL    H7730175   1.701   5.443   0.601  1.3207  2.4986  0.9903
  150MOL    H7830176   1.911   5.449   0.430 -0.1195 -0.9186 -2.2226
  150MOL    H7930177   1.822   5.294   0.399 -0.8603 -0.0049 -1.5447
  150MOL    H8030178   1.691   5.583   0.407 -1.2598  1.7875 -2.9903
  150MOL    H8130179   1.628   5.432   0.348  0.3041 -1.5016 -0.2457
  150MOL    O8230180   1.764   5.524   0.228 -0.1082  0.5366  0.0199
  150MOL    C8330181   1.671   5.598   0.150 -0.1619  0.0466  0.3493
  150MOL    C8430182   1.736   5.645   0.022 -0.2584  0.2606 -0.1689
  150MOL    C8530183   1.630   5.720   7.735  0.1737 -0.1912  0.6170
  150MOL    H8630184   1.645   5.688   0.207  1.8643  1.3289 -0.6578
  150MOL    H8730185   1.596   5.524   0.125 -2.5774  2.6816 -0.4408
  150MOL    H8830186   1.811   5.720   0.046  2.2486 -2.0178 -0.6979
  150MOL    H8930187   1.785   5.560   7.763 -3.0379 -1.8661  0.6330
  150MOL    H9030188   1.595   5.806   0.006  2.7509  2.5952 -1.7239
  150MOL    H9130189   1.547   5.651   7.723  0.0600  0.4110 -2.2371
  150MOL    O9230190   1.676   5.772   7.609  0.0653 -0.3976 -0.0938
  150MOL    C9330191   1.564   5.851   7.562  0.0198 -0.4031 -0.0866
  150MOL    C9430192   1.576   5.881   7.405  0.5383  0.0885 -0.2600
  150MOL    C9530193   1.475   5.977   7.350  0.2192  0.0208 -0.0898
  150MOL    H9630194   1.561   5.943   7.620  3.3410 -0.9700  1.0937
  150MOL    H9730195   1.473   5.791   7.567  0.9887 -1.7925  1.1752
  150MOL    H9830196   1.675   5.918   7.377 -0.3027  3.3824  0.8860
  150MOL    H9930197   1.559   5.786   7.356  1.0378 -0.4128  0.5232
  150MOL   H10030198   1.455   6.049   7.429 -2.0198  0.4612 -1.0088
  150MOL   H10130199   1.373   5.942   7.333 -0.2714  1.4391 -0.1430
  150MOL   O10230200   1.519   6.034   7.234 -0.3369  0.3050  0.6678
  150MOL   C10330201   1.451   6.153   7.180  0.1773  0.0426  0.4993
  150MOL   C10430202   1.452   6.155   7.029 -0.2263 -0.3297 -0.4451
  150MOL   C10530203   1.370   6.032   6.981 -0.4823 -0.5719  0.7889
  150MOL   H10630204   1.515   6.233   7.220  1.4856 -0.0875 -1.2707
  150MOL   H10730205   1.356   6.161   7.232  0.3966  0.9070  0.7811
  150MOL   H10830206   1.405   6.247   6.995 -0.9256  0.0542  1.4921
  150MOL   H10930207   1.551   6.163   6.985  0.1556 -0.9596  0.2734
  150MOL   H11030208   1.270   6.031   7.025 -0.4962 -0.5783  0.7565
  150MOL   H11130209   1.412   5.939   7.019 -0.8486 -0.5479  1.2563
  150MOL   O11230210   1.366   6.014   6.843  0.4622 -0.7038 -0.3603
  150MOL   C11330211   1.291   5.899   6.806 -0.3598 -0.2409 -0.0855
  150MOL   C11430212   1.326   5.884   6.657 -0.3729 -0.2041  0.1372
  150MOL   C11530213   1.283   5.756   6.586  0.3948  0.4018 -0.3449
  150MOL   H11630214   1.186   5.914   6.830 -0.3107  1.6502 -0.9691
  150MOL   H11730215   1.328   5.808   6.854  0.2037  0.9313  1.7434
  150MOL   H11830216   1.297   5.977   6.609  0.8973  0.0192 -0.2337
  150MOL   H11930217   1.435   5.884   6.655 -0.3628  2.1676 -1.3173
  150MOL   H12030218   1.176   5.739   6.601  0.6744 -0.3698  0.8322
  150MOL   H12130219   1.339   5.668   6.619 -1.9026 -0.3670  1.6384
  150MOL   O12230220   1.303   5.762   6.439 -0.2241 -0.0780 -0.2075
  150MOL   C12330221   1.437   5.791   6.393 -0.8122 -0.4572  0.7013
  150MOL   C12430222   1.439   5.764   6.245 -0.3611  0.4061 -0.4165
  150MOL   C12530223   1.419   5.880   6.154 -0.1283  0.0030 -0.7138
  150MOL   H12630224   1.505   5.724   6.446 -0.3957  0.2432  1.0655
  150MOL   H12730225   1.478   5.891   6.407 -0.2022 -0.5002 -0.7419
  150MOL   H12830226   1.536   5.719   6.224 -0.3175 -0.4884  1.5562
  150MOL   H12930227   1.364   5.687   6.234 -1.0726  0.6830  2.0634
  150MOL   H13030228   1.501   5.949   6.171  0.4145 -1.2188  1.9173
  150MOL   H13130229   1.329   5.928   6.194 -0.9582 -1.0013 -1.3688
  150MOL   O13230230   1.419   5.823   6.021 -0.1175  1.1097 -0.0051
  150MOL   C13330231   1.433   5.922   5.920  1.2435 -0.3641  0.2778
  150MOL   C13430232   1.438   5.851   5.788  0.3816 -0.4754  0.1741
  150MOL   C13530233   1.548   5.742   5.792 -0.1749 -0.1883  0.0948
  150MOL   H13630234   1.526   5.977   5.933  1.2396 -0.3272  0.1448
  150MOL   H13730235   1.351   5.994   5.926  0.4180 -1.1676 -1.0726
  150MOL   H13830236   1.344   5.802   5.764 -2.2015  4.6632 -1.0845
  150MOL   H13930237   1.443   5.922   5.705 -0.2508 -1.0796 -0.3838
  150MOL   H14030238   1.517   5.665   5.863  1.6252 -1.2940 -0.3026
  150MOL   H14130239   1.642   5.774   5.836  1.7311 -3.3901 -1.4719
  150MOL   O14230240   1.569   5.675   5.667  0.2241  0.4341 -0.3299
  150MOL   C14330241   1.664   5.575   5.674 -0.9829  0.0043 -0.8005
  150MOL   C14430242   1.721   5.528   5.543 -0.6337  0.8836  0.0385
  150MOL   C14530243   1.825   5.415   5.553  0.3030 -0.2725 -0.7764
  150MOL   H14630244   1.617   5.487   5.718  1.2151 -1.8653 -2.1007
  150MOL   H14730245   1.746   5.600   5.741 -0.5648 -2.8993 -0.1862
  150MOL   H14830246   1.636   5.507   5.479 -0.7847  0.2357  0.4416
  150MOL   H14930247   1.763   5.613   5.489  0.0738  0.6153  0.1518
  150MOL   H15030248   1.777   5.330   5.601  1.2291  1.2153  2.9128
  150MOL   H15130249   1.909   5.434   5.619  0.7505 -4.1604 -0.0943
  150MOL   O15230250   1.876   5.381   5.428  0.4700  0.5173  0.5058
  150MOL   C15330251   1.789   5.327   5.334 -0.1667 -0.1569 -0.3004
  150MOL   C15430252   1.851   5.349   5.196  0.0708  0.1070 -0.2909
  150MOL   C15530253   1.838   5.229   5.107 -0.2228 -1.0248 -0.0581
  150MOL   H15630254   1.689   5.372   5.332 -1.2367 -2.4093  0.5429
  150MOL   H15730255   1.790   5.223   5.367 -1.6363  0.1118  0.6344
  150MOL   H15830256   1.804   5.440   5.158  1.3466  1.5724  1.5190
  150MOL   H15930257   1.959   5.361   5.206  0.1765  0.8912 -2.1765
  150MOL   H16030258   1.734   5.197   5.112 -0.6294  0.3739  0.7746
  150MOL   H16130259   1.887   5.140   5.146  1.6482 -0.3551 -0.8127
  150MOL   O16230260   1.882   5.267   4.980  0.2518 -0.1710 -0.2847
  150MOL   C16330261   2.019   5.236   4.954  0.1717 -0.1320  0.5804
  150MOL   C16430262   2.051   5.286   4.808 -0.6442 -0.1174 -0.0362
  150MOL   C16530263   2.197   5.270   4.777 -0.3330  0.5468  0.2480
  150MOL   H16630264   2.038   5.129   4.961 -1.7099 -0.4093  1.8911
  150MOL   H16730265   2.078   5.290   5.029  3.3373 -0.6132 -1.4674
  150MOL   H16830266   1.989   5.244   4.728 -0.1825  1.7066 -1.3810
  150MOL   H16930267   2.034   5.394   4.807 -0.3023 -0.0475  1.4070
  150MOL   H17030268   2.261   5.331   4.841  2.0070 -0.0590 -1.4220
  150MOL   H17130269   2.206   5.310   4.676 -2.2129  0.9647  0.2377
  150MOL   O17230270   2.229   5.136   4.776 -0.0226 -0.1816 -0.7643
  150MOL   C17330271   2.343   5.104   4.703 -0.3669  0.5948 -0.7390
  150MOL   C17430272   2.379   4.960   4.750  0.5583  0.6447 -0.3942
  150MOL   C17530273   2.278   4.856   4.711 -0.4875  0.0049  0.0126
  150MOL   H17630274   2.430   5.167   4.722 -0.0590  1.1989 -3.8114
  150MOL   H17730275   2.323   5.115   4.596 -0.6629  0.9937 -0.6420
  150MOL   H17830276   2.475   4.939   4.704 -0.7787 -1.5901 -2.3066
  150MOL   H17930277   2.392   4.955   4.858 -2.4422 -0.8105 -0.0269
  150MOL   H18030278   2.241   4.885   4.613  1.0142 -0.0827 -0.5882
  150MOL   H18130279   2.194   4.862   4.781  0.2827  1.3188  0.8423
  150MOL   O18230280   2.325   4.724   4.707 -0.1115  0.1436  0.6541
  150MOL   C18330281   2.238   4.617   4.677 -0.3075  0.0935  0.0161
  150MOL   C18430282   2.313   4.490   4.661  0.0411  0.2349  1.2188
  150MOL   C18530283   2.221   4.363   4.661 -0.4546 -0.0308  0.5007
  150MOL   H18630284   2.166   4.639   4.599 -0.7369  0.6960  0.5722
  150MOL   H18730285   2.173   4.614   4.764 -0.1881 -1.0694  0.0632
  150MOL   H18830286   2.381   4.498   4.576 -0.4137 -0.2317  0.8040
  150MOL   H18930287   2.390   4.474   4.736  0.1374  1.2231  1.3411
  150MOL   H19030288   2.291   4.287   4.625 -0.1310 -1.1777  3.4113
  150MOL   H19130289   2.131   4.363   4.600 -0.8866  1.4586  1.1053
  150MOL   O19230290   2.182   4.341   4.797 -0.0534  0.0277 -0.5580
  150MOL   C19330291   2.103   4.224   4.805  0.0814 -0.3568 -0.5600
  150MOL   C19430292   2.084   4.202   4.951 -0.2978  0.8500  0.1978
  150MOL   C19530293   1.988   4.091   4.994 -0.1321 -0.2603  0.1148
  150MOL   H19630294   2.149   4.141   4.751  2.3365  0.6177 -0.1836
  150MOL   H19730295   2.006   4.244   4.759 -0.3767 -1.7412 -0.2099
  150MOL   H19830296   2.182   4.187   4.996 -0.2811 -1.5749 -0.5915
  150MOL   H19930297   2.057   4.301   4.988 -2.4322  0.8212 -1.2260
  150MOL   H20030298   2.025   3.993   4.965  1.8493  0.4776  0.0965
  150MOL   H20130299   1.889   4.096   4.948 -0.7156 -0.3458  1.3384
  150MOL   H20230300   1.973   4.094   5.102  1.0488 -0.2459  0.2775
  151MOL     O130301   5.281   0.238   5.382  0.0654 -0.1081 -0.1285
  151MOL     C230302   5.389   0.192   5.461 -0.0938 -0.5598  0.7917
  151MOL     C330303   5.452   0.061   5.401  0.4902  0.2610  0.2534
  151MOL     C430304   5.558   7.779   5.492  0.3059  0.4633 -0.4389
  151MOL     H530305   5.346   0.172   5.559 -2.0928 -1.3328 -0.2251
  151MOL     H630306   5.473   0.260   5.472 -1.6670  1.4349  0.7748
  151MOL     H730307   5.374   7.777   5.383  0.0390  0.4546  1.3752
  151MOL     H830308   5.498   0.087   5.305  0.2378 -0.5756 -0.0948
  151MOL     H930309   5.528   7.772   5.596  1.7386 -0.6315 -0.0718
  151MOL    H1030310   5.649   0.049   5.509  0.2818 -0.0244  1.4154
  151MOL    H1130311   5.240   0.303   5.437 -0.6614 -0.9214  0.3044
  151MOL    O1230312   5.587   7.652   5.429 -0.5722  0.0068 -0.4898
  151MOL    C1330313   5.622   7.551   5.518 -0.6485 -0.3111  0.3191
  151MOL    C1430314   5.668   7.430   5.449  0.0355  0.2744 -0.1404
  151MOL    C1530315   5.691   7.307   5.540 -0.2563 -0.2749 -0.5098
  151MOL    H1630316   5.541   7.531   5.587 -1.3781 -1.6385 -0.8976
  151MOL    H1730317   5.710   7.592   5.568  1.4545 -0.7936 -2.8126
  151MOL    H1830318   5.596   7.406   5.371 -0.0742  0.5127 -0.1130
  151MOL    H1930319   5.760   7.447   5.394  0.0633 -0.1880 -0.2367
  151MOL    H2030320   5.590   7.277   5.569 -0.1860 -0.1162 -0.1034
  151MOL    H2130321   5.739   7.344   5.631  1.2623  0.5892 -1.6457
  151MOL    O2230322   5.762   7.201   5.471 -0.0083 -0.7066  0.6884
  151MOL    C2330323   5.768   7.083   5.558 -0.4419  0.4796 -0.4018
  151MOL    C2430324   5.842   6.965   5.487 -0.3623  0.0599 -0.2067
  151MOL    C2530325   5.765   6.907   5.365  0.1804  0.2634 -0.1954
  151MOL    H2630326   5.668   7.046   5.579  0.0994 -1.1837 -0.6730
  151MOL    H2730327   5.815   7.104   5.654 -0.0982 -0.5838 -0.3297
  151MOL    H2830328   5.943   6.985   5.451  0.6036 -2.5442  0.9459
  151MOL    H2930329   5.853   6.877   5.549 -1.9584  0.4300  0.6461
  151MOL    H3030330   5.761   6.989   5.293  0.1519  0.4418  0.0082
  151MOL    H3130331   5.667   6.871   5.396  0.1029  0.3239 -0.3690
  151MOL    O3230332   5.840   6.794   5.329 -0.3060 -0.4131 -0.4578
  151MOL    C3330333   5.786   6.752   5.204 -0.1195 -0.0388 -0.2771
  151MOL    C3430334   5.845   6.621   5.146  0.3251  0.4091  0.5129
  151MOL    C3530335   5.980   6.637   5.077 -1.0570 -0.2691 -0.1967
  151MOL    H3630336   5.801   6.830   5.129  0.8651 -1.0556 -1.1535
  151MOL    H3730337   5.677   6.741   5.206 -0.1290  0.1628  0.5169
  151MOL    H3830338   5.846   6.539   5.218  1.3268 -0.6033 -0.6293
  151MOL    H3930339   5.777   6.585   5.068 -0.3861  1.2239  0.7527
  151MOL    H4030340   6.060   6.689   5.130  0.4403 -2.1518 -0.5499
  151MOL    H4130341   5.962   6.693   4.986  1.2258  1.7841  0.5557
  151MOL    O4230342   6.022   6.498   5.065  0.9992 -0.3286 -0.3835
  151MOL    C4330343   6.135   6.472   4.976 -0.0393 -0.4989  0.1563
  151MOL    C4430344   6.266   6.491   5.055  0.3676 -0.1289 -0.0558
  151MOL    C4530345   6.377   6.485   4.953 -0.3619 -0.4605 -0.2030
  151MOL    H4630346   6.138   6.532   4.885  0.7697 -0.6026  0.1126
  151MOL    H4730347   6.119   6.366   4.959  0.1245 -0.4077 -0.5823
  151MOL    H4830348   6.267   6.594   5.092 -0.4839 -0.2685  0.3598
  151MOL    H4930349   6.278   6.425   5.141  1.6152 -2.1384 -1.7466
  151MOL    H5030350   6.391   6.578   4.897 -0.0748 -0.1737  0.3416
  151MOL    H5130351   6.356   6.393   4.899 -0.2431 -0.1049 -0.8633
  151MOL    O5230352   6.494   6.461   5.028  0.0458  0.2190 -0.3197
  151MOL    C5330353   6.607   6.456   4.947 -0.5015 -0.0045  0.0551
  151MOL    C5430354   6.704   6.568   4.982 -0.1508 -0.0733  0.6380
  151MOL    C5530355   6.629   6.699   4.953 -0.3537 -0.6364  0.6671
  151MOL    H5630356   6.588   6.449   4.840 -2.5106 -2.1963  0.5200
  151MOL    H5730357   6.645   6.356   4.968  1.9299  0.5774 -1.3923
  151MOL    H5830358   6.721   6.551   5.089 -0.9102 -2.4967  0.4184
  151MOL    H5930359   6.802   6.568   4.936 -0.8847  1.0359 -0.9685
  151MOL    H6030360   6.556   6.718   5.032 -0.0301  1.1521  0.5511
  151MOL    H6130361   6.582   6.690   4.854 -1.0690  0.7486  0.8691
  151MOL    O6230362   6.726   6.799   4.958  0.5363  0.2100  0.1494
  151MOL    C6330363   6.667   6.926   4.935  0.1397 -0.2221 -0.1669
  151MOL    C6430364   6.770   7.034   4.914  0.5349 -0.5181  0.4107
  151MOL    C6530365   6.704   7.174   4.903 -0.0255  0.0700  0.4394
  151MOL    H6630366   6.593   6.956   5.010  0.7837 -0.7567  0.6987
  151MOL    H6730367   6.606   6.922   4.845 -2.9593  2.7771  1.6742
  151MOL    H6830368   6.832   7.046   5.004 -0.5555  0.1778  1.0857
  151MOL    H6930369   6.832   7.024   4.825 -1.6484  0.8237 -1.3184
  151MOL    H7030370   6.789   7.242   4.915 -1.0987  1.5078  0.0683
  151MOL    H7130371   6.638   7.184   4.990  0.7554 -3.3006  1.4831
  151MOL    O7230372   6.639   7.180   4.776 -0.3952  0.1184  0.2844
  151MOL    C7330373   6.584   7.311   4.753  0.0524 -0.2460 -0.2321
  151MOL    C7430374   6.517   7.299   4.618  0.5831  0.0746  0.0829
  151MOL    C7530375   6.445   7.426   4.566 -0.0540 -0.8413  0.0500
  151MOL    H7630376   6.661   7.386   4.740 -1.1847  0.4833 -4.0446
  151MOL    H7730377   6.519   7.353   4.830 -0.1792 -1.4906  0.2667
  151MOL    H7830378   6.599   7.279   4.550  1.2990  1.9155  0.3543
  151MOL    H7930379   6.444   7.218   4.623  0.6780 -0.0876 -1.1723
  151MOL    H8030380   6.500   7.510   4.608 -2.5295  0.2382  1.2572
  151MOL    H8130381   6.346   7.448   4.606 -0.7162  0.1395 -2.0757
  151MOL    O8230382   6.442   7.421   4.421 -0.0056 -0.3589 -0.1451
  151MOL    C8330383   6.415   7.546   4.359 -0.5141 -0.5209 -0.8445
  151MOL    C8430384   6.425   7.527   4.206 -0.0551  0.2355 -0.2563
  151MOL    C8530385   6.408   7.659   4.129  0.4628 -0.4246  0.6264
  151MOL    H8630386   6.494   7.615   4.386 -0.2873 -0.7595 -0.8927
  151MOL    H8730387   6.325   7.593   4.399  1.6102  2.0591  0.9797
  151MOL    H8830388   6.530   7.501   4.189  0.1877  0.4673  0.8825
  151MOL    H8930389   6.364   7.442   4.177 -0.6347  0.9443 -1.1410
  151MOL    H9030390   6.495   7.721   4.147  0.1983 -0.0347  0.5683
  151MOL    H9130391   6.315   7.709   4.157  1.0711  1.1583 -0.1002
  151MOL    O9230392   6.422   7.609   3.988 -0.2307 -0.0512 -0.5995
  151MOL    C9330393   6.290   7.596   3.935 -0.2933  0.0652 -0.2114
  151MOL    C9430394   6.301   7.573   3.792 -0.2492  0.2055 -0.3979
  151MOL    C9530395   6.351   7.700   3.712  0.7242 -0.9930  0.8683
  151MOL    H9630396   6.229   7.686   3.950  0.6872  0.3559  2.2102
  151MOL    H9730397   6.243   7.506   3.974  0.0121  0.2556  0.6026
  151MOL    H9830398   6.365   7.490   3.764 -1.7936 -0.1961 -2.9297
  151MOL    H9930399   6.202   7.537   3.766 -0.6651 -0.4643  2.0380
  151MOL   H10030400   6.457   7.716   3.734  0.3768  0.0437  1.8546
  151MOL   H10130401   6.286   7.781   3.743 -0.1056 -1.5494  0.5820
  151MOL   O10230402   6.330   7.663   3.580  0.6520 -0.4452 -0.5558
  151MOL   C10330403   6.398   7.745   3.482 -0.2800 -0.9143 -0.5074
  151MOL   C10430404   6.335   7.717   3.350 -0.0978  0.2722 -1.0102
  151MOL   C10530405   6.404   7.788   3.233  0.1834  0.1881  0.1465
  151MOL   H10630406   6.506   7.733   3.480 -0.2872 -0.8042 -1.9354
  151MOL   H10730407   6.381   0.061   3.509  0.5830 -0.7936 -0.3970
  151MOL   H10830408   6.344   7.609   3.344  1.1158  0.4248 -2.1242
  151MOL   H10930409   6.229   7.740   3.347 -0.1383  0.0366 -1.2797
  151MOL   H11030410   6.503   7.743   3.220  0.2446  0.3339  0.1020
  151MOL   H11130411   6.400   0.108   3.242 -1.8127  0.2101 -0.8911
  151MOL   O11230412   6.328   7.745   3.119  0.1213 -0.0686 -0.0574
  151MOL   C11330413   6.384   7.777   2.994  0.0523  0.0278  0.0338
  151MOL   C11430414   6.279   7.732   2.888 -0.1129  0.2917 -0.3643
  151MOL   C11530415   6.319   7.735   2.745  0.0793 -0.1705 -0.1720
  151MOL   H11630416   6.479   7.725   2.983  1.0125  1.4473  1.3517
  151MOL   H11730417   6.392   0.098   2.994 -1.2919  0.1494 -1.3215
  151MOL   H11830418   6.237   7.642   2.932 -2.2749  1.5664  0.2459
  151MOL   H11930419   6.197   0.014   2.903 -0.9741 -0.9156  0.5988
  151MOL   H12030420   6.401   7.667   2.724 -0.1075 -0.9761  1.6012
  151MOL   H12130421   6.347   0.049   2.717 -1.5509 -0.4611 -3.0195
  151MOL   O12230422   6.206   7.711   2.672  0.6754 -0.4159 -0.5676
  151MOL   C12330423   6.228   7.630   2.563  0.4194  0.2929 -0.3162
  151MOL   C12430424   6.090   7.617   2.490  0.6685 -0.4405  0.2705
  151MOL   C12530425   6.083   7.527   2.363 -0.0871  0.4893  0.1936
  151MOL   H12630426   6.249   7.531   2.603 -0.6059  0.4360  0.6288
  151MOL   H12730427   6.314   7.658   2.503  0.8411  1.2457  0.6951
  151MOL   H12830428   6.011   7.588   2.558 -1.0398 -0.1415 -1.5417
  151MOL   H12930429   6.041   7.707   2.453 -0.4609 -0.6123  1.3181
  151MOL   H13030430   6.102   7.422   2.381 -1.1171  0.5845  2.0035
  151MOL   H13130431   6.166   7.560   2.301  0.6835  0.2117  1.0745
  151MOL   O13230432   5.971   7.542   2.281 -0.3328  0.2424 -0.2775
  151MOL   C13330433   5.859   7.462   2.324 -0.5500  0.1757 -0.0365
  151MOL   C13430434   5.739   7.475   2.235 -0.0313  0.3256  0.3564
  151MOL   C13530435   5.606   7.415   2.303  0.0651 -1.1753  0.0379
  151MOL   H13630436   5.847   7.489   2.429  0.3292 -2.0478  0.6831
  151MOL   H13730437   5.887   7.356   2.326 -1.0881  0.0394  0.9902
  151MOL   H13830438   5.720   7.579   2.207  1.5992  1.1845  2.2731
  151MOL   H13930439   5.769   7.417   2.148  0.6630  1.5746 -0.2585
  151MOL   H14030440   5.586   7.471   2.395 -1.8168 -0.2197 -0.9183
  151MOL   H14130441   5.625   7.311   2.330 -3.2398 -1.8564 -0.0255
  151MOL   O14230442   5.497   7.421   2.206 -0.5133  0.0304  0.0108
  151MOL   C14330443   5.384   7.360   2.270  0.1732 -0.5115  0.2037
  151MOL   C14430444   5.265   7.391   2.182 -0.5068  0.0068  0.8458
  151MOL   C14530445   5.134   7.315   2.215 -0.0054  0.2684  0.5118
  151MOL   H14630446   5.360   7.387   2.373  2.4149 -0.3688  0.7032
  151MOL   H14730447   5.405   7.253   2.267 -0.0378 -0.5123 -1.7296
  151MOL   H14830448   5.240   7.497   2.187 -2.7913 -0.3523 -1.6164
  151MOL   H14930449   5.293   7.379   2.077 -0.2894 -0.6887  0.9755
  151MOL   H15030450   5.053   7.357   2.156  0.1571  1.6442  1.2548
  151MOL   H15130451   5.112   7.309   2.322 -0.8622 -1.6202  0.2582
  151MOL   O15230452   5.148   7.181   2.163 -0.2788 -0.5227 -0.5624
  151MOL   C15330453   5.048   7.092   2.218 -1.2249  0.3769 -0.8729
  151MOL   C15430454   5.096   6.951   2.193  0.4144 -0.2271 -0.2573
  151MOL   C15530455   5.002   6.851   2.255  0.1275  0.1119  0.2559
  151MOL   H15630456   4.953   7.115   2.168 -0.6694 -1.3849 -2.8141
  151MOL   H15730457   5.027   7.103   2.324  0.1065  2.9203 -0.8381
  151MOL   H15830458   5.111   6.935   2.086  2.5752  0.3101 -0.0633
  151MOL   H15930459   5.197   6.949   2.234  0.5333  1.4033 -0.4137
  151MOL   H16030460   4.899   6.884   2.244 -0.0334  0.0627  1.5779
  151MOL   H16130461   5.021   6.849   2.362 -2.2427  1.2062  0.7114
  151MOL   O16230462   5.029   6.724   2.196 -0.0269 -0.0565 -0.1052
  151MOL   C16330463   4.931   6.626   2.225  0.4753 -0.5083 -0.4815
  151MOL   C16430464   4.979   6.494   2.164  0.0126  0.2829  0.3386
  151MOL   C16530465   5.128   6.465   2.203  1.0239 -1.0284 -0.3415
  151MOL   H16630466   4.841   6.657   2.171  0.6532  0.9832  0.0409
  151MOL   H16730467   4.914   6.622   2.332  0.8588 -2.0898 -0.4728
  151MOL   H16830468   4.910   6.417   2.198 -0.5190  0.5803 -0.0403
  151MOL   H16930469   4.980   6.500   2.055 -0.5034 -0.2641  0.2985
  151MOL   H17030470   5.145   6.468   2.311 -2.2728 -2.6957  0.2910
  151MOL   H17130471   5.188   6.539   2.151  0.6324 -0.2954  0.2411
  151MOL   O17230472   5.175   6.346   2.152 -0.5234 -0.3988 -0.1333
  151MOL   C17330473   5.287   6.300   2.227  0.2791 -0.6564 -0.1437
  151MOL   C17430474   5.360   6.191   2.148 -0.3515  0.4730 -0.5808
  151MOL   C17530475   5.433   6.228   2.020 -0.3434 -0.3729 -0.4729
  151MOL   H17630476   5.258   6.257   2.323  1.2953 -1.0409 -0.0091
  151MOL   H17730477   5.359   6.381   2.240 -0.0155 -0.3510 -0.3904
  151MOL   H17830478   5.432   6.146   2.216 -0.9767 -0.7186 -0.6866
  151MOL   H17930479   5.291   6.108   2.129 -0.1459  0.7198 -2.5159
  151MOL   H18030480   5.521   6.285   2.050  0.0786 -1.2148 -0.0785
  151MOL   H18130481   5.389   6.300   1.951  1.9135  0.4335 -1.1103
  151MOL   O18230482   5.471   6.112   1.953  0.7237  0.2140 -0.3327
  151MOL   C18330483   5.591   6.044   2.004  0.9372 -0.0835 -0.1554
  151MOL   C18430484   5.611   5.915   1.919  0.0754 -0.3212 -0.2907
  151MOL   C18530485   5.733   5.835   1.958 -0.4289 -0.2319 -0.1363
  151MOL   H18630486   5.581   6.011   2.107  1.4144  1.1805  0.3081
  151MOL   H18730487   5.679   6.108   2.001  0.3117  0.7995 -0.0431
  151MOL   H18830488   5.521   5.856   1.941 -1.5564  1.7821 -1.1893
  151MOL   H18930489   5.621   5.933   1.812  0.4867 -2.4104 -0.6268
  151MOL   H19030490   5.721   5.842   2.066 -2.0141  1.3775 -0.3934
  151MOL   H19130491   5.828   5.883   1.937  0.1290 -0.8910  0.8460
  151MOL   O19230492   5.731   5.709   1.900  0.5174  0.2231 -0.4045
  151MOL   C19330493   5.839   5.629   1.938  0.2515  1.0507  0.3024
  151MOL   C19430494   5.969   5.664   1.862 -0.2592 -0.0405  0.5096
  151MOL   C19530495   5.955   5.648   1.700 -0.1801  0.0398  1.5338
  151MOL   H19630496   5.812   5.526   1.918  0.3729  1.0865 -0.0519
  151MOL   H19730497   5.869   5.610   2.041 -0.6529 -0.5512  0.2881
  151MOL   H19830498   6.002   5.765   1.887  1.9808 -1.1696  2.3288
  151MOL   H19930499   6.052   5.597   1.887  0.5585 -0.9593 -4.1451
  151MOL   H20030500   5.920   5.547   1.682  0.1420  0.2607 -0.4382
  151MOL   H20130501   6.051   5.656   1.647 -1.1646 -1.6433 -0.5684
  151MOL   H20230502   5.888   5.723   1.660 -0.0510 -0.2272  0.8137
  152MOL     O130503   4.162   7.065   4.350  0.5030 -0.1764  0.0582
  152MOL     C230504   4.131   7.145   4.459  0.0679  0.2156  0.2621
  152MOL     C330505   4.004   7.085   4.522 -0.6749  0.5269 -0.2094
  152MOL     C430506   3.982   7.150   4.658 -0.1233 -0.3831 -0.1815
  152MOL     H530507   4.116   7.248   4.425 -1.6023  0.3478  1.3945
  152MOL     H630508   4.215   7.161   4.526 -0.0591  1.4191  0.1580
  152MOL     H730509   3.921   7.082   4.452 -0.1074  2.4632 -1.0254
  152MOL     H830510   4.037   6.984   4.542  1.0046  0.7121 -1.9225
  152MOL     H930511   3.977   7.259   4.649 -3.3225 -0.5587 -1.4972
  152MOL    H1030512   4.065   7.118   4.720  1.9074  0.5912 -2.3547
  152MOL    H1130513   4.102   7.081   4.279 -0.4423 -0.4268  0.7893
  152MOL    O1230514   3.872   7.104   4.733  0.5592  0.1080  0.4483
  152MOL    C1330515   3.739   7.143   4.699  0.1627 -1.2486  0.3648
  152MOL    C1430516   3.633   7.049   4.765 -0.1895 -0.2071 -0.2571
  152MOL    C1530517   3.636   6.896   4.721  0.2158  0.0970  0.2344
  152MOL    H1630518   3.713   7.136   4.594 -2.7269 -0.5930  0.9933
  152MOL    H1730519   3.710   7.241   4.738 -0.6738 -1.0131 -0.8138
  152MOL    H1830520   3.624   7.050   4.874  0.0066 -0.0599 -0.2423
  152MOL    H1930521   3.538   7.080   4.723 -1.1370 -1.9919  0.4997
  152MOL    H2030522   3.732   6.853   4.750  0.7138 -0.7273 -2.4968
  152MOL    H2130523   3.638   6.888   4.613  1.9832  1.2592  0.1572
  152MOL    O2230524   3.514   6.845   4.776 -1.0773  0.3093  0.2008
  152MOL    C2330525   3.483   6.713   4.735 -0.0790 -0.1724 -0.0107
  152MOL    C2430526   3.348   6.687   4.791 -0.8251 -0.2995 -0.2051
  152MOL    C2530527   3.282   6.557   4.738 -0.2758 -0.6648 -0.4809
  152MOL    H2630528   3.553   6.639   4.774 -0.7072  0.0805  1.6412
  152MOL    H2730529   3.488   6.700   4.627 -1.8310  0.5610 -0.1963
  152MOL    H2830530   3.348   6.690   4.900 -0.0756  1.8928 -0.2476
  152MOL    H2930531   3.290   6.777   4.773 -0.1764 -0.1303 -1.4957
  152MOL    H3030532   3.355   6.476   4.737 -0.3145 -0.7032 -0.1375
  152MOL    H3130533   3.262   6.557   4.631 -0.2807  1.5660 -0.4936
  152MOL    O3230534   3.169   6.521   4.817  0.6013  0.4392  0.3320
  152MOL    C3330535   3.115   6.397   4.791  0.5378 -0.0343 -0.5701
  152MOL    C3430536   2.978   6.389   4.858  0.2615 -0.4825  0.0300
  152MOL    C3530537   2.903   6.259   4.827 -0.4677  0.1858  0.3456
  152MOL    H3630538   3.174   6.320   4.840 -1.8534 -1.1290  0.6289
  152MOL    H3730539   3.113   6.371   4.685 -3.0455 -0.0941 -0.5613
  152MOL    H3830540   2.994   6.401   4.965 -0.3947 -0.7589  0.1620
  152MOL    H3930541   2.924   6.473   4.814 -0.6748 -1.2790 -0.3520
  152MOL    H4030542   2.967   6.174   4.849 -0.0151  0.3681 -0.2455
  152MOL    H4130543   2.885   6.252   4.720  0.5972 -2.0427  0.2836
  152MOL    O4230544   2.780   6.255   4.900  0.1153  0.0215  0.0794
  152MOL    C4330545   2.711   6.131   4.880  0.1185  0.6436  1.0041
  152MOL    C4430546   2.588   6.132   4.972  0.0521  0.2471 -0.3365
  152MOL    C4530547   2.509   5.998   4.958  0.1292  0.2233  0.2227
  152MOL    H4630548   2.773   6.042   4.889  0.5135  0.8440  0.3415
  152MOL    H4730549   2.668   6.127   4.779  0.2158  0.3844  0.9739
  152MOL    H4830550   2.607   6.155   5.077 -2.7196 -1.1433  0.5188
  152MOL    H4930551   2.521   6.210   4.938 -0.5942 -0.5977 -1.0322
  152MOL    H5030552   2.559   5.921   5.016  1.0192 -0.9545 -2.0301
  152MOL    H5130553   2.514   5.958   4.856  1.8297  2.3261 -0.5539
  152MOL    O5230554   2.368   6.004   4.997 -0.4493  0.2898 -0.7539
  152MOL    C5330555   2.349   6.013   5.137 -0.5908 -0.0912 -0.3729
  152MOL    C5430556   2.199   5.996   5.170  0.0925 -0.7646  0.2821
  152MOL    C5530557   2.095   6.080   5.101  0.2753  0.9952  0.0086
  152MOL    H5630558   2.398   6.106   5.165 -0.4500 -0.2038 -0.2364
  152MOL    H5730559   2.414   5.941   5.189  2.5586  2.8268 -0.1022
  152MOL    H5830560   2.175   5.892   5.144  1.1150 -1.0008  0.2890
  152MOL    H5930561   2.182   5.992   5.278 -0.8466  0.3364  0.1792
  152MOL    H6030562   2.131   6.083   4.998 -1.6867 -2.8693 -0.8998
  152MOL    H6130563   2.085   6.173   5.158 -0.1661  1.4685 -0.8252
  152MOL    O6230564   1.965   6.016   5.107 -0.4336 -0.2266  0.2695
  152MOL    C6330565   1.876   6.073   5.012  0.4523 -0.1901 -0.3127
  152MOL    C6430566   1.734   6.011   5.043 -0.4923  0.8239  0.3283
  152MOL    C6530567   1.729   5.856   5.009 -0.5280 -0.6741  0.0975
  152MOL    H6630568   1.907   6.065   4.908 -0.9696 -0.1345 -0.7406
  152MOL    H6730569   1.865   6.180   5.030 -2.4517 -0.5822  0.4736
  152MOL    H6830570   1.707   6.033   5.146 -0.4584  2.4840 -0.0059
  152MOL    H6930571   1.664   6.061   4.976 -0.2234  0.0124 -0.5724
  152MOL    H7030572   1.812   5.810   5.063  0.1370  0.8854  0.4192
  152MOL    H7130573   1.749   5.841   4.903  0.4090 -0.4603  0.2454
  152MOL    O7230574   1.604   5.806   5.044 -0.5542 -0.0530 -0.0987
  152MOL    C7330575   1.581   5.665   5.025 -0.0604  0.9280  0.2702
  152MOL    C7430576   1.460   5.623   5.112 -1.1308  0.3598  0.0131
  152MOL    C7530577   1.428   5.475   5.116  0.4243 -0.0566  0.2422
  152MOL    H7630578   1.671   5.615   5.062 -0.4300 -1.8661 -2.4191
  152MOL    H7730579   1.567   5.634   4.922  0.1905  0.1271  0.4796
  152MOL    H7830580   1.491   5.653   5.211 -0.2470  0.4876 -0.2988
  152MOL    H7930581   1.371   5.686   5.102 -1.1867  0.2734 -0.0384
  152MOL    H8030582   1.378   5.451   5.209 -1.3012  1.3230 -0.3001
  152MOL    H8130583   1.526   5.426   5.116  1.0238  1.1453  0.8368
  152MOL    O8230584   1.364   5.441   4.999  0.2702  0.0124  0.4339
  152MOL    C8330585   1.335   5.304   4.991 -0.0448 -0.1868  0.0937
  152MOL    C8430586   1.247   5.263   4.868 -1.1226 -0.0624 -0.1004
  152MOL    C8530587   1.273   5.124   4.820 -0.0163  0.7373 -0.0934
  152MOL    H8630588   1.285   5.277   5.084  0.5314  1.1870  0.8294
  152MOL    H8730589   1.427   5.246   4.994  0.1088 -0.0018 -0.9698
  152MOL    H8830590   1.148   5.285   4.908 -1.6265  0.0505 -1.4099
  152MOL    H8930591   1.270   5.332   4.787 -1.6491 -0.1031 -0.2842
  152MOL    H9030592   1.281   5.045   4.895 -1.6158 -0.8359 -1.5303
  152MOL    H9130593   1.375   5.125   4.781  0.1911  0.8447  0.4562
  152MOL    O9230594   1.181   5.083   4.713 -0.1634  0.3653  0.1529
  152MOL    C9330595   1.059   5.019   4.742 -1.2781 -0.5801  0.3671
  152MOL    C9430596   0.938   5.112   4.716  0.3845  0.4047 -0.6194
  152MOL    C9530597   0.900   5.137   4.572  0.8356 -0.0363 -0.0716
  152MOL    H9630598   1.053   4.965   4.837 -2.2124 -0.9729  0.0916
  152MOL    H9730599   1.062   4.938   4.669  0.0029  0.1496 -0.4135
  152MOL    H9830600   0.857   5.060   4.766 -1.5447  1.6190 -2.4207
  152MOL    H9930601   0.944   5.211   4.761 -3.1343  0.1689  0.4434
  152MOL   H10030602   0.895   5.036   4.531  3.0917 -0.0534 -0.3632
  152MOL   H10130603   0.967   5.194   4.508 -0.3800  1.2137 -0.2510
  152MOL   O10230604   0.774   5.201   4.553  0.5607  0.3995 -0.1955
  152MOL   C10330605   0.781   5.338   4.577  0.2212  0.2833 -0.0877
  152MOL   C10430606   0.636   5.392   4.570 -0.8016 -0.2511  0.2091
  152MOL   C10530607   0.627   5.535   4.618 -0.1782 -0.7598 -0.1273
  152MOL   H10630608   0.844   5.388   4.504  0.1572  0.0283 -0.3225
  152MOL   H10730609   0.822   5.367   4.673  1.6863 -1.0643 -0.2858
  152MOL   H10830610   0.597   5.387   4.468  1.8032  1.6439 -0.9264
  152MOL   H10930611   0.574   5.322   4.625 -0.8785 -0.2302  0.1494
  152MOL   H11030612   0.687   5.552   4.708  0.0337 -0.7977 -0.2582
  152MOL   H11130613   0.525   5.563   4.641  0.3022 -1.0366  2.6174
  152MOL   O11230614   0.670   5.616   4.508 -0.1946  0.5307 -0.2377
  152MOL   C11330615   0.663   5.748   4.551  0.3627 -0.3490 -0.4034
  152MOL   C11430616   0.691   5.827   4.422 -0.3719  0.9697 -0.4136
  152MOL   C11530617   0.833   5.799   4.378 -0.5987  0.0778 -0.2070
  152MOL   H11630618   0.730   5.772   4.634  0.2908 -2.3631  0.2769
  152MOL   H11730619   0.561   5.769   4.585  0.2685 -1.9263  0.3394
  152MOL   H11830620   0.626   5.792   4.342 -0.2707 -2.0228  0.7406
  152MOL   H11930621   0.671   5.934   4.427  2.8244  1.8649 -4.2317
  152MOL   H12030622   0.851   5.695   4.350 -0.6608  0.1322 -0.4506
  152MOL   H12130623   0.890   5.814   4.469 -1.7091 -0.3736  0.5735
  152MOL   O12230624   0.863   5.895   4.274  0.9154  0.1995  0.3813
  152MOL   C12330625   0.994   5.885   4.209 -0.5148  0.3846  0.1536
  152MOL   C12430626   0.969   5.961   4.085 -0.1587 -1.0209  0.0227
  152MOL   C12530627   1.085   5.961   3.989 -0.7805 -0.3050  0.0438
  152MOL   H12630628   1.011   5.781   4.184  1.5226  0.0892  2.6662
  152MOL   H12730629   1.075   5.918   4.273  0.3930  0.0002 -0.7867
  152MOL   H12830630   0.878   5.926   4.036 -0.7575 -3.6726  2.8266
  152MOL   H12930631   0.941   6.064   4.107  0.9852 -0.5390 -0.7563
  152MOL   H13030632   1.050   5.987   3.889 -1.6366 -0.9432  0.1687
  152MOL   H13130633   1.133   5.864   3.982 -0.5056 -0.1459 -0.2336
  152MOL   O13230634   1.168   6.061   4.036 -0.2245 -0.2812  0.6008
  152MOL   C13330635   1.241   6.148   3.945  0.0355  0.2442 -0.2478
  152MOL   C13430636   1.247   6.285   4.007 -0.1137  0.4984  0.5003
  152MOL   C13530637   1.290   6.285   4.151 -0.3698 -0.2765 -0.1356
  152MOL   H13630638   1.198   6.163   3.847 -1.2990 -2.3254 -0.0878
  152MOL   H13730639   1.345   6.115   3.947  0.5848  1.8602 -0.9268
  152MOL   H13830640   1.313   6.352   3.953  0.4843 -0.7833 -0.3777
  152MOL   H13930641   1.143   6.319   4.000  0.0821  1.0896  0.4516
  152MOL   H14030642   1.388   6.238   4.149 -0.7803 -1.1148 -1.3591
  152MOL   H14130643   1.230   6.224   4.218 -0.8698 -0.8667 -1.1122
  152MOL   O14230644   1.279   6.414   4.211  0.2455 -0.0772 -0.0431
  152MOL   C14330645   1.330   6.417   4.341  0.3666 -0.3703  0.3808
  152MOL   C14430646   1.288   6.547   4.412  0.1228 -0.4396 -1.0398
  152MOL   C14530647   1.345   6.557   4.555  0.4167 -0.0861  0.2384
  152MOL   H14630648   1.437   6.394   4.345  0.8450  0.8132 -3.3068
  152MOL   H14730649   1.296   6.334   4.403  0.6146 -0.5544  0.2721
  152MOL   H14830650   1.333   6.634   4.363  0.4098  0.7924  1.3381
  152MOL   H14930651   1.183   6.561   4.388  0.1567  1.0914 -0.3382
  152MOL   H15030652   1.326   6.648   4.612  0.8723  0.0191  0.2189
  152MOL   H15130653   1.453   6.546   4.548  0.4893  0.7156  0.0035
  152MOL   O15230654   1.296   6.454   4.636  0.5306 -0.0495 -0.7559
  152MOL   C15330655   1.342   6.453   4.769  0.1733  0.3757  0.1058
  152MOL   C15430656   1.301   6.320   4.826  0.0140 -0.2052 -0.1309
  152MOL   C15530657   1.326   6.302   4.980 -0.1527  0.0767 -0.0385
  152MOL   H15630658   1.299   6.527   4.837 -2.3597 -2.1403  1.3339
  152MOL   H15730659   1.450   6.470   4.775  0.5587 -1.9979  0.4866
  152MOL   H15830660   1.193   6.326   4.815  0.0618 -1.0444 -1.0894
  152MOL   H15930661   1.317   6.232   4.764 -0.6260  0.4026 -1.1564
  152MOL   H16030662   1.305   6.396   5.031 -0.3370 -0.1778  0.3645
  152MOL   H16130663   1.431   6.276   4.992 -0.1465  0.6835  1.2928
  152MOL   O16230664   1.238   6.202   5.021  0.0339  0.3239 -0.4587
  152MOL   C16330665   1.249   6.161   5.150 -0.0495  0.5160 -0.3327
  152MOL   C16430666   1.181   6.265   5.245  0.1663  0.2465  0.1715
  152MOL   C16530667   1.032   6.244   5.240  0.7943 -0.2823  0.4558
  152MOL   H16630668   1.352   6.151   5.185 -0.7048 -0.6487  1.3067
  152MOL   H16730669   1.210   6.060   5.164  0.9649 -0.0058 -1.1942
  152MOL   H16830670   1.207   6.253   5.350  1.3567  0.1642 -0.1195
  152MOL   H16930671   1.207   6.368   5.222 -0.1664  0.0908 -0.9311
  152MOL   H17030672   1.011   6.138   5.248  0.3811 -0.3998 -1.7701
  152MOL   H17130673   0.996   6.281   5.144 -1.4647 -0.3637  1.2367
  152MOL   O17230674   0.962   6.319   5.332 -0.3562  0.0518  0.0916
  152MOL   C17330675   0.827   6.275   5.342 -0.7582  0.6908 -0.2265
  152MOL   C17430676   0.748   6.378   5.423 -0.6890  0.0706 -0.6261
  152MOL   C17530677   0.754   6.517   5.360  0.0932 -0.2420 -0.4047
  152MOL   H17630678   0.819   6.177   5.390  0.7053  1.1634  1.0031
  152MOL   H17730679   0.778   6.257   5.246 -0.5491  1.3215 -0.4493
  152MOL   H17830680   0.642   6.356   5.437 -0.9835 -0.4631 -3.4776
  152MOL   H17930681   0.788   6.376   5.525 -1.4802 -3.1221 -0.3296
  152MOL   H18030682   0.755   6.523   5.251  0.1841 -4.0439 -0.6848
  152MOL   H18130683   0.853   6.556   5.387  0.2547 -0.1819 -1.0564
  152MOL   O18230684   0.639   6.595   5.411  0.3755  0.3178  0.1896
  152MOL   C18330685   0.626   6.734   5.372 -0.1140  0.4804  0.5430
  152MOL   C18430686   0.557   6.744   5.236 -0.0773  0.6619 -0.0040
  152MOL   C18530687   0.517   6.886   5.192 -0.3715 -0.1564 -0.1702
  152MOL   H18630688   0.717   6.794   5.373  0.8969 -1.0024 -0.3641
  152MOL   H18730689   0.572   6.789   5.449 -0.8711 -0.4196  0.6578
  152MOL   H18830690   0.633   6.710   5.166 -1.6341 -1.1900 -0.8237
  152MOL   H18930691   0.477   6.670   5.233  0.9955 -0.6223  1.8050
  152MOL   H19030692   0.604   6.949   5.211 -0.5514 -0.0164  0.2105
  152MOL   H19130693   0.433   6.915   5.255 -0.5864 -1.6434  0.2616
  152MOL   O19230694   0.474   6.892   5.054 -0.0612  0.5214 -0.9006
  152MOL   C19330695   0.432   7.018   5.015  0.8380 -0.3992  0.2001
  152MOL   C19430696   0.394   7.019   4.865 -0.2742 -0.5368  0.1306
  152MOL   C19530697   0.516   7.000   4.773  0.0837  0.1537  0.0874
  152MOL   H19630698   0.507   7.095   5.033 -2.2876  2.1853  2.7014
  152MOL   H19730699   0.342   7.052   5.067  1.5308  0.3586  0.9268
  152MOL   H19830700   0.317   6.943   4.849  0.2184 -0.9426 -0.3559
  152MOL   H19930701   0.353   7.114   4.832  0.3247 -0.4703 -0.4469
  152MOL   H20030702   0.480   6.985   4.671  2.2513  2.4169 -1.0757
  152MOL   H20130703   0.583   6.916   4.795 -0.7617 -0.2667  1.0629
  152MOL   H20230704   0.568   7.095   4.764 -1.2633  1.0395  1.5232
  153MOL     O130705   2.340   1.661   1.680  0.6249 -0.1768  0.6093
  153MOL     C230706   2.241   1.749   1.732 -0.1860  0.0703  0.0339
  153MOL     C330707   2.310   1.848   1.831  0.4587  0.3851  0.1036
  153MOL     C430708   2.222   1.941   1.899  0.1379  0.2322  0.3015
  153MOL     H530709   2.162   1.693   1.783 -0.7069  0.6928 -0.0797
  153MOL     H630710   2.193   1.819   1.663 -1.5625  0.1224  1.0024
  153MOL     H730711   2.360   1.789   1.908  2.6351  0.8092 -0.9413
  153MOL     H830712   2.393   1.906   1.790 -0.7957  1.0821 -1.5245
  153MOL     H930713   2.187   2.012   1.824 -1.3807 -1.1645 -0.3332
  153MOL    H1030714   2.287   2.002   1.963  0.7552 -0.8415  0.7062
  153MOL    H1130715   2.390   1.625   1.751  0.9268  0.3326  0.6572
  153MOL    O1230716   2.130   1.875   1.980 -0.1989  0.2877 -0.0544
  153MOL    C1330717   2.026   1.957   2.033 -0.0682 -0.3988  0.5832
  153MOL    C1430718   1.919   1.876   2.095  0.3955 -0.0209 -0.1839
  153MOL    C1530719   1.838   1.938   2.216 -0.4926 -0.0520 -0.2868
  153MOL    H1630720   1.983   2.032   1.966 -0.3349 -1.6170 -0.6227
  153MOL    H1730721   2.073   2.020   2.109 -0.4987 -0.1487  0.6410
  153MOL    H1830722   1.851   1.848   2.014 -2.3405 -1.7347  2.5622
  153MOL    H1930723   1.971   1.795   2.146  1.0511 -0.1663 -1.0899
  153MOL    H2030724   1.756   1.873   2.246 -0.2446  0.1663  0.8529
  153MOL    H2130725   1.792   2.033   2.187  0.7182  0.1258 -1.6811
  153MOL    O2230726   1.925   1.960   2.317 -0.1056  0.1864  0.9644
  153MOL    C2330727   1.890   2.054   2.419 -0.4715  0.2082 -0.1910
  153MOL    C2430728   1.850   1.977   2.540 -0.1379  0.1077  0.5931
  153MOL    C2530729   1.698   1.968   2.563 -0.1169 -0.7133  0.6220
  153MOL    H2630730   1.818   2.130   2.391  0.4420  0.5834 -1.5476
  153MOL    H2730731   1.988   2.097   2.442 -0.4021 -0.0683  0.0382
  153MOL    H2830732   1.893   1.877   2.533 -1.6572 -0.4725 -0.9642
  153MOL    H2930733   1.893   2.029   2.625 -0.7806  1.1578  0.2893
  153MOL    H3030734   1.641   1.952   2.471  1.2611 -0.9816 -0.2036
  153MOL    H3130735   1.662   2.062   2.604 -1.3168 -0.3079 -1.2928
  153MOL    O3230736   1.658   1.875   2.658 -0.3382 -0.1852  0.2880
  153MOL    C3330737   1.524   1.863   2.701  0.0571 -0.5313  0.4456
  153MOL    C3430738   1.522   1.742   2.798 -1.1537 -0.3701  0.1911
  153MOL    C3530739   1.393   1.716   2.870 -0.2408 -0.1033 -0.3517
  153MOL    H3630740   1.465   1.840   2.613 -0.8733  0.8288  0.6803
  153MOL    H3730741   1.493   1.957   2.748  0.3059 -0.9167  1.4001
  153MOL    H3830742   1.548   1.649   2.747 -1.0355 -0.1745 -0.1080
  153MOL    H3930743   1.595   1.750   2.879 -1.6460  0.2198  0.5835
  153MOL    H4030744   1.330   1.683   2.788 -0.2432 -1.9099  0.3600
  153MOL    H4130745   1.356   1.811   2.911  1.8457 -0.6942  3.0805
  153MOL    O4230746   1.401   1.621   2.982 -0.5303  0.6016  0.3112
  153MOL    C4330747   1.271   1.587   3.027  0.3023 -0.4721  1.3330
  153MOL    C4430748   1.277   1.492   3.155 -0.8394 -0.4698  0.4127
  153MOL    C4530749   1.144   1.453   3.218  0.7981  0.4496 -0.3328
  153MOL    H4630750   1.218   1.535   2.947  1.1847 -1.5333  1.4179
  153MOL    H4730751   1.210   1.674   3.048  0.6996 -0.4655  2.4820
  153MOL    H4830752   1.342   1.408   3.129 -0.1319  0.3249 -0.4566
  153MOL    H4930753   1.337   1.542   3.231  0.6950  0.0496 -1.0917
  153MOL    H5030754   1.074   1.412   3.145 -0.6371  0.8691  0.7707
  153MOL    H5130755   1.091   1.535   3.267  0.9585  0.5032 -0.2498
  153MOL    O5230756   1.161   1.336   3.296 -0.3057 -0.1430  0.0025
  153MOL    C5330757   1.050   1.322   3.384  0.2518 -0.3987 -1.0121
  153MOL    C5430758   1.076   1.214   3.489 -0.1540 -0.0296 -0.6178
  153MOL    C5530759   1.190   1.247   3.581 -0.6361  0.2039 -0.5314
  153MOL    H5630760   0.954   1.306   3.335 -0.2892 -0.3275  0.0065
  153MOL    H5730761   1.029   1.412   3.442 -0.1593  0.4016 -2.3799
  153MOL    H5830762   0.989   1.179   3.544 -0.6348 -0.1967 -1.4718
  153MOL    H5930763   1.094   1.126   3.427 -0.2298 -1.4232  1.2720
  153MOL    H6030764   1.266   1.308   3.530  2.0365 -1.9952  0.6791
  153MOL    H6130765   1.230   1.155   3.624  1.4332  1.1613 -0.3178
  153MOL    O6230766   1.135   1.328   3.687  0.6363 -0.6736  0.3520
  153MOL    C6330767   1.237   1.364   3.780 -0.3346  0.7907 -0.5217
  153MOL    C6430768   1.169   1.435   3.892 -0.0945 -0.2176  0.1163
  153MOL    C6530769   1.258   1.490   4.004 -0.3077 -0.2467  0.1201
  153MOL    H6630770   1.325   1.418   3.744 -1.0453  1.1759 -1.7203
  153MOL    H6730771   1.279   1.280   3.834 -1.5862  0.2405 -0.3761
  153MOL    H6830772   1.114   1.521   3.854  1.8916  0.3527 -1.5305
  153MOL    H6930773   1.087   1.378   3.936 -0.2406  0.8067  1.2125
  153MOL    H7030774   1.194   1.560   4.058 -0.0759  0.6361 -0.7355
  153MOL    H7130775   1.344   1.544   3.965 -0.4721  1.3579  1.9118
  153MOL    O7230776   1.299   1.386   4.082 -0.0206  0.4339 -0.2690
  153MOL    C7330777   1.399   1.418   4.181  0.8013 -0.7000 -0.3298
  153MOL    C7430778   1.428   1.303   4.270 -0.1336 -0.2561  0.1443
  153MOL    C7530779   1.555   1.315   4.348  0.2444  0.0606  0.2656
  153MOL    H7630780   1.356   1.502   4.235  0.5831 -0.9371 -0.1391
  153MOL    H7730781   1.485   1.455   4.124  1.1508 -0.0612  0.6050
  153MOL    H7830782   1.343   1.286   4.335 -0.7822 -0.1047 -0.6548
  153MOL    H7930783   1.438   1.213   4.210  2.1795 -0.0016  0.1078
  153MOL    H8030784   1.636   1.326   4.275 -0.9620  0.3889 -1.0429
  153MOL    H8130785   1.581   1.234   4.415 -0.4887 -0.6825 -0.3477
  153MOL    O8230786   1.530   1.435   4.422  0.2333 -0.3116 -0.2999
  153MOL    C8330787   1.631   1.452   4.520 -0.3995  0.0142  0.1216
  153MOL    C8430788   1.597   1.589   4.582  0.8657 -0.0187 -0.2071
  153MOL    C8530789   1.682   1.630   4.706 -0.1959  0.2267  0.2123
  153MOL    H8630790   1.724   1.447   4.463 -0.2725 -1.5496  0.4286
  153MOL    H8730791   1.631   1.374   4.596 -0.9409  0.8716  1.0024
  153MOL    H8830792   1.610   1.656   4.497 -0.3297  1.5072  0.7862
  153MOL    H8930793   1.489   1.595   4.597  0.4429 -2.0247 -2.2117
  153MOL    H9030794   1.665   1.731   4.742  2.5499  0.5386  0.7446
  153MOL    H9130795   1.788   1.623   4.683 -0.1706  1.3578 -0.0348
  153MOL    O9230796   1.639   1.548   4.812  0.0811  0.2115  0.0305
  153MOL    C9330797   1.737   1.559   4.918 -0.4546 -0.1797 -0.3620
  153MOL    C9430798   1.683   1.502   5.045 -0.6908 -0.1332 -0.2816
  153MOL    C9530799   1.554   1.569   5.101  0.1049  0.2150  0.1447
  153MOL    H9630800   1.771   1.662   4.929  1.4012 -0.4023 -3.3115
  153MOL    H9730801   1.831   1.521   4.879 -1.3518  1.0010 -3.8546
  153MOL    H9830802   1.662   1.396   5.027 -0.9508  0.1320 -1.6413
  153MOL    H9930803   1.758   1.501   5.124 -2.6532  1.2461  1.6313
  153MOL   H10030804   1.461   1.554   5.045  0.1664  0.0198  0.0948
  153MOL   H10130805   1.565   1.677   5.108  2.1260  0.0778 -0.7357
  153MOL   O10230806   1.539   1.531   5.238 -0.4035 -0.1545 -0.3749
  153MOL   C10330807   1.457   1.423   5.263  0.1282 -0.1180 -0.3200
  153MOL   C10430808   1.476   1.376   5.407 -0.5230  0.1990 -0.2892
  153MOL   C10530809   1.443   1.478   5.513 -0.9522  0.0605  0.0792
  153MOL   H10630810   1.484   1.346   5.191 -2.4978 -1.6247  0.2301
  153MOL   H10730811   1.353   1.450   5.243  0.3951  0.6682 -0.6632
  153MOL   H10830812   1.407   1.292   5.411 -2.0789  1.3814 -1.5570
  153MOL   H10930813   1.573   1.326   5.419 -0.4192  0.2233 -0.9949
  153MOL   H11030814   1.334   1.480   5.511 -0.9612 -0.9132 -0.5829
  153MOL   H11130815   1.471   1.581   5.493 -0.6153 -0.0159  0.1508
  153MOL   O11230816   1.488   1.440   5.647 -0.2612 -0.2611 -0.2179
  153MOL   C11330817   1.453   1.546   5.743 -0.3935  1.1647 -0.2336
  153MOL   C11430818   1.546   1.659   5.748 -0.7672 -0.3326 -0.1860
  153MOL   C11530819   1.509   1.750   5.869 -0.2662 -0.8388  0.0579
  153MOL   H11630820   1.459   1.499   5.841  1.5524  0.1423 -0.8234
  153MOL   H11730821   1.353   1.589   5.739 -0.3766  1.3890  1.4164
  153MOL   H11830822   1.650   1.628   5.757 -0.6621  0.5328  1.8765
  153MOL   H11930823   1.534   1.717   5.656 -0.3136  0.0191 -0.0277
  153MOL   H12030824   1.524   1.692   5.959  0.3197  1.9532  1.8351
  153MOL   H12130825   1.402   1.771   5.865 -0.2810 -1.1691 -3.7673
  153MOL   O12230826   1.598   1.860   5.870 -0.5692 -0.1742  0.2937
  153MOL   C12330827   1.591   1.952   5.980  0.1604 -0.3596 -0.3692
  153MOL   C12430828   1.622   1.877   6.115  0.5193  0.1063  0.8596
  153MOL   C12530829   1.494   1.831   6.193  0.0797  0.6965 -0.1487
  153MOL   H12630830   1.499   2.009   5.986  0.6738  0.4059  0.3788
  153MOL   H12730831   1.680   2.013   5.963  0.9285 -1.4473 -0.3780
  153MOL   H12830832   1.693   1.795   6.099  0.9992  0.6663  0.1064
  153MOL   H12930833   1.674   1.940   6.186  0.2847 -1.1795  2.1991
  153MOL   H13030834   1.410   1.789   6.137 -0.3133  1.3678 -0.0654
  153MOL   H13130835   1.458   1.914   6.254 -0.0848 -0.2973  1.1478
  153MOL   O13230836   1.541   1.729   6.276 -0.1574  0.6095 -0.2121
  153MOL   C13330837   1.446   1.636   6.323  0.0861 -0.1342  0.1258
  153MOL   C13430838   1.513   1.570   6.444  0.2932  0.0138  0.1341
  153MOL   C13530839   1.414   1.491   6.527  0.6362 -0.0798 -0.7290
  153MOL   H13630840   1.425   1.563   6.245 -0.0274  0.4319 -0.3696
  153MOL   H13730841   1.348   1.682   6.338 -0.5037 -1.0374 -0.8722
  153MOL   H13830842   1.590   1.507   6.399 -2.4557 -3.0791 -0.4462
  153MOL   H13930843   1.566   1.643   6.505  0.5030 -0.7616  0.8997
  153MOL   H14030844   1.363   1.416   6.466 -2.3202  2.4380 -1.4806
  153MOL   H14130845   1.331   1.550   6.567 -0.4975 -0.8798 -1.8667
  153MOL   O14230846   1.496   1.421   6.616 -0.6761 -0.4565 -0.5314
  153MOL   C14330847   1.419   1.376   6.729 -0.5227 -0.3577 -0.5381
  153MOL   C14430848   1.512   1.296   6.825  0.5547 -0.2688  0.1681
  153MOL   C14530849   1.612   1.383   6.891 -1.0687 -0.0292  0.2896
  153MOL   H14630850   1.344   1.305   6.696 -0.1423 -0.3877 -1.3503
  153MOL   H14730851   1.375   1.455   6.790  2.1204  0.6964  0.0694
  153MOL   H14830852   1.459   1.238   6.901 -0.7926  1.0449  0.2561
  153MOL   H14930853   1.565   1.220   6.768 -0.0615 -0.7626  0.2561
  153MOL   H15030854   1.570   1.426   6.982 -0.0561  4.6241 -1.2633
  153MOL   H15130855   1.637   1.471   6.832  0.3456 -1.8627 -1.9126
  153MOL   O15230856   1.730   1.308   6.918 -0.0105  0.3633  0.0206
  153MOL   C15330857   1.838   1.392   6.949 -0.4847 -0.0196 -0.7084
  153MOL   C15430858   1.972   1.315   6.947 -0.2745 -1.1305  0.2969
  153MOL   C15530859   2.099   1.385   7.000  0.3003 -0.5735 -0.0125
  153MOL   H15630860   1.828   1.431   7.050  1.4825  0.5497 -0.7179
  153MOL   H15730861   1.856   1.470   6.875  1.2891  1.7115  1.4492
  153MOL   H15830862   1.957   1.225   7.007  0.5765 -0.6583  1.2284
  153MOL   H15930863   1.999   1.286   6.845 -1.4583  0.5511 -0.5215
  153MOL   H16030864   2.081   1.444   7.090 -0.1690  4.0953 -2.9519
  153MOL   H16130865   2.131   1.454   6.922  0.2352 -1.2120 -0.6024
  153MOL   O16230866   2.201   1.285   7.016 -0.6840 -0.0697 -0.4211
  153MOL   C16330867   2.317   1.365   7.067 -0.3565  0.0447  0.4059
  153MOL   C16430868   2.431   1.264   7.075  0.0938 -0.6303  0.1248
  153MOL   C16530869   2.567   1.339   7.074 -0.0775  0.4895 -0.3106
  153MOL   H16630870   2.299   1.402   7.168  1.1296 -2.3087  1.5894
  153MOL   H16730871   2.336   1.441   6.993 -0.9099 -0.1893  0.0162
  153MOL   H16830872   2.432   1.207   7.167 -1.0957  0.4807  0.8480
  153MOL   H16930873   2.426   1.201   6.987 -0.6993 -1.1471  0.5384
  153MOL   H17030874   2.575   1.403   7.162  0.9484  1.3666 -1.0370
  153MOL   H17130875   2.578   1.407   6.990 -1.9349 -1.7089 -2.4385
  153MOL   O17230876   2.675   1.259   7.053  0.6142 -0.4256 -0.1678
  153MOL   C17330877   2.706   1.191   7.174  0.0515  0.0038  0.7307
  153MOL   C17430878   2.802   1.073   7.152 -0.5288  0.2840  0.2239
  153MOL   C17530879   2.744   0.974   7.049  0.0861 -0.3086  0.3060
  153MOL   H17630880   2.627   1.130   7.217 -0.1749 -0.3325 -0.1478
  153MOL   H17730881   2.730   1.260   7.255  1.6022  0.3233  0.0157
  153MOL   H17830882   2.900   1.111   7.121 -0.4069  0.1560  0.4457
  153MOL   H17930883   2.813   1.022   7.248  0.5175 -0.3626 -0.2326
  153MOL   H18030884   2.712   1.018   6.955 -0.3298 -1.0390  0.0963
  153MOL   H18130885   2.655   0.941   7.104  0.3795  0.2816  1.1513
  153MOL   O18230886   2.839   0.875   7.030  0.1821  0.5156  0.6218
  153MOL   C18330887   2.780   0.764   6.967  0.5394 -0.1363 -0.2768
  153MOL   C18430888   2.894   0.657   6.940  0.0614 -0.2203  0.2332
  153MOL   C18530889   2.841   0.540   6.858  0.0553  0.0652  0.0538
  153MOL   H18630890   2.718   0.803   6.886 -1.7121  0.3085  1.6351
  153MOL   H18730891   2.722   0.713   7.043  0.1321  0.9265  0.1241
  153MOL   H18830892   2.975   0.697   6.879 -0.2724 -1.0535 -0.7829
  153MOL   H18930893   2.934   0.630   7.037  0.0419 -0.6214  0.1285
  153MOL   H19030894   2.775   0.579   6.782 -1.6479 -1.5865  0.6654
  153MOL   H19130895   2.799   0.471   6.931 -1.0651 -0.8508 -1.4305
  153MOL   O19230896   2.957   0.469   6.812 -0.1890  0.0178 -0.4992
  153MOL   C19330897   2.923   0.384   6.704 -0.0053 -0.4310 -0.5929
  153MOL   C19430898   3.049   0.312   6.687 -0.0690 -0.4115 -0.0498
  153MOL   C19530899   3.041   0.201   6.584  0.0839  0.1507 -0.1189
  153MOL   H19630900   2.890   0.451   6.625 -0.4888  1.7026  1.3560
  153MOL   H19730901   2.835   0.322   6.722 -0.6145  0.1841 -1.4279
  153MOL   H19830902   3.117   0.391   6.656  0.4109 -1.0360 -0.6111
  153MOL   H19930903   3.069   0.271   6.786  1.2703  0.0010 -0.1387
  153MOL   H20030904   2.988   0.121   6.637  2.3397 -1.6911 -0.5462
  153MOL   H20130905   3.141   0.161   6.567 -0.1459 -2.6887  4.3433
  153MOL   H20230906   2.997   0.236   6.490 -0.7489  2.9019  1.2580
  154MOL     O130907   2.613   6.785   0.728  0.3085  0.5343 -0.3871
  154MOL     C230908   2.548   6.899   0.779 -0.5743 -0.1085  0.2870
  154MOL     C330909   2.474   6.865   0.909  0.1663 -0.0722  0.4730
  154MOL     C430910   2.455   6.988   0.999 -0.7770  0.0764 -0.2757
  154MOL     H530911   2.498   6.967   0.710 -5.1222 -0.8414  2.6856
  154MOL     H630912   2.638   6.958   0.800  0.3047 -1.4664  0.4248
  154MOL     H730913   2.377   6.822   0.883  0.5084  0.1980 -1.3133
  154MOL     H830914   2.531   6.791   0.965 -0.1421  0.2584  1.2424
  154MOL     H930915   2.395   7.066   0.952 -1.2767 -1.1292 -1.6559
  154MOL    H1030916   2.548   7.020   1.048  0.4836  0.5195 -2.8934
  154MOL    H1130917   2.549   6.721   0.699  0.8627 -0.0111 -0.4084
  154MOL    O1230918   2.379   6.951   1.115 -0.5395 -0.1630 -0.2101
  154MOL    C1330919   2.363   7.061   1.204 -0.7396 -0.0697 -0.0542
  154MOL    C1430920   2.252   7.017   1.311 -0.0067  0.0660  0.0812
  154MOL    C1530921   2.203   7.125   1.403 -0.0549 -0.4228  0.6305
  154MOL    H1630922   2.337   7.159   1.165 -2.2588 -0.6424 -0.5408
  154MOL    H1730923   2.456   7.089   1.252 -0.0860 -2.3009  0.0416
  154MOL    H1830924   2.162   6.974   1.268  0.1342 -0.1021 -0.0472
  154MOL    H1930925   2.301   6.936   1.365  0.2527  1.0134  1.2982
  154MOL    H2030926   2.149   7.205   1.351 -1.7111 -0.5889  2.0642
  154MOL    H2130927   2.282   7.192   1.439  0.1987 -0.2871 -0.1648
  154MOL    O2230928   2.133   7.074   1.514  0.0608  0.0076 -0.1873
  154MOL    C2330929   2.066   7.179   1.577  1.1955  0.4507 -0.6987
  154MOL    C2430930   1.984   7.111   1.689  0.3029 -0.6054 -0.0452
  154MOL    C2530931   1.945   7.200   1.808  0.2021 -0.7779  0.0160
  154MOL    H2630932   1.988   7.224   1.516  0.2235 -0.7264 -0.3725
  154MOL    H2730933   2.127   7.261   1.615  1.5141 -0.9332  1.9171
  154MOL    H2830934   1.894   7.063   1.653  1.0608 -1.4144 -0.8765
  154MOL    H2930935   2.038   7.028   1.736  0.9664  0.7468  1.6384
  154MOL    H3030936   2.027   7.257   1.852  0.2417 -0.9016  0.1015
  154MOL    H3130937   1.919   7.130   1.887  0.2785  0.2773  0.9739
  154MOL    O3230938   1.818   7.259   1.782 -0.2029 -0.7764 -0.3898
  154MOL    C3330939   1.806   7.392   1.828 -0.2715 -0.6816 -0.4466
  154MOL    C3430940   1.693   7.461   1.751  0.3955 -0.3989 -0.1590
  154MOL    C3530941   1.675   7.612   1.804  0.8472  0.2697  0.3247
  154MOL    H3630942   1.901   7.441   1.806 -0.7450 -0.2283 -1.5103
  154MOL    H3730943   1.795   7.386   1.937  4.3001 -1.1232  0.0929
  154MOL    H3830944   1.726   7.475   1.648  1.4393  0.8624  0.3269
  154MOL    H3930945   1.603   7.401   1.763  0.8128 -0.3883  3.6349
  154MOL    H4030946   1.654   7.622   1.910  3.2166  2.3017  0.6301
  154MOL    H4130947   1.586   7.658   1.760 -0.1571  1.5860  3.5770
  154MOL    O4230948   1.787   7.692   1.767  0.5665 -0.4492  0.1465
  154MOL    C4330949   1.775   0.038   1.824  0.1765  0.1245  0.7370
  154MOL    C4430950   1.899   0.126   1.782 -0.1134 -0.4296 -0.0932
  154MOL    C4530951   1.889   0.176   1.643 -0.3791  0.0269  0.0688
  154MOL    H4630952   1.774   0.018   1.931  2.1016  0.5930  0.8710
  154MOL    H4730953   1.685   0.090   1.792 -0.3958 -1.4491 -0.2903
  154MOL    H4830954   1.919   0.201   1.858 -0.3862  0.3542 -0.7901
  154MOL    H4930955   1.989   0.065   1.796 -0.4460 -0.8971  0.0132
  154MOL    H5030956   1.827   0.266   1.632 -0.8046 -0.2425  0.2784
  154MOL    H5130957   1.848   0.093   1.585 -0.4010  0.0688  0.0239
  154MOL    O5230958   2.014   0.216   1.597 -0.5225  0.3965  0.1289
  154MOL    C5330959   2.022   0.203   1.461 -0.3392  0.0547  0.3558
  154MOL    C5430960   2.167   0.231   1.412 -0.2012  0.1309  0.4438
  154MOL    C5530961   2.186   0.198   1.259  0.7416  0.0527  0.0272
  154MOL    H5630962   1.964   0.271   1.398 -0.9485 -2.7883 -2.2427
  154MOL    H5730963   1.998   0.102   1.431  0.8344  0.3720 -1.7060
  154MOL    H5830964   2.194   0.334   1.436  1.2996  0.2249 -1.5296
  154MOL    H5930965   2.247   0.170   1.455  0.5646 -0.8509 -2.2552
  154MOL    H6030966   2.108   0.254   1.208  0.0380 -0.4141  0.5697
  154MOL    H6130967   2.164   0.093   1.243  0.2403  0.2570 -0.6310
  154MOL    O6230968   2.318   0.235   1.222  0.3440 -0.2319 -0.1510
  154MOL    C6330969   2.323   0.374   1.177  0.2535  0.1324 -0.5687
  154MOL    C6430970   2.460   0.402   1.117  0.7082  0.0050  0.1003
  154MOL    C6530971   2.474   0.522   1.023 -0.2353  0.4353 -0.3645
  154MOL    H6630972   2.298   0.436   1.263 -0.8477 -0.6406 -0.3209
  154MOL    H6730973   2.242   0.378   1.104 -1.1332 -3.8570  0.5957
  154MOL    H6830974   2.534   0.409   1.196 -0.5296  1.7219  1.1241
  154MOL    H6930975   2.488   0.316   1.056 -0.4598 -0.2049 -0.1654
  154MOL    H7030976   2.493   0.609   1.086 -0.0296  0.7220 -0.8234
  154MOL    H7130977   2.387   0.523   0.958 -2.3075 -1.3428  2.2921
  154MOL    O7230978   2.588   0.509   0.933 -0.3973  0.3749 -0.2434
  154MOL    C7330979   2.626   0.627   0.870  0.0338 -0.9015 -0.3711
  154MOL    C7430980   2.769   0.608   0.819 -0.4109 -0.2017  1.0511
  154MOL    C7530981   2.789   0.705   0.698 -0.3917 -0.3957  0.5211
  154MOL    H7630982   2.630   0.709   0.941  0.4522 -2.4435  1.4483
  154MOL    H7730983   2.562   0.630   0.781 -0.6695  0.3286  0.1706
  154MOL    H7830984   2.845   0.632   0.894 -2.0604  0.1439  2.6229
  154MOL    H7930985   2.797   0.506   0.791  0.0466  0.1597  0.1549
  154MOL    H8030986   2.768   0.808   0.728  1.2351  0.0041  0.3318
  154MOL    H8130987   2.726   0.679   0.613 -0.8448  2.1967  0.0270
  154MOL    O8230988   2.930   0.703   0.668 -0.1197 -0.0402  0.2305
  154MOL    C8330989   2.974   0.801   0.569 -0.5187  0.5043 -0.1435
  154MOL    C8430990   3.124   0.801   0.589  0.2050 -0.0298 -0.2072
  154MOL    C8530991   3.193   0.906   0.501  0.3079 -0.2091  0.0948
  154MOL    H8630992   2.926   0.897   0.589 -0.1430  0.6925 -0.1500
  154MOL    H8730993   2.942   0.760   0.473  0.3113  3.4683 -1.7343
  154MOL    H8830994   3.149   0.816   0.693 -0.3096 -0.9548  0.0585
  154MOL    H8930995   3.159   0.704   0.554 -0.8628 -1.0457  1.5044
  154MOL    H9030996   3.133   0.995   0.519 -0.1362 -0.8545  1.8982
  154MOL    H9130997   3.177   0.882   0.396  2.3090  0.1125 -0.3093
  154MOL    O9230998   3.325   0.929   0.544  0.2577  0.7852 -0.3159
  154MOL    C9330999   3.394   1.027   0.462 -0.0905 -1.0013 -0.2029
  154MOL    C9431000   3.543   1.033   0.495  0.0535  0.0135 -0.5572
  154MOL    C9531001   3.608   1.153   0.433 -0.9380  0.3185 -0.7236
  154MOL    H9631002   3.360   1.127   0.491  0.0550 -0.9245 -0.3011
  154MOL    H9731003   3.373   1.025   0.355 -0.2908 -0.6294 -0.1728
  154MOL    H9831004   3.548   1.023   0.604  2.2227 -0.2475 -0.6604
  154MOL    H9931005   3.583   0.938   0.459 -0.4870 -0.7328  0.7361
  154MOL   H10031006   3.595   1.246   0.488  4.4538  0.6673  0.1735
  154MOL   H10131007   3.566   1.165   0.333 -1.0313  0.8967 -0.6145
  154MOL   O10231008   3.749   1.125   0.437 -0.3746 -0.3507  0.1155
  154MOL   C10331009   3.828   1.171   0.329 -0.6943 -0.6887  0.2994
  154MOL   C10431010   3.967   1.137   0.370 -0.7319 -0.0554 -0.2170
  154MOL   C10531011   4.064   1.188   0.273 -0.1487 -0.2867 -0.8799
  154MOL   H10631012   3.815   1.276   0.304  0.4021 -0.3610  1.0868
  154MOL   H10731013   3.800   1.113   0.240 -0.2029  1.5026 -1.3212
  154MOL   H10831014   4.002   1.164   0.470  1.7264  1.2062 -1.3801
  154MOL   H10931015   3.984   1.030   0.380  1.4534  0.2377 -0.5115
  154MOL   H11031016   4.022   1.149   0.180 -1.3048  1.3206 -1.0686
  154MOL   H11131017   4.167   1.159   0.290 -0.5681 -1.7727 -0.8082
  154MOL   O11231018   4.049   1.333   0.275  0.3898 -0.5799  0.5131
  154MOL   C11331019   4.132   1.404   0.193  0.0618 -0.7365 -0.5400
  154MOL   C11431020   4.098   1.554   0.222 -0.5532 -0.5590  0.5132
  154MOL   C11531021   4.151   1.613   0.350 -0.1796  0.2797 -0.1848
  154MOL   H11631022   4.113   1.368   0.092 -2.5314 -1.7806  0.2831
  154MOL   H11731023   4.239   1.398   0.208  0.1039  0.1720 -0.4396
  154MOL   H11831024   4.138   1.610   0.138 -2.2388  0.1288  0.1484
  154MOL   H11931025   3.990   1.565   0.212 -0.4990  0.9149  1.4227
  154MOL   H12031026   4.257   1.638   0.339  0.4173 -1.7453  0.6689
  154MOL   H12131027   4.145   1.544   0.434  3.0710 -0.4981 -0.5091
  154MOL   O12231028   4.086   1.732   0.383 -0.5093  0.6318  0.1969
  154MOL   C12331029   3.958   1.718   0.449 -0.3555 -0.0816 -0.3598
  154MOL   C12431030   3.883   1.845   0.475 -0.5588  0.1588 -0.4742
  154MOL   C12531031   3.949   1.945   0.571  0.3431  0.6508  0.0373
  154MOL   H12631032   3.972   1.659   0.540  2.1243  0.3678 -0.4075
  154MOL   H12731033   3.887   1.658   0.393 -0.4207  1.7335 -2.2714
  154MOL   H12831034   3.866   1.884   0.375 -1.0642  1.1202 -0.0242
  154MOL   H12931035   3.782   1.822   0.509  0.4811 -0.7195  2.1893
  154MOL   H13031036   4.049   1.959   0.531  0.1859  1.0110 -0.2320
  154MOL   H13131037   3.950   1.904   0.672  2.2050 -1.5428 -0.8514
  154MOL   O13231038   3.873   2.071   0.573  0.2602 -0.3689 -0.4283
  154MOL   C13331039   3.881   2.139   0.697 -0.8000  0.2334 -0.0160
  154MOL   C13431040   3.809   2.270   0.688  0.0949 -0.7842  0.0393
  154MOL   C13531041   3.677   2.265   0.620 -0.1757 -0.9825 -0.1926
  154MOL   H13631042   3.985   2.168   0.709 -0.8600  1.2432 -1.7989
  154MOL   H13731043   3.844   2.067   0.771  1.3210 -0.1862  0.6709
  154MOL   H13831044   3.800   2.313   0.788  1.8697 -1.5496  0.5617
  154MOL   H13931045   3.866   2.336   0.623  0.0121 -0.4109  0.3455
  154MOL   H14031046   3.623   2.195   0.683 -0.7467 -0.4458 -0.0830
  154MOL   H14131047   3.690   2.227   0.519 -2.4479  0.7112 -1.1774
  154MOL   O14231048   3.600   2.384   0.627  0.3585 -0.4422 -0.5630
  154MOL   C14331049   3.472   2.374   0.554 -0.2958 -0.6365 -0.4387
  154MOL   C14431050   3.423   2.515   0.518 -0.2989 -0.2005  0.5742
  154MOL   C14531051   3.276   2.530   0.483 -0.2941  0.2944  0.2142
  154MOL   H14631052   3.395   2.332   0.619 -1.2793  1.7742 -0.0094
  154MOL   H14731053   3.487   2.318   0.462 -1.7720 -1.1447 -0.3852
  154MOL   H14831054   3.448   2.584   0.598 -0.6175  0.2072  0.3251
  154MOL   H14931055   3.477   2.553   0.431  1.1434 -3.3462 -0.0053
  154MOL   H15031056   3.250   2.635   0.483  0.0619  0.3830  0.3054
  154MOL   H15131057   3.224   2.474   0.562 -2.1849  1.9335  0.1895
  154MOL   O15231058   3.252   2.485   0.351 -0.4485 -0.0251  0.3422
  154MOL   C15331059   3.113   2.451   0.321 -0.5776  0.4138  0.3030
  154MOL   C15431060   3.109   2.397   0.183  0.0444 -0.0602 -0.2068
  154MOL   C15531061   2.963   2.382   0.136  0.5766 -0.8207  0.2735
  154MOL   H15631062   3.047   2.536   0.338  0.9123  1.7161 -0.2552
  154MOL   H15731063   3.083   2.384   0.402 -0.3546  1.6748  1.4596
  154MOL   H15831064   3.152   2.471   0.116  0.0571  0.1509  0.0347
  154MOL   H15931065   3.165   2.305   0.163  1.3260  0.5388  0.5849
  154MOL   H16031066   2.971   2.358   0.030 -0.4179 -1.0906  0.2556
  154MOL   H16131067   2.931   2.486   0.141  2.2188 -0.3412  0.8664
  154MOL   O16231068   2.884   2.300   0.217  0.1529  0.5926  0.2996
  154MOL   C16331069   2.749   2.295   0.173  0.6542  0.4164  0.0260
  154MOL   C16431070   2.668   2.193   0.259 -0.2586 -0.0861  0.1468
  154MOL   C16531071   2.527   2.159   0.198 -0.0514  0.7392  0.1998
  154MOL   H16631072   2.750   2.270   0.067 -1.5708 -0.4260  0.1664
  154MOL   H16731073   2.696   2.390   0.164 -1.6071 -0.8382 -0.2237
  154MOL   H16831074   2.735   2.108   0.273  1.0533  0.9072  0.0355
  154MOL   H16931075   2.664   2.229   0.362 -0.2513 -1.3651  0.6010
  154MOL   H17031076   2.532   2.137   0.091 -0.5499  1.4049  0.0318
  154MOL   H17131077   2.459   2.244   0.199 -0.4074  0.4923 -1.2636
  154MOL   O17231078   2.484   2.049   0.268 -0.4640 -0.2222 -0.0830
  154MOL   C17331079   2.420   2.070   0.390  0.0563  0.1191 -0.6377
  154MOL   C17431080   2.446   1.942   0.474  0.2672  0.3386 -0.2124
  154MOL   C17531081   2.596   1.912   0.489 -0.5063 -0.4298 -0.3996
  154MOL   H17631082   2.312   2.083   0.384 -0.0354  0.4802  1.4367
  154MOL   H17731083   2.463   2.154   0.446  2.3392 -1.6586  0.3392
  154MOL   H17831084   2.415   1.959   0.577  2.7393 -0.7497  0.7629
  154MOL   H17931085   2.398   1.853   0.433  2.3361 -0.8375 -0.1339
  154MOL   H18031086   2.653   1.995   0.531 -1.6531  0.2942 -0.2731
  154MOL   H18131087   2.636   1.896   0.388 -0.2367  0.0591 -0.3728
  154MOL   O18231088   2.608   1.798   0.575  0.3472 -0.2131 -0.0013
  154MOL   C18331089   2.737   1.753   0.604 -0.3563 -0.0762 -0.3313
  154MOL   C18431090   2.732   1.633   0.698  0.0437  0.4087  0.2074
  154MOL   C18531091   2.677   1.510   0.628 -0.1165  0.0654 -0.3949
  154MOL   H18631092   2.800   1.828   0.653 -0.7579 -0.0158  0.0998
  154MOL   H18731093   2.780   1.713   0.512 -1.2066 -0.6025 -0.5059
  154MOL   H18831094   2.832   1.598   0.725  0.3625  1.3212  0.2195
  154MOL   H18931095   2.665   1.649   0.782 -0.9074 -0.3160 -0.3947
  154MOL   H19031096   2.729   1.507   0.532 -1.0656  0.1797 -0.9192
  154MOL   H19131097   2.570   1.525   0.611  0.6347  0.6617 -5.3537
  154MOL   O19231098   2.712   1.392   0.702 -0.0098 -0.1669  0.4601
  154MOL   C19331099   2.624   1.342   0.798  0.3380 -0.4592  0.2897
  154MOL   C19431100   2.674   1.209   0.852 -0.7238 -0.0564 -0.6958
  154MOL   C19531101   2.712   1.111   0.748  0.7018 -0.0275 -0.1778
  154MOL   H19631102   2.528   1.328   0.748  0.0314  0.3951  0.6280
  154MOL   H19731103   2.612   1.413   0.880  2.7367  0.5711 -0.2127
  154MOL   H19831104   2.760   1.224   0.917 -1.6624  0.8989  0.3488
  154MOL   H19931105   2.594   1.175   0.917 -1.1084 -0.8942 -1.5833
  154MOL   H20031106   2.808   1.128   0.699  0.5376  1.4098 -0.0021
  154MOL   H20131107   2.641   1.111   0.665  1.3650  1.8261 -0.7639
  154MOL   H20231108   2.709   1.011   0.792 -2.0659  0.7018  1.3850
  155MOL     O131109   2.821   7.631   1.861  0.3225 -0.1921 -0.5552
  155MOL     C231110   2.801   7.504   1.905  0.8621 -0.9268 -0.1753
  155MOL     C331111   2.659   7.447   1.857  0.3853  0.1120  0.5132
  155MOL     C431112   2.655   7.382   1.718  0.9424  1.1985 -0.5895
  155MOL     H531113   2.798   7.500   2.014  1.8789  0.0890 -0.1028
  155MOL     H631114   2.886   7.444   1.873  1.8535  0.3665 -0.0142
  155MOL     H731115   2.643   7.365   1.926 -0.7986  1.0333  1.3612
  155MOL     H831116   2.573   7.514   1.870  0.3292  0.0068  0.6706
  155MOL     H931117   2.754   7.363   1.677  1.6593  1.4828  0.9683
  155MOL    H1031118   2.606   7.439   1.639  1.0225 -0.7216 -2.0681
  155MOL    H1131119   2.888   7.670   1.915  0.4760 -1.4269  0.1716
  155MOL    O1231120   2.583   7.256   1.719 -0.9746 -0.1410 -0.0525
  155MOL    C1331121   2.610   7.168   1.611 -0.1022 -0.0908 -0.7048
  155MOL    C1431122   2.544   7.034   1.637  0.2516 -0.4508 -0.2957
  155MOL    C1531123   2.583   6.934   1.524  0.1814 -0.1348 -0.0848
  155MOL    H1631124   2.717   7.146   1.614  0.2031  1.2879 -1.0286
  155MOL    H1731125   2.580   7.209   1.515  0.0984 -1.3371 -1.3134
  155MOL    H1831126   2.562   6.997   1.738 -1.3265  0.5548  0.3648
  155MOL    H1931127   2.438   7.043   1.616  0.7117  1.1613 -1.9904
  155MOL    H2031128   2.672   6.881   1.556  0.9905  1.4393  0.3216
  155MOL    H2131129   2.600   6.979   1.427 -0.8784 -0.7560 -0.5735
  155MOL    O2231130   2.481   6.839   1.508  0.0115  0.0945 -0.4247
  155MOL    C2331131   2.503   6.729   1.424 -0.4399 -0.1372 -0.4597
  155MOL    C2431132   2.404   6.615   1.462 -0.4573 -0.0275  0.0398
  155MOL    C2531133   2.430   6.476   1.416  0.5113  0.2875  0.8911
  155MOL    H2631134   2.602   6.684   1.437 -0.6904 -0.9276 -1.2471
  155MOL    H2731135   2.501   6.757   1.318 -3.8566 -1.8110 -0.8910
  155MOL    H2831136   2.412   6.606   1.570 -0.4698  0.3350  0.0727
  155MOL    H2931137   2.307   6.648   1.424 -0.7843  0.2988  1.1526
  155MOL    H3031138   2.516   6.445   1.475 -0.1686  0.6187  2.0644
  155MOL    H3131139   2.444   6.475   1.308  0.4835  0.1776  0.8885
  155MOL    O3231140   2.313   6.405   1.459 -0.1159  0.1140  0.1584
  155MOL    C3331141   2.303   6.268   1.432  0.0390  0.1659 -0.4054
  155MOL    C3431142   2.177   6.234   1.514 -0.4058 -0.4454 -0.3161
  155MOL    C3531143   2.186   6.249   1.668  0.2206 -0.6150 -0.6593
  155MOL    H3631144   2.382   6.200   1.465  0.7041  1.4076  0.5981
  155MOL    H3731145   2.288   6.253   1.325 -1.8454 -0.2438 -0.0991
  155MOL    H3831146   2.090   6.286   1.474 -1.5598 -1.7064  0.5170
  155MOL    H3931147   2.165   6.127   1.501 -0.9263 -0.4365  0.0431
  155MOL    H4031148   2.085   6.248   1.707 -0.3519  0.2351 -2.0777
  155MOL    H4131149   2.229   6.347   1.689 -0.6843 -0.3705  0.0792
  155MOL    O4231150   2.258   6.146   1.722 -0.4171  0.2473  0.1758
  155MOL    C4331151   2.287   6.166   1.861  0.2118 -0.5522  0.1304
  155MOL    C4431152   2.377   6.048   1.898 -0.3922  1.2326  0.1704
  155MOL    C4531153   2.520   6.066   1.854  0.6049  0.3571  0.3196
  155MOL    H4631154   2.198   6.163   1.924 -0.5798  0.6205 -0.9117
  155MOL    H4731155   2.333   6.263   1.882  2.3809 -1.4053 -0.5834
  155MOL    H4831156   2.377   6.019   2.004  4.1678 -0.0894 -0.0823
  155MOL    H4931157   2.348   5.952   1.857  2.4367  0.3071  0.2254
  155MOL    H5031158   2.533   6.051   1.747  0.6484  0.9679  0.2383
  155MOL    H5131159   2.583   5.990   1.901 -0.9175  0.0167  1.8548
  155MOL    O5231160   2.567   6.199   1.895  0.8434 -0.4701 -0.2688
  155MOL    C5331161   2.623   6.275   1.793  0.6410  0.6691 -0.1477
  155MOL    C5431162   2.634   6.423   1.844  0.6073 -0.2340  0.4479
  155MOL    C5531163   2.684   6.518   1.741 -0.6928  0.8741 -0.2689
  155MOL    H5631164   2.565   6.280   1.701 -0.0381  2.4466  0.3448
  155MOL    H5731165   2.717   6.225   1.770  0.1680 -0.2849 -0.0266
  155MOL    H5831166   2.543   6.465   1.886  0.5297  2.9953 -2.7359
  155MOL    H5931167   2.702   6.422   1.928  0.4622 -3.0072  0.5643
  155MOL    H6031168   2.677   6.622   1.771  0.9468  1.0318 -0.3519
  155MOL    H6131169   2.629   6.512   1.647 -1.0447  3.1693 -0.2258
  155MOL    O6231170   2.821   6.472   1.728  0.2048  0.1358  0.0002
  155MOL    C6331171   2.880   6.532   1.613 -0.3498  0.3034 -0.0636
  155MOL    C6431172   2.961   6.443   1.514 -0.6730  0.1523  0.8334
  155MOL    C6531173   2.875   6.320   1.475  0.0338 -0.1954 -0.4943
  155MOL    H6631174   2.951   6.606   1.650 -1.0245  1.1608 -0.4510
  155MOL    H6731175   2.816   6.582   1.541  0.5455 -0.2531 -1.2683
  155MOL    H6831176   2.989   6.508   1.432 -0.1631 -2.3360 -1.0275
  155MOL    H6931177   3.058   6.423   1.559 -1.2167 -2.1812  1.0144
  155MOL    H7031178   2.781   6.355   1.431  0.5091  0.5810 -0.9031
  155MOL    H7131179   2.852   6.260   1.563  0.3600  2.2921  1.3692
  155MOL    O7231180   2.934   6.253   1.359  0.1331 -0.2478 -0.3205
  155MOL    C7331181   2.864   6.139   1.318 -0.3637  0.2127  0.1409
  155MOL    C7431182   2.932   6.070   1.198  0.2316  0.2371  0.3787
  155MOL    C7531183   3.078   6.037   1.223  0.1091 -0.1335  0.3756
  155MOL    H7631184   2.766   6.172   1.285  0.4637  1.6404 -0.9989
  155MOL    H7731185   2.861   6.071   1.403  2.3330  1.7198  1.5155
  155MOL    H7831186   2.876   5.977   1.183  2.0184 -0.9095  0.6942
  155MOL    H7931187   2.926   6.121   1.102 -2.0119 -2.7012 -1.1162
  155MOL    H8031188   3.095   5.970   1.307  1.5852  0.1372  0.3087
  155MOL    H8131189   3.139   6.123   1.250 -0.3682  0.2937  0.1123
  155MOL    O8231190   3.136   5.967   1.111 -0.7557 -0.0315 -0.0999
  155MOL    C8331191   3.165   6.049   1.001 -0.2756 -0.4886  0.1340
  155MOL    C8431192   3.291   5.980   0.933  0.7524  0.5718  0.0452
  155MOL    C8531193   3.332   6.042   0.797  0.5027  0.0825  0.1772
  155MOL    H8631194   3.191   6.152   1.023 -0.1683  0.0133 -2.1952
  155MOL    H8731195   3.089   6.055   0.923 -0.7627  0.8917  0.6965
  155MOL    H8831196   3.368   5.958   1.007  0.0978  0.6626  0.7600
  155MOL    H8931197   3.262   5.877   0.915 -0.3135  1.2456 -2.3243
  155MOL    H9031198   3.321   6.149   0.814 -0.9674 -0.2675  1.4656
  155MOL    H9131199   3.259   6.007   0.724 -0.6466  0.0379  1.3308
  155MOL    O9231200   3.465   6.009   0.757  0.5225 -0.3150 -0.0809
  155MOL    C9331201   3.494   6.053   0.626 -0.4847 -0.4105 -0.0369
  155MOL    C9431202   3.605   5.967   0.571  0.2048 -0.2867  0.9348
  155MOL    C9531203   3.635   5.991   0.423  0.1019 -0.0477  0.0264
  155MOL    H9631204   3.517   6.159   0.626 -0.0896 -0.4990  0.2781
  155MOL    H9731205   3.406   6.031   0.565 -0.3588  1.2035 -0.8325
  155MOL    H9831206   3.693   5.979   0.634  1.0973 -0.6225 -0.2383
  155MOL    H9931207   3.578   5.864   0.593 -0.2441 -0.3592  0.0689
  155MOL   H10031208   3.679   6.090   0.414 -1.4268  0.4526 -2.2302
  155MOL   H10131209   3.548   6.003   0.359  0.8741 -1.2431 -1.2691
  155MOL   O10231210   3.728   5.899   0.381  0.1380  0.2015  0.4926
  155MOL   C10331211   3.769   5.927   0.248 -0.5819 -0.4166  0.0048
  155MOL   C10431212   3.844   5.801   0.199 -0.2512  0.3373  0.6133
  155MOL   C10531213   3.993   5.832   0.156  0.3068 -0.0772 -0.2281
  155MOL   H10631214   3.843   6.007   0.255 -0.6905 -0.3820  0.7904
  155MOL   H10731215   3.682   5.952   0.186 -2.1088 -2.7239  1.1296
  155MOL   H10831216   3.854   5.724   0.275  3.0212 -0.3710 -0.4459
  155MOL   H10931217   3.791   5.752   0.117 -0.9669 -0.3144  1.4600
  155MOL   H11031218   3.992   5.915   0.085 -0.1031  1.5977  1.7155
  155MOL   H11131219   4.032   5.749   0.096 -0.6838 -0.5969 -0.1729
  155MOL   O11231220   4.073   5.863   0.260 -0.0464  0.4516  0.1058
  155MOL   C11331221   4.216   5.854   0.239 -0.0402 -0.6187  0.3255
  155MOL   C11431222   4.282   5.892   0.368 -0.0360 -0.3108  0.0701
  155MOL   C11531223   4.261   6.037   0.418  0.0394  0.1276 -0.4206
  155MOL   H11631224   4.251   5.929   0.167  0.2978 -0.4604  0.6588
  155MOL   H11731225   4.240   5.752   0.211 -0.6509 -0.8494  0.6102
  155MOL   H11831226   4.254   5.823   0.448 -1.3120  1.4483  1.1758
  155MOL   H11931227   4.389   5.871   0.365 -0.0914 -0.4870 -1.1317
  155MOL   H12031228   4.154   6.057   0.412 -0.6115 -3.2011 -1.5755
  155MOL   H12131229   4.313   6.091   0.339  2.5509 -0.5140  0.7284
  155MOL   O12231230   4.328   6.045   0.543  0.3550 -0.0882 -0.3099
  155MOL   C12331231   4.456   6.113   0.528  0.4746 -0.0343  0.2052
  155MOL   C12431232   4.514   6.123   0.669 -0.2832  0.4454  0.7011
  155MOL   C12531233   4.575   5.992   0.725  0.0909  0.5608 -0.1261
  155MOL   H12631234   4.444   6.202   0.465 -0.0745 -1.9937 -2.5673
  155MOL   H12731235   4.526   6.052   0.471  1.6471  2.5548 -1.2206
  155MOL   H12831236   4.587   6.202   0.648  1.0935 -1.3173 -1.4200
  155MOL   H12931237   4.434   6.149   0.738 -0.1689 -2.0925  1.8674
  155MOL   H13031238   4.497   5.922   0.695 -2.0792  1.5374  2.9587
  155MOL   H13131239   4.588   5.994   0.833  1.3078  0.0046 -0.2488
  155MOL   O13231240   4.694   5.952   0.659  0.4006  0.7840  0.1082
  155MOL   C13331241   4.761   5.837   0.707 -0.1573  0.4838  0.0196
  155MOL   C13431242   4.814   5.747   0.589 -0.3965  0.5028 -0.1299
  155MOL   C13531243   4.701   5.702   0.503  0.2663 -0.2609  0.2712
  155MOL   H13631244   4.695   5.785   0.777  0.1788 -1.4958 -1.0764
  155MOL   H13731245   4.848   5.868   0.765  1.1900 -2.1163 -0.5421
  155MOL   H13831246   4.881   5.802   0.522  0.3784 -0.6826 -0.3462
  155MOL   H13931247   4.868   5.665   0.638  2.0083  0.6619 -2.3902
  155MOL   H14031248   4.642   5.790   0.479 -1.0955 -1.7299 -1.8697
  155MOL   H14131249   4.637   5.631   0.556  0.9361 -0.8251  0.3282
  155MOL   O14231250   4.745   5.638   0.385  0.7264 -0.3545 -0.1573
  155MOL   C14331251   4.634   5.566   0.326  0.6558  0.6405  0.1149
  155MOL   C14431252   4.689   5.489   0.206 -0.7404 -0.6236 -0.1217
  155MOL   C14531253   4.590   5.421   0.107 -0.0456 -0.2512  0.2739
  155MOL   H14631254   4.564   5.637   0.283  0.2948  1.0045  1.3084
  155MOL   H14731255   4.574   5.504   0.392  0.1044  0.9308 -0.1133
  155MOL   H14831256   4.755   5.543   0.138  2.4069 -4.3072 -0.1897
  155MOL   H14931257   4.744   5.402   0.242 -0.8238  1.0919  4.4753
  155MOL   H15031258   4.512   5.365   0.158  0.3545 -1.4569 -0.4048
  155MOL   H15131259   4.642   5.350   0.043 -1.1835  0.9090 -1.9929
  155MOL   O15231260   4.530   5.521   0.029 -0.0565 -0.1755  0.2614
  155MOL   C15331261   4.453   5.464   7.710  0.1059  0.0833 -0.0205
  155MOL   C15431262   4.369   5.574   7.643 -0.0854 -0.0589  0.0189
  155MOL   C15531263   4.274   5.504   7.541  0.0815 -0.0942 -0.0302
  155MOL   H15631264   4.385   5.384   7.739  1.1581 -0.7468  0.1705
  155MOL   H15731265   4.511   5.423   7.627 -1.4054 -0.7232 -0.6940
  155MOL   H15831266   4.311   5.617   7.725  1.6777 -0.9739  1.7903
  155MOL   H15931267   4.429   5.648   7.589 -0.8330 -0.2024 -1.0338
  155MOL   H16031268   4.171   5.520   7.572  0.5801  1.8326  0.7393
  155MOL   H16131269   4.289   5.397   7.535  0.5107  0.0901 -2.8666
  155MOL   O16231270   4.273   5.563   7.409  0.0418  0.8428  0.3289
  155MOL   C16331271   4.187   5.489   7.315 -0.2014 -0.2187 -0.3065
  155MOL   C16431272   4.227   5.527   7.165  0.6810  0.4425 -0.7066
  155MOL   C16531273   4.317   5.428   7.093 -0.6764 -0.3884 -0.0160
  155MOL   H16631274   4.082   5.508   7.337  0.0258  0.6768  0.0240
  155MOL   H16731275   4.185   5.383   7.338 -0.6908 -0.6257 -2.1270
  155MOL   H16831276   4.132   5.515   7.113 -1.7257  0.9422  3.3237
  155MOL   H16931277   4.267   5.628   7.170 -0.8865  1.0281  0.3259
  155MOL   H17031278   4.411   5.402   7.143  0.5214  1.1601 -1.3943
  155MOL   H17131279   4.353   5.472   7.000 -2.7147  1.0309 -0.1788
  155MOL   O17231280   4.251   5.303   7.067  0.2528  0.1255 -0.2655
  155MOL   C17331281   4.314   5.240   6.951  0.0170 -0.4149  0.4670
  155MOL   C17431282   4.291   5.089   6.937  0.1054  0.3278  0.2824
  155MOL   C17531283   4.367   5.031   6.822 -0.0667 -0.3642  0.5021
  155MOL   H17631284   4.422   5.253   6.961  0.0332 -1.0246  1.1879
  155MOL   H17731285   4.277   5.283   6.858 -0.2558 -0.4020  0.5796
  155MOL   H17831286   4.334   5.045   7.027 -0.3318  0.0034  0.3313
  155MOL   H17931287   4.188   5.054   6.947  0.9678 -2.1160  0.9963
  155MOL   H18031288   4.369   4.923   6.840  3.1161 -0.6356 -1.2256
  155MOL   H18131289   4.472   5.060   6.817 -0.3855  0.5562 -0.9787
  155MOL   O18231290   4.304   5.054   6.706 -0.4733  0.7713  0.6059
  155MOL   C18331291   4.338   4.989   6.590 -0.2055 -0.5685  0.0350
  155MOL   C18431292   4.219   4.954   6.506  0.4419  0.0075  0.8139
  155MOL   C18531293   4.257   4.850   6.398  0.0047 -0.1481 -0.5967
  155MOL   H18631294   4.388   4.894   6.612 -0.3768 -0.0091  2.9868
  155MOL   H18731295   4.413   5.056   6.548 -0.4809 -1.7215 -2.4187
  155MOL   H18831296   4.140   4.909   6.566  0.3259  0.9585  1.3870
  155MOL   H18931297   4.175   5.040   6.456 -3.7480 -1.2976  2.0733
  155MOL   H19031298   4.300   4.762   6.447  2.3306  0.1905 -1.9052
  155MOL   H19131299   4.331   4.892   6.330  0.6072 -0.2109  0.0092
  155MOL   O19231300   4.143   4.821   6.320  0.1124 -0.6069  0.3952
  155MOL   C19331301   4.156   4.690   6.261  0.4950  0.7110 -0.1790
  155MOL   C19431302   4.068   4.671   6.145 -0.1441 -0.3632  0.0262
  155MOL   C19531303   4.046   4.523   6.102 -0.1246  0.1139 -0.1882
  155MOL   H19631304   4.123   4.620   6.337 -1.6409 -2.1479 -3.5941
  155MOL   H19731305   4.258   4.670   6.229  0.2104  1.3340 -1.4923
  155MOL   H19831306   3.969   4.703   6.176  0.8870  0.3886  2.6670
  155MOL   H19931307   4.090   4.731   6.056 -0.4446  0.1759  0.3140
  155MOL   H20031308   3.968   4.523   6.025 -1.8443  2.1310  1.4972
  155MOL   H20131309   4.011   4.462   6.185  0.6077 -0.8937 -0.6220
  155MOL   H20231310   4.128   4.463   6.064  0.3027  0.0164  0.8823
  156MOL     O131311   3.482   2.728   5.837 -0.2405 -0.5064  0.5064
  156MOL     C231312   3.621   2.731   5.799  0.7175  0.4107 -0.2517
  156MOL     C331313   3.658   2.871   5.733  0.5446 -0.1522 -0.7101
  156MOL     C431314   3.802   2.866   5.686  0.0588  0.5081  0.2492
  156MOL     H531315   3.641   2.658   5.721 -1.5591 -0.1798 -0.3136
  156MOL     H631316   3.677   2.708   5.890 -3.8627  0.3630  2.7362
  156MOL     H731317   3.588   2.887   5.651 -1.8596 -2.0809  0.9123
  156MOL     H831318   3.642   2.951   5.806  1.2696 -0.9004  0.2887
  156MOL     H931319   3.827   2.760   5.681 -0.1833  0.3943  1.3520
  156MOL    H1031320   3.870   2.926   5.748 -0.4201  0.5508  0.7317
  156MOL    H1131321   3.458   2.810   5.878 -0.7959 -1.2160  1.6243
  156MOL    O1231322   3.809   2.921   5.546 -0.0725  0.5033 -0.5214
  156MOL    C1331323   3.937   2.889   5.483 -0.2006 -0.2666  0.3365
  156MOL    C1431324   3.950   2.959   5.343  0.1575 -0.3712  0.3299
  156MOL    C1531325   4.084   2.934   5.271  0.8987 -0.4223 -0.5385
  156MOL    H1631326   3.947   2.781   5.472 -1.3331 -0.6796  2.8351
  156MOL    H1731327   4.013   2.925   5.553  0.0813  0.2562 -0.2253
  156MOL    H1831328   3.862   2.930   5.285 -0.6551  1.7301  0.4652
  156MOL    H1931329   3.953   3.067   5.359  1.0511 -0.0687 -1.7229
  156MOL    H2031330   4.170   2.933   5.338  1.0759  1.0000 -0.7274
  156MOL    H2131331   4.102   3.000   5.186  0.0855 -0.7211 -0.9387
  156MOL    O2231332   4.066   2.801   5.209 -0.1829 -0.3681 -0.4933
  156MOL    C2331333   4.192   2.748   5.159  0.3407 -0.7196 -0.6636
  156MOL    C2431334   4.157   2.619   5.068 -0.4130 -0.0889 -0.2225
  156MOL    C2531335   4.283   2.564   4.996 -0.3618 -0.0844 -0.0346
  156MOL    H2631336   4.261   2.739   5.242  0.7832  1.8777 -0.7175
  156MOL    H2731337   4.238   2.824   5.096  0.2038 -1.5807 -1.8352
  156MOL    H2831338   4.104   2.554   5.138  0.4654  0.1471  0.6777
  156MOL    H2931339   4.088   2.663   4.996 -0.1326  1.6852  0.5888
  156MOL    H3031340   4.263   2.496   4.913  3.1898  0.6816 -1.6576
  156MOL    H3131341   4.348   2.518   5.070 -0.0102 -0.2109 -0.4177
  156MOL    O3231342   4.352   2.674   4.924  0.1032  0.1209 -0.3682
  156MOL    C3331343   4.492   2.659   4.905  0.4839  0.1632 -0.4864
  156MOL    C3431344   4.568   2.702   5.030 -0.2407  0.0332 -1.1431
  156MOL    C3531345   4.727   2.710   5.019  0.2682 -0.2007 -0.0313
  156MOL    H3631346   4.526   2.725   4.825 -0.5628 -2.6000 -3.2754
  156MOL    H3731347   4.536   2.564   4.876  1.7742 -0.9309  4.6005
  156MOL    H3831348   4.533   2.805   5.038 -0.6270  0.0091 -2.3666
  156MOL    H3931349   4.535   2.635   5.110 -0.7730  0.7709 -0.7462
  156MOL    H4031350   4.777   2.743   5.110  1.9187  1.2565 -1.4419
  156MOL    H4131351   4.754   2.793   4.954 -0.5526  0.4795  0.4920
  156MOL    O4231352   4.773   2.583   4.996  0.0173  0.0687  0.6955
  156MOL    C4331353   4.774   2.502   5.111  0.2772 -0.0330  0.5277
  156MOL    C4431354   4.844   2.378   5.061  0.2094  0.3686 -0.0104
  156MOL    C4531355   4.869   2.266   5.156  0.5460  0.1503  0.2224
  156MOL    H4631356   4.675   2.475   5.148 -0.2813  1.0444 -0.1598
  156MOL    H4731357   4.824   2.546   5.198 -0.0399  1.4244 -0.0039
  156MOL    H4831358   4.781   2.338   4.982  1.6279  1.9056 -1.9720
  156MOL    H4931359   4.939   2.401   5.012  0.2213 -1.5027 -0.9412
  156MOL    H5031360   4.891   2.172   5.105 -1.5149  0.2906 -0.9750
  156MOL    H5131361   4.772   2.251   5.203  1.1048  1.0353  1.6920
  156MOL    O5231362   4.961   2.304   5.252  0.0917  0.2232 -0.2744
  156MOL    C5331363   4.968   2.210   5.355 -0.5670 -0.0995 -0.1829
  156MOL    C5431364   5.063   2.265   5.456 -0.0751  0.0817 -0.4478
  156MOL    C5531365   5.081   2.153   5.565  0.6208 -0.1433  0.7924
  156MOL    H5631366   5.015   2.118   5.320  2.7539  2.0581 -1.6999
  156MOL    H5731367   4.868   2.180   5.388 -0.8555  0.4744 -0.5288
  156MOL    H5831368   5.162   2.283   5.416  0.3235  0.5748  0.7353
  156MOL    H5931369   5.017   2.357   5.492 -0.6519  1.6921 -4.9816
  156MOL    H6031370   5.146   2.077   5.521  1.4216  1.8144 -1.5346
  156MOL    H6131371   4.992   2.112   5.612 -1.1637  0.2932 -2.1005
  156MOL    O6231372   5.164   2.199   5.670 -0.6294 -0.3188  0.0751
  156MOL    C6331373   5.087   2.258   5.785 -0.2921 -0.3455 -0.7186
  156MOL    C6431374   5.182   2.312   5.889  0.1779  0.5183  0.1120
  156MOL    C6531375   5.213   2.460   5.866  0.1806 -0.4673  0.3476
  156MOL    H6631376   5.032   2.175   5.831  0.3042  0.5218  1.6654
  156MOL    H6731377   5.017   2.332   5.748 -2.4377 -1.9893 -0.0160
  156MOL    H6831378   5.156   2.297   5.994  2.5243 -1.7955  0.4425
  156MOL    H6931379   5.270   2.250   5.870  0.6403  0.8819  1.0436
  156MOL    H7031380   5.255   2.476   5.767  0.6112  0.5581  0.6892
  156MOL    H7131381   5.283   2.497   5.941 -1.1279  1.1139  0.7923
  156MOL    O7231382   5.092   2.542   5.872  0.7454 -0.5777  0.2109
  156MOL    C7331383   5.122   2.678   5.842  0.3745 -0.5250  0.5617
  156MOL    C7431384   5.029   2.737   5.740 -0.8195 -0.1593 -0.0916
  156MOL    C7531385   4.887   2.778   5.789 -0.4436  0.3306  0.0250
  156MOL    H7631386   5.224   2.698   5.809  0.3372 -0.3941  0.5296
  156MOL    H7731387   5.115   2.735   5.934 -0.7646 -2.1572  1.5035
  156MOL    H7831388   5.078   2.825   5.698 -0.2030  0.2955  1.5476
  156MOL    H7931389   5.012   2.653   5.674 -0.9452  0.5361 -0.9549
  156MOL    H8031390   4.845   2.703   5.856  0.7992  0.5752  1.1045
  156MOL    H8131391   4.826   2.794   5.700  0.1374 -0.7083 -0.5762
  156MOL    O8231392   4.895   2.896   5.859 -0.0355 -0.0786 -0.2143
  156MOL    C8331393   4.767   2.929   5.908  0.7662  0.1274  0.7378
  156MOL    C8431394   4.777   3.055   6.001 -0.3161 -0.0236  0.3728
  156MOL    C8531395   4.817   3.175   5.918 -0.2858 -0.2676 -0.0523
  156MOL    H8631396   4.722   2.845   5.961 -4.3716  1.1943 -1.5439
  156MOL    H8731397   4.689   2.949   5.834 -0.0037  0.6880  1.6789
  156MOL    H8831398   4.680   3.074   6.047 -0.4080 -0.7058  0.4657
  156MOL    H8931399   4.846   3.041   6.085 -0.7385 -1.2462  0.5285
  156MOL    H9031400   4.899   3.148   5.852  0.6004 -0.7439  1.2297
  156MOL    H9131401   4.850   3.250   5.991 -1.2556 -0.0793  0.2036
  156MOL    O9231402   4.709   3.222   5.844 -0.3851 -0.0645 -0.1157
  156MOL    C9331403   4.745   3.318   5.746 -0.1075 -0.1797 -0.4895
  156MOL    C9431404   4.633   3.370   5.657  0.2558  0.6050  0.1146
  156MOL    C9531405   4.675   3.484   5.563 -0.2067  0.0080  0.4064
  156MOL    H9631406   4.824   3.284   5.680  1.1055  0.1186  0.7747
  156MOL    H9731407   4.783   3.403   5.803 -2.4568  1.8850 -1.9130
  156MOL    H9831408   4.578   3.291   5.605  1.3179 -0.5101  0.6640
  156MOL    H9931409   4.563   3.418   5.724 -0.5620 -1.1348  0.5196
  156MOL   H10031410   4.734   3.443   5.480 -0.6889 -0.8172  0.4766
  156MOL   H10131411   4.743   3.554   5.613  0.3939 -0.7259  0.6271
  156MOL   O10231412   4.563   3.551   5.519 -0.1868  0.0122  0.1600
  156MOL   C10331413   4.580   3.598   5.390 -0.2751  0.3860  0.1026
  156MOL   C10431414   4.441   3.638   5.335  0.3529 -0.3662 -0.6542
  156MOL   C10531415   4.344   3.518   5.314 -0.5591  0.0910  0.5201
  156MOL   H10631416   4.626   3.530   5.317  0.3322  0.9908 -0.0884
  156MOL   H10731417   4.632   3.694   5.401  1.1820 -0.1634 -1.6783
  156MOL   H10831418   4.390   3.706   5.403  0.7335 -1.1965  0.4657
  156MOL   H10931419   4.450   3.695   5.242  1.5862 -0.0191 -0.3245
  156MOL   H11031420   4.318   3.493   5.417 -1.8064  0.7449  0.3727
  156MOL   H11131421   4.393   3.438   5.258  0.4116  1.4102 -0.5527
  156MOL   O11231422   4.235   3.571   5.247 -0.2996 -0.2471 -0.1668
  156MOL   C11331423   4.118   3.491   5.267 -0.2474 -0.9427 -0.3724
  156MOL   C11431424   4.016   3.490   5.151 -0.1151  0.1212  0.1904
  156MOL   C11531425   3.887   3.415   5.196 -0.2724 -0.2537 -0.3231
  156MOL   H11631426   4.067   3.537   5.352  0.7077  1.1247 -0.8882
  156MOL   H11731427   4.146   3.395   5.310  0.9897 -0.2936  0.2689
  156MOL   H11831428   3.987   3.592   5.127  0.5169  0.9998  2.9825
  156MOL   H11931429   4.058   3.439   5.065 -1.5543  0.0775 -0.5109
  156MOL   H12031430   3.843   3.470   5.279  0.4137  0.7765 -0.6323
  156MOL   H12131431   3.905   3.311   5.221  0.3280 -0.2458 -0.7119
  156MOL   O12231432   3.807   3.415   5.080 -0.2616 -0.3950  0.4198
  156MOL   C12331433   3.673   3.455   5.093 -0.4611  0.0165  0.1795
  156MOL   C12431434   3.674   3.611   5.082 -0.5544  0.6930  0.0718
  156MOL   C12531435   3.536   3.680   5.096  0.8549 -0.0210  0.5438
  156MOL   H12631436   3.635   3.415   5.186  0.6106 -1.8020 -0.1479
  156MOL   H12731437   3.630   3.402   5.008 -2.4054 -1.5021  2.0585
  156MOL   H12831438   3.742   3.652   5.157  1.3418 -2.5159  0.2207
  156MOL   H12931439   3.721   3.639   4.988 -0.6617 -0.2833 -0.2844
  156MOL   H13031440   3.535   3.787   5.119 -0.5630  0.1429 -0.2015
  156MOL   H13131441   3.481   3.640   5.182 -2.4356 -0.1144 -1.4968
  156MOL   O13231442   3.448   3.665   4.979  0.6183 -0.3693  0.3912
  156MOL   C13331443   3.321   3.720   5.003  0.5463  0.3475  0.1125
  156MOL   C13431444   3.222   3.685   4.886  0.5921 -0.5362  0.2828
  156MOL   C13531445   3.075   3.709   4.928 -0.2855  0.2207 -0.1748
  156MOL   H13631446   3.315   3.829   5.011  1.5836  0.6130 -2.3553
  156MOL   H13731447   3.271   3.690   5.095  0.3147  0.2922 -0.0300
  156MOL   H13831448   3.243   3.752   4.802  0.4578  0.8895  1.3762
  156MOL   H13931449   3.251   3.587   4.848  0.3576 -1.0244  1.3429
  156MOL   H14031450   3.065   3.809   4.968 -0.0591  0.9703 -1.9546
  156MOL   H14131451   3.049   3.639   5.007 -2.5726  0.5825 -0.5669
  156MOL   O14231452   2.988   3.690   4.816  0.3455 -0.0858 -0.2240
  156MOL   C14331453   2.850   3.698   4.839  0.0379  0.5733 -0.3365
  156MOL   C14431454   2.770   3.679   4.709 -0.1778 -0.3634  0.4460
  156MOL   C14531455   2.665   3.567   4.721 -0.1366  0.2326 -0.1060
  156MOL   H14631456   2.826   3.798   4.875 -1.1330 -0.0866  0.7426
  156MOL   H14731457   2.827   3.628   4.920  0.8443  1.6235  0.8075
  156MOL   H14831458   2.716   3.769   4.683  0.2158 -0.7070 -1.6271
  156MOL   H14931459   2.837   3.657   4.626 -1.6314 -0.3651 -0.7372
  156MOL   H15031460   2.639   3.557   4.827  1.5025  1.0363  0.3984
  156MOL   H15131461   2.719   3.474   4.702 -0.7138 -0.1063 -0.0836
  156MOL   O15231462   2.559   3.609   4.629 -0.5642  0.2504  0.5821
  156MOL   C15331463   2.447   3.539   4.669 -0.0677 -0.1651  0.1132
  156MOL   C15431464   2.332   3.574   4.569  0.3321  0.4012 -0.4101
  156MOL   C15531465   2.276   3.718   4.591 -0.0287 -0.1935  0.5933
  156MOL   H15631466   2.419   3.551   4.774 -0.2913  0.1182  0.0205
  156MOL   H15731467   2.462   3.431   4.661  1.7246  0.1798 -1.4339
  156MOL   H15831468   2.381   3.556   4.474  0.7325  0.3381 -0.1945
  156MOL   H15931469   2.252   3.503   4.588  1.5559 -0.3198  2.3999
  156MOL   H16031470   2.363   3.778   4.618  0.2215  0.6917 -1.9844
  156MOL   H16131471   2.212   3.725   4.679  0.6529 -1.8617  1.2296
  156MOL   O16231472   2.219   3.759   4.467 -0.0362 -0.2078  0.2947
  156MOL   C16331473   2.222   3.904   4.461 -0.4120 -0.1716  1.0738
  156MOL   C16431474   2.134   3.952   4.344 -0.0856  0.1336  0.1084
  156MOL   C16531475   2.141   4.106   4.335 -0.4395  0.5229  0.0140
  156MOL   H16631476   2.326   3.933   4.449 -0.2833  0.1045  2.7234
  156MOL   H16731477   2.190   3.952   4.553 -1.7227 -1.4157  1.2886
  156MOL   H16831478   2.172   3.901   4.255 -3.1710 -0.1125 -1.1395
  156MOL   H16931479   2.034   3.913   4.361 -0.9585  1.0113 -2.5687
  156MOL   H17031480   2.101   4.142   4.240  0.3298  1.2525 -0.0447
  156MOL   H17131481   2.242   4.146   4.346  0.7726 -1.9273 -1.7361
  156MOL   O17231482   2.068   4.181   4.434  0.1883  0.6442  0.2373
  156MOL   C17331483   1.926   4.168   4.422  0.1313  0.0822  0.3251
  156MOL   C17431484   1.861   4.285   4.488  0.6599  0.2839  0.5434
  156MOL   C17531485   1.710   4.305   4.458 -0.5308 -0.4468 -0.0962
  156MOL   H17631486   1.887   4.073   4.457  0.3183 -0.1580 -0.1152
  156MOL   H17731487   1.909   4.168   4.314  0.9545  3.0425  0.1471
  156MOL   H17831488   1.882   4.269   4.594  0.6153  1.6462  0.7718
  156MOL   H17931489   1.922   4.373   4.470 -0.3058  0.7314 -0.5820
  156MOL   H18031490   1.684   4.305   4.352 -1.5313  0.7794  0.1285
  156MOL   H18131491   1.667   4.401   4.488 -0.4228 -0.5671  0.4337
  156MOL   O18231492   1.643   4.201   4.525  0.2801 -0.6165  0.0825
  156MOL   C18331493   1.502   4.204   4.500  0.5491  0.5476  0.4854
  156MOL   C18431494   1.461   4.066   4.555 -0.3294 -0.7206  0.2942
  156MOL   C18531495   1.307   4.046   4.564  0.1929 -0.4546 -0.3380
  156MOL   H18631496   1.480   4.211   4.394 -0.5693  1.2601  0.7522
  156MOL   H18731497   1.445   4.289   4.540 -0.2792  1.0776 -1.7718
  156MOL   H18831498   1.507   3.995   4.487 -0.2610 -1.3095  0.9456
  156MOL   H18931499   1.510   4.061   4.653 -1.0978  1.3345  0.8105
  156MOL   H19031500   1.243   4.084   4.484 -1.8245 -1.3541  0.8329
  156MOL   H19131501   1.276   4.108   4.648  0.9360  0.1568 -0.5048
  156MOL   O19231502   1.279   3.921   4.612  0.1200 -0.8246 -0.5572
  156MOL   C19331503   1.274   3.822   4.505  0.1098 -0.3345  0.7973
  156MOL   C19431504   1.260   3.683   4.552 -0.3964 -0.0845  0.4695
  156MOL   C19531505   1.273   3.576   4.448 -0.5855  1.0410 -0.3135
  156MOL   H19631506   1.366   3.831   4.447  0.3752 -2.6137  0.8055
  156MOL   H19731507   1.194   3.851   4.436  0.0701 -1.5125  0.3340
  156MOL   H19831508   1.340   3.686   4.626  0.8536  0.6897 -0.8760
  156MOL   H19931509   1.167   3.664   4.604  0.1578 -1.6831  0.8924
  156MOL   H20031510   1.292   3.485   4.505 -1.7442  1.0104  0.0248
  156MOL   H20131511   1.351   3.589   4.372 -0.9197 -0.0180 -0.8504
  156MOL   H20231512   1.176   3.559   4.402 -0.0010  0.8822 -1.5045
  157MOL     O131513   5.671   7.296   0.820 -0.1542  0.0025  0.1148
  157MOL     C231514   5.691   7.173   0.763  0.4240  0.5920  1.0697
  157MOL     C331515   5.579   7.142   0.666 -0.2397  0.5076  1.3257
  157MOL     C431516   5.613   7.026   0.571  0.7973 -0.0369 -0.4187
  157MOL     H531517   5.693   7.095   0.840 -2.0456 -1.1590 -0.5570
  157MOL     H631518   5.786   7.173   0.709  0.3815  3.3271  0.9642
  157MOL     H731519   5.486   7.132   0.722 -1.1592 -0.3828 -0.3229
  157MOL     H831520   5.560   7.229   0.604 -3.4671 -1.2337 -0.2463
  157MOL     H931521   5.682   6.953   0.613  0.8359 -1.8580 -3.5009
  157MOL    H1031522   5.673   7.053   0.485  0.2530  0.3534 -0.6822
  157MOL    H1131523   5.757   7.332   0.837  0.5440 -1.3300 -0.4878
  157MOL    O1231524   5.489   6.971   0.522  0.2712  0.3029  0.9349
  157MOL    C1331525   5.518   6.852   0.446  0.0174 -0.3934 -0.0514
  157MOL    C1431526   5.378   6.792   0.399 -0.6917 -0.0091  0.2290
  157MOL    C1531527   5.414   6.667   0.324  0.7502  0.4445 -0.1163
  157MOL    H1631528   5.567   6.777   0.509 -2.3823  0.2614  2.7009
  157MOL    H1731529   5.569   6.878   0.354 -2.1144  1.1434 -0.8314
  157MOL    H1831530   5.311   6.765   0.481 -0.9161 -1.4619 -0.4237
  157MOL    H1931531   5.320   6.860   0.338 -1.9764 -0.0603  1.3594
  157MOL    H2031532   5.471   6.595   0.382  2.3662  2.3318  0.6898
  157MOL    H2131533   5.474   6.699   0.238  0.1920 -2.1836 -1.5342
  157MOL    O2231534   5.289   6.599   0.284 -0.1217 -0.0171 -0.3733
  157MOL    C2331535   5.266   6.480   0.357 -0.4392 -0.0774 -0.3070
  157MOL    C2431536   5.132   6.416   0.311  0.8229 -0.3527  0.4900
  157MOL    C2531537   5.107   6.282   0.380  1.2449  0.1668  0.3719
  157MOL    H2631538   5.266   6.518   0.460 -1.6666  0.1276 -0.3716
  157MOL    H2731539   5.357   6.420   0.357 -0.4502 -0.1057  0.6790
  157MOL    H2831540   5.050   6.482   0.336 -1.0721 -2.1985 -0.6967
  157MOL    H2931541   5.126   6.406   0.203 -1.6483 -1.7766  0.7285
  157MOL    H3031542   5.124   6.298   0.486 -1.5165  1.8973  0.6080
  157MOL    H3131543   5.187   6.217   0.343  0.9136 -0.4389  0.7228
  157MOL    O3231544   4.980   6.233   0.345  0.9964  0.4462 -0.1205
  157MOL    C3331545   4.963   6.099   0.391 -0.6449 -0.4197 -0.5215
  157MOL    C3431546   4.815   6.069   0.376 -0.4223 -0.5253  0.0054
  157MOL    C3531547   4.771   6.076   0.233 -0.0585  0.1061 -0.0970
  157MOL    H3631548   4.981   6.091   0.498  0.5442 -1.7355 -0.7950
  157MOL    H3731549   5.027   6.026   0.340 -2.1281 -0.6471 -2.1025
  157MOL    H3831550   4.801   5.969   0.417  0.5182 -0.2814  0.9378
  157MOL    H3931551   4.749   6.133   0.435 -0.0441 -1.6466  1.6900
  157MOL    H4031552   4.851   6.028   0.178  0.6569  0.6564  0.4626
  157MOL    H4131553   4.755   6.177   0.195 -0.8933  0.1717  0.3987
  157MOL    O4231554   4.656   5.985   0.234 -0.6324  0.5177  0.4885
  157MOL    C4331555   4.598   5.962   0.110 -1.1378  0.1101 -0.4795
  157MOL    C4431556   4.670   5.846   0.034 -0.1705  0.0507  0.1273
  157MOL    C4531557   4.622   5.825   7.682 -0.5605 -0.5700 -0.1325
  157MOL    H4631558   4.603   6.054   0.052  2.3845  0.8233  0.8046
  157MOL    H4731559   4.497   5.925   0.123 -0.4542 -0.8325  2.3993
  157MOL    H4831560   4.778   5.856   0.038 -0.2660  0.8076  1.4498
  157MOL    H4931561   4.656   5.753   0.090 -1.7591 -0.8139 -1.6752
  157MOL    H5031562   4.515   5.841   7.693 -0.4944 -0.1972 -0.0096
  157MOL    H5131563   4.641   5.722   7.650  1.5323 -0.4998  0.8054
  157MOL    O5231564   4.688   5.920   7.598  0.1835  0.5212  0.1074
  157MOL    C5331565   4.614   5.933   7.478 -0.0888  0.7176  0.7447
  157MOL    C5431566   4.677   6.058   7.411 -0.6169  0.0478 -0.2379
  157MOL    C5531567   4.633   6.181   7.488 -0.4473 -0.2122 -0.9850
  157MOL    H5631568   4.508   5.950   7.498 -0.6074 -0.5279 -0.7937
  157MOL    H5731569   4.620   5.843   7.417  0.3434  1.5705 -0.5096
  157MOL    H5831570   4.786   6.069   7.413 -0.6496  0.3996 -0.5632
  157MOL    H5931571   4.644   6.057   7.308 -1.3867 -1.4777  0.0097
  157MOL    H6031572   4.643   6.166   7.595 -1.4985  1.9952 -0.5392
  157MOL    H6131573   4.525   6.188   7.476 -0.9307 -0.7893  2.5137
  157MOL    O6231574   4.707   6.281   7.429  0.2803  0.4119  0.1066
  157MOL    C6331575   4.669   6.416   7.444  0.4880  0.0351  0.6018
  157MOL    C6431576   4.783   6.494   7.396  0.5901  0.1358 -0.7629
  157MOL    C6531577   4.751   6.645   7.399  0.1934  0.5346 -0.1900
  157MOL    H6631578   4.646   6.457   7.543 -1.5118  2.0573 -0.6347
  157MOL    H6731579   4.584   6.433   7.378  0.4733  1.7871  1.0456
  157MOL    H6831580   4.867   6.462   7.458 -0.1018  0.9856  0.6417
  157MOL    H6931581   4.818   6.469   7.296 -1.3179 -1.8029 -0.9647
  157MOL    H7031582   4.686   6.670   7.483 -0.6995 -1.5551 -0.2442
  157MOL    H7131583   4.697   6.681   7.311  0.3104  0.6416 -0.2178
  157MOL    O7231584   4.869   6.714   7.408 -0.0267  0.5349 -0.1818
  157MOL    C7331585   4.845   6.855   7.414 -0.2486 -0.1694 -0.3523
  157MOL    C7431586   4.982   6.925   7.416 -0.4870 -0.2919 -0.0860
  157MOL    C7531587   4.971   7.077   7.394  0.4979 -0.0965 -0.3315
  157MOL    H7631588   4.782   6.889   7.496 -0.4843 -0.0728 -0.5723
  157MOL    H7731589   4.793   6.892   7.325  1.0828  1.1420 -0.6271
  157MOL    H7831590   5.029   6.905   7.513 -1.4384 -0.6310  0.3066
  157MOL    H7931591   5.040   6.877   7.337  0.1528  0.2600  0.0379
  157MOL    H8031592   5.065   7.130   7.406  0.6036 -0.1042 -1.0843
  157MOL    H8131593   4.923   7.125   7.479  1.8072  0.3848  0.1430
  157MOL    O8231594   4.909   7.102   7.273  0.0353  0.1721  0.0126
  157MOL    C8331595   4.913   7.243   7.241  0.1879 -0.0664 -0.0281
  157MOL    C8431596   4.827   7.270   7.114 -0.1371 -0.0227 -0.6525
  157MOL    C8531597   4.795   7.418   7.105  0.1846  0.4370  0.8122
  157MOL    H8631598   5.022   7.255   7.235  0.3005 -1.6433 -1.4474
  157MOL    H8731599   4.880   7.303   7.326  1.2964  2.0652 -1.0532
  157MOL    H8831600   4.899   7.247   7.036 -0.3305 -1.2126 -0.4884
  157MOL    H8931601   4.734   7.214   7.112 -0.5124  0.5015  1.0814
  157MOL    H9031602   4.885   7.479   7.096  1.0480 -0.4333  3.1210
  157MOL    H9131603   4.741   7.461   7.189 -3.7671  0.6374 -1.6926
  157MOL    O9231604   4.715   7.438   6.989 -0.7445 -0.3293 -0.3331
  157MOL    C9331605   4.704   7.573   6.944 -0.2546 -0.1085 -0.0116
  157MOL    C9431606   4.567   7.590   6.875 -0.5232 -0.3646 -0.5661
  157MOL    C9531607   4.554   7.733   6.821 -0.8689 -0.0757 -0.1213
  157MOL    H9631608   4.782   7.612   6.879  0.6026  0.7364  1.4952
  157MOL    H9731609   4.718   7.644   7.026  2.8708  2.6973 -2.8198
  157MOL    H9831610   4.551   7.517   6.796  0.7692 -0.5855 -0.6321
  157MOL    H9931611   4.486   7.572   6.946  0.5722  0.0484  0.8120
  157MOL   H10031612   4.641   7.745   6.757 -0.0637 -1.0224  0.7737
  157MOL   H10131613   4.567   0.021   6.898 -0.2062  0.0602 -0.3618
  157MOL   O10231614   4.440   7.737   6.734  0.0967  0.2599 -0.1280
  157MOL   C10331615   4.396   0.075   6.713 -0.1725 -0.6033 -0.1653
  157MOL   C10431616   4.269   0.089   6.634  0.4361  0.7374 -0.3419
  157MOL   C10531617   4.214   0.235   6.649  0.1118 -0.2025 -0.1900
  157MOL   H10631618   4.468   0.144   6.668 -2.2089  1.7913  0.1399
  157MOL   H10731619   4.382   0.132   6.805  0.2404 -1.4772  0.4405
  157MOL   H10831620   4.262   0.046   6.535 -3.2183 -0.3564  0.2966
  157MOL   H10931621   4.201   0.026   6.691  2.7379 -0.0841  1.5988
  157MOL   H11031622   4.285   0.304   6.602  0.3545  0.9885  1.8429
  157MOL   H11131623   4.204   0.265   6.753 -0.3184 -0.2811 -0.2095
  157MOL   O11231624   4.086   0.236   6.590  0.4569  0.2502  0.2724
  157MOL   C11331625   4.040   0.368   6.559 -0.0889  0.3539  0.3776
  157MOL   C11431626   3.894   0.361   6.513  0.8714 -0.2168  0.3193
  157MOL   C11531627   3.833   0.486   6.452 -0.1046  0.5164 -0.0064
  157MOL   H11631628   4.104   0.413   6.483  0.4437 -0.5912  0.2537
  157MOL   H11731629   4.045   0.427   6.650 -1.0499 -2.0388  2.0405
  157MOL   H11831630   3.874   0.282   6.441  0.8323  1.4079 -1.5065
  157MOL   H11931631   3.824   0.347   6.594 -1.4049 -1.5179 -1.8147
  157MOL   H12031632   3.887   0.548   6.380 -0.9768  0.1479 -0.9734
  157MOL   H12131633   3.826   0.555   6.536  1.2911  0.6208  0.0343
  157MOL   O12231634   3.709   0.434   6.409 -0.4482 -0.0363  0.2407
  157MOL   C12331635   3.608   0.528   6.402 -0.0644  0.1444  0.3866
  157MOL   C12431636   3.471   0.473   6.359  0.5607  0.0581 -0.8519
  157MOL   C12531637   3.354   0.567   6.388  0.0928  0.5645 -0.2581
  157MOL   H12631638   3.625   0.614   6.338 -0.3524  0.6213  0.9462
  157MOL   H12731639   3.603   0.576   6.500 -1.6608  0.8412 -0.0166
  157MOL   H12831640   3.474   0.438   6.256 -2.6039  1.1614 -1.3748
  157MOL   H12931641   3.462   0.380   6.416  0.0341  1.7044  1.8501
  157MOL   H13031642   3.259   0.519   6.362  0.9460 -0.7945 -0.9594
  157MOL   H13131643   3.357   0.654   6.324 -1.9102 -0.7722 -2.2584
  157MOL   O13231644   3.347   0.601   6.529 -0.9478  0.2079 -0.5935
  157MOL   C13331645   3.264   0.713   6.561 -0.2728 -0.9483 -0.0913
  157MOL   C13431646   3.113   0.691   6.558  0.5197 -0.1698 -0.0971
  157MOL   C13531647   3.021   0.808   6.597  0.4536 -0.7504  0.5008
  157MOL   H13631648   3.278   0.791   6.486  1.2670 -2.1350 -1.0779
  157MOL   H13731649   3.298   0.749   6.658  1.7089  1.3544 -1.5785
  157MOL   H13831650   3.092   0.664   6.454  0.3602 -1.7716  0.3423
  157MOL   H13931651   3.093   0.605   6.622 -1.1704  0.2998  0.0253
  157MOL   H14031652   3.030   0.873   6.511  0.0793 -1.2566  0.0737
  157MOL   H14131653   3.056   0.856   6.689 -0.8901 -1.1703  1.2470
  157MOL   O14231654   2.878   0.789   6.609  0.4752  0.2300  0.2812
  157MOL   C14331655   2.812   0.734   6.498 -0.4157 -0.8007  0.4798
  157MOL   C14431656   2.662   0.751   6.519 -0.0272  0.5104 -0.1265
  157MOL   C14531657   2.584   0.701   6.399  0.1505 -0.5489  0.2898
  157MOL   H14631658   2.833   0.627   6.487  1.1004 -0.5433  0.7886
  157MOL   H14731659   2.831   0.785   6.403  0.7591  0.3050  1.3031
  157MOL   H14831660   2.646   0.684   6.603  3.0845  0.9031  0.8325
  157MOL   H14931661   2.637   0.852   6.552  1.8326  1.0896 -0.4088
  157MOL   H15031662   2.589   0.593   6.385 -0.4403 -0.2058 -2.7910
  157MOL   H15131663   2.632   0.751   6.315 -0.2572  0.0106  0.3869
  157MOL   O15231664   2.451   0.748   6.410  0.0786 -0.4316  0.4788
  157MOL   C15331665   2.373   0.697   6.301 -0.0018 -0.3777  0.4157
  157MOL   C15431666   2.240   0.761   6.302 -0.9652 -0.5289 -0.2952
  157MOL   C15531667   2.140   0.684   6.213 -0.0370 -0.0355 -0.7324
  157MOL   H15631668   2.350   0.592   6.321  2.1629 -1.1227 -0.9306
  157MOL   H15731669   2.417   0.709   6.202 -1.1983 -1.8849 -0.3258
  157MOL   H15831670   2.203   0.745   6.403 -0.8644  0.7733 -0.0434
  157MOL   H15931671   2.225   0.868   6.287 -1.1624 -0.4759  0.2898
  157MOL   H16031672   2.119   0.585   6.252 -1.1164  0.1414 -0.8510
  157MOL   H16131673   2.183   0.683   6.112  0.0049  2.4011 -0.7718
  157MOL   O16231674   2.020   0.755   6.203  0.2222  0.4508  0.2748
  157MOL   C16331675   1.925   0.687   6.124 -0.1705 -0.0288 -0.1368
  157MOL   C16431676   1.788   0.770   6.125  0.2740  0.0841 -0.0851
  157MOL   C16531677   1.684   0.726   6.024  0.0333 -0.6729  0.6384
  157MOL   H16631678   1.915   0.586   6.163  0.0807 -0.7319 -1.8815
  157MOL   H16731679   1.959   0.674   6.022  0.1736  0.1557 -0.0467
  157MOL   H16831680   1.736   0.764   6.221  1.2327  0.4836  0.4611
  157MOL   H16931681   1.798   0.878   6.114 -0.1282 -0.0762 -2.0802
  157MOL   H17031682   1.626   0.641   6.060  2.3571 -3.0212 -0.9839
  157MOL   H17131683   1.739   0.684   5.940  0.1118  0.0522  0.3251
  157MOL   O17231684   1.589   0.827   6.000  0.0532 -0.1580 -0.1530
  157MOL   C17331685   1.527   0.795   5.872  1.0924  0.0714  0.3001
  157MOL   C17431686   1.412   0.893   5.821 -0.4922  0.0659  0.4874
  157MOL   C17531687   1.378   0.889   5.671 -1.0406  0.0483  0.3360
  157MOL   H17631688   1.500   0.690   5.876  1.2882  0.0194  0.2713
  157MOL   H17731689   1.603   0.797   5.793  1.0346 -3.1024  0.0856
  157MOL   H17831690   1.322   0.870   5.879  0.0261 -2.2913  0.3903
  157MOL   H17931691   1.429   0.997   5.850  2.0799 -0.0098 -0.6185
  157MOL   H18031692   1.380   0.789   5.627  0.6796  0.2308 -0.0403
  157MOL   H18131693   1.457   0.937   5.614 -1.2414 -0.8973 -0.7513
  157MOL   O18231694   1.247   0.949   5.642 -0.5892 -1.0097  0.6554
  157MOL   C18331695   1.261   1.090   5.620 -0.5393 -0.0114 -0.0494
  157MOL   C18431696   1.134   1.164   5.654  0.2099  0.0763 -0.4376
  157MOL   C18531697   1.068   1.161   5.793  0.1329 -0.1520  0.0534
  157MOL   H18631698   1.288   1.099   5.515 -0.8386  1.3223 -0.0294
  157MOL   H18731699   1.342   1.137   5.677  1.3007 -0.8257 -1.9473
  157MOL   H18831700   1.166   1.266   5.635 -3.8513  1.6279  0.6242
  157MOL   H18931701   1.055   1.145   5.581  0.9969  0.9106 -1.5345
  157MOL   H19031702   1.137   1.182   5.875  2.4226  1.0113 -2.0718
  157MOL   H19131703   1.044   1.056   5.808 -0.9204 -0.2180 -1.9997
  157MOL   O19231704   0.945   1.234   5.813 -0.6535 -0.0116  0.4624
  157MOL   C19331705   0.951   1.375   5.797  0.5910  0.3117  0.5348
  157MOL   C19431706   0.812   1.426   5.844 -0.4456 -0.5317 -0.8409
  157MOL   C19531707   0.790   1.420   5.993  0.0391 -0.8798  0.2123
  157MOL   H19631708   0.963   1.391   5.690 -1.9074  2.7604  0.5784
  157MOL   H19731709   1.031   1.418   5.857  1.1630  0.0600 -0.0335
  157MOL   H19831710   0.784   1.524   5.806  0.9162 -0.5582 -1.9385
  157MOL   H19931711   0.740   1.352   5.810  0.7238 -0.3702 -3.8100
  157MOL   H20031712   0.887   1.442   6.039  1.4240  1.0001 -3.3762
  157MOL   H20131713   0.763   1.320   6.025  1.7771 -1.0158  1.3734
  157MOL   H20231714   0.726   1.499   6.033  1.7126  1.0299 -0.7996
  158MOL     O131715   4.298   5.611   1.648 -0.1042 -0.0883 -0.2880
  158MOL     C231716   4.390   5.548   1.556 -0.6820  0.0902  0.0539
  158MOL     C331717   4.530   5.540   1.615  0.1108  0.3274  0.0900
  158MOL     C431718   4.629   5.466   1.534  0.4072 -0.0663  0.3387
  158MOL     H531719   4.398   5.592   1.457 -0.7992 -1.7952 -0.8339
  158MOL     H631720   4.358   5.450   1.520 -1.4200  0.4262 -0.2098
  158MOL     H731721   4.575   5.639   1.618  0.6126  0.0953  0.2671
  158MOL     H831722   4.519   5.510   1.720 -0.0153 -1.8768 -0.5292
  158MOL     H931723   4.611   5.359   1.529 -2.3567  0.3988 -0.5815
  158MOL    H1031724   4.729   5.469   1.577 -0.4073 -0.9535  2.4068
  158MOL    H1131725   4.342   5.689   1.678  0.4578 -0.4603 -0.1331
  158MOL    O1231726   4.638   5.529   1.404 -0.2679  0.3624  0.5341
  158MOL    C1331727   4.766   5.501   1.348 -0.1104 -0.4669  0.2407
  158MOL    C1431728   4.752   5.545   1.203  0.6753 -0.2987 -0.5192
  158MOL    C1531729   4.844   5.478   1.112  0.2741  0.0681  0.1546
  158MOL    H1631730   4.796   5.396   1.354 -0.4448 -0.4390  2.6472
  158MOL    H1731731   4.847   5.558   1.393  0.1234 -0.2651 -0.4296
  158MOL    H1831732   4.650   5.549   1.164  0.2633 -3.3880  0.0988
  158MOL    H1931733   4.780   5.650   1.209 -0.2382 -0.0168 -1.0104
  158MOL    H2031734   4.801   5.378   1.109  2.4716 -0.8981  0.0557
  158MOL    H2131735   4.945   5.480   1.154  1.0992  0.2607 -1.7757
  158MOL    O2231736   4.827   5.545   0.989 -0.3713 -0.1583  0.5394
  158MOL    C2331737   4.865   5.462   0.880 -0.4016  0.1000 -0.1750
  158MOL    C2431738   4.743   5.433   0.783 -0.3143  0.0743 -0.2564
  158MOL    C2531739   4.782   5.335   0.666 -0.2056 -0.0006 -0.5210
  158MOL    H2631740   4.914   5.369   0.908  1.9918  1.6709  1.0379
  158MOL    H2731741   4.936   5.523   0.825  0.6542 -2.7150 -2.0637
  158MOL    H2831742   4.679   5.374   0.849  0.6559 -0.9436 -0.2071
  158MOL    H2931743   4.711   5.531   0.748 -1.2889 -0.5113 -1.0596
  158MOL    H3031744   4.824   5.244   0.707 -0.3254  0.9014  1.6599
  158MOL    H3131745   4.867   5.383   0.616  0.8154 -1.0288  0.2084
  158MOL    O3231746   4.671   5.318   0.576 -0.3077  0.1361 -0.1115
  158MOL    C3331747   4.693   5.210   0.488  0.2635 -0.0136 -0.3861
  158MOL    C3431748   4.565   5.190   0.404 -0.0775 -0.8599  0.2066
  158MOL    C3531749   4.595   5.108   0.280  0.0054  0.0221 -0.6520
  158MOL    H3631750   4.735   5.121   0.534 -0.9760  0.2762  1.3858
  158MOL    H3731751   4.779   5.235   0.427 -0.7325 -0.5651 -2.0480
  158MOL    H3831752   4.477   5.145   0.448 -1.3921 -0.7773 -2.2431
  158MOL    H3931753   4.534   5.292   0.380 -2.7246 -1.3934  1.2236
  158MOL    H4031754   4.650   5.020   0.311 -1.9473 -1.6280 -1.7226
  158MOL    H4131755   4.665   5.168   0.222 -0.3732 -1.1202 -2.3308
  158MOL    O4231756   4.482   5.093   0.210 -0.6120  0.6643 -0.3390
  158MOL    C4331757   4.507   5.054   0.084 -0.9032  0.2702 -0.5882
  158MOL    C4431758   4.362   5.036   0.027 -0.0602  0.3396 -0.5473
  158MOL    C4531759   4.341   5.016   7.661 -0.2682 -1.0762  0.7213
  158MOL    H4631760   4.554   4.957   0.065 -1.7392 -0.8391  2.7291
  158MOL    H4731761   4.558   5.130   0.024  0.6279 -1.3090 -1.3551
  158MOL    H4831762   4.309   4.962   0.087 -0.7189  1.7814  0.6911
  158MOL    H4931763   4.311   5.130   0.048 -0.4004  0.0291  0.0043
  158MOL    H5031764   4.239   4.997   7.627 -0.1628  0.7743 -0.7169
  158MOL    H5131765   4.400   4.929   7.630  2.0539  0.9884 -0.8385
  158MOL    O5231766   4.390   5.127   7.587  0.4335  0.0819 -0.0613
  158MOL    C5331767   4.401   5.096   7.446  0.4691 -0.8843  0.0092
  158MOL    C5431768   4.524   5.168   7.384 -1.1175  0.3270 -1.0863
  158MOL    C5531769   4.559   5.120   7.246 -0.2264  0.0088  0.1611
  158MOL    H5631770   4.314   5.137   7.395  0.8072  0.7605  0.6923
  158MOL    H5731771   4.412   4.995   7.407  0.6068 -1.2941  1.1087
  158MOL    H5831772   4.509   5.275   7.374  0.2084  0.4483 -1.7783
  158MOL    H5931773   4.608   5.145   7.450 -2.9398 -2.1490  0.4743
  158MOL    H6031774   4.471   5.137   7.185  1.4767 -2.2264 -3.0525
  158MOL    H6131775   4.577   5.013   7.239 -3.2745 -0.5762  0.7176
  158MOL    O6231776   4.670   5.194   7.200 -0.2606  0.0729 -0.5655
  158MOL    C6331777   4.706   5.167   7.062  0.1337 -0.3811 -0.5800
  158MOL    C6431778   4.716   5.293   6.980 -0.3522  0.1880  0.2479
  158MOL    C6531779   4.830   5.382   7.031 -0.5860  0.4481 -0.1046
  158MOL    H6631780   4.642   5.094   7.012  0.2925 -1.9573  1.4341
  158MOL    H6731781   4.803   5.118   7.066 -0.3785 -1.1952  3.0105
  158MOL    H6831782   4.732   5.264   6.876  1.2384  0.5295  0.3871
  158MOL    H6931783   4.615   5.331   6.994 -0.5160 -0.0394 -0.3287
  158MOL    H7031784   4.911   5.321   7.070 -0.8814 -0.7280 -1.3122
  158MOL    H7131785   4.785   5.439   7.112 -1.7431  0.7662 -0.9550
  158MOL    O7231786   4.874   5.463   6.922  0.0575  0.4002  0.4673
  158MOL    C7331787   4.958   5.567   6.954 -0.3942 -0.1023 -0.5252
  158MOL    C7431788   4.991   5.660   6.834  0.0744 -0.4994 -0.2497
  158MOL    C7531789   5.086   5.777   6.877  0.0246  0.2210  0.2480
  158MOL    H7631790   5.044   5.508   6.988 -1.1402 -0.1734  1.2798
  158MOL    H7731791   4.912   5.621   7.037  0.7859  1.0787 -0.6122
  158MOL    H7831792   5.035   5.613   6.745 -1.4777 -1.3457 -0.5880
  158MOL    H7931793   4.900   5.702   6.791  0.6229  1.3961  0.3887
  158MOL    H8031794   5.188   5.744   6.896  0.1284  0.8128  0.7122
  158MOL    H8131795   5.056   5.823   6.971 -0.6165 -0.8052  0.5513
  158MOL    O8231796   5.076   5.878   6.775 -0.2191  0.2417 -0.3590
  158MOL    C8331797   5.177   5.974   6.793 -0.1051 -0.4747  0.1770
  158MOL    C8431798   5.144   6.094   6.709 -0.2400 -1.2691 -0.3931
  158MOL    C8531799   5.236   6.211   6.736  0.3687  0.3566  0.4436
  158MOL    H8631800   5.270   5.930   6.758  0.5090 -2.3447  3.8585
  158MOL    H8731801   5.181   6.000   6.899  0.4093 -2.0510  0.5444
  158MOL    H8831802   5.150   6.067   6.604  3.5027  0.5066 -0.7099
  158MOL    H8931803   5.039   6.121   6.727 -0.2495 -1.3888 -0.2736
  158MOL    H9031804   5.334   6.175   6.707 -0.9957 -3.2539 -0.0513
  158MOL    H9131805   5.231   6.233   6.843 -1.3381 -1.6044  0.8180
  158MOL    O9231806   5.192   6.318   6.658 -0.0390 -0.2215 -0.2056
  158MOL    C9331807   5.284   6.419   6.692 -0.4632  0.0140 -0.5077
  158MOL    C9431808   5.250   6.550   6.634  0.5111  0.2353  1.2519
  158MOL    C9531809   5.346   6.664   6.663  0.0033 -0.2042  0.3074
  158MOL    H9631810   5.379   6.404   6.641 -0.6101 -2.4612 -0.1540
  158MOL    H9731811   5.299   6.446   6.797 -0.5291  1.8387 -0.9573
  158MOL    H9831812   5.236   6.533   6.527  0.9307 -0.9250  1.3649
  158MOL    H9931813   5.151   6.572   6.673 -0.7498  1.2899 -2.2786
  158MOL   H10031814   5.371   6.669   6.769 -0.2027  0.8666  0.3133
  158MOL   H10131815   5.304   6.760   6.633  1.0185 -0.3813 -1.7811
  158MOL   O10231816   5.458   6.625   6.576  0.1738  0.3732  0.5322
  158MOL   C10331817   5.572   6.708   6.606 -0.0070  0.6036 -0.0473
  158MOL   C10431818   5.681   6.685   6.507  0.5504  0.8679 -0.5188
  158MOL   C10531819   5.807   6.764   6.517  0.3645 -0.5139  0.4878
  158MOL   H10631820   5.618   6.697   6.704 -0.1741  1.7219  0.1636
  158MOL   H10731821   5.551   6.813   6.587 -0.7822  0.5123  0.2515
  158MOL   H10831822   5.701   6.580   6.527 -1.7214  0.7432  1.3296
  158MOL   H10931823   5.631   6.688   6.410  0.2851  1.0037 -0.3801
  158MOL   H11031824   5.780   6.868   6.534 -1.4152 -1.0799  1.2153
  158MOL   H11131825   5.867   6.750   6.427 -0.3792 -1.9846  0.2093
  158MOL   O11231826   5.881   6.703   6.623 -0.1208 -0.3062  0.0196
  158MOL   C11331827   5.996   6.774   6.667  1.1912 -1.0265 -0.7605
  158MOL   C11431828   6.065   6.696   6.777  0.7172 -0.0272  0.2363
  158MOL   C11531829   5.992   6.704   6.911  0.3423  0.5215  0.4105
  158MOL   H11631830   5.955   6.861   6.719  1.6567 -2.7253  2.5271
  158MOL   H11731831   6.053   6.824   6.588  1.7063  0.1821  0.3594
  158MOL   H11831832   6.083   6.593   6.746  0.5877  0.4885 -1.5757
  158MOL   H11931833   6.166   6.735   6.792  1.1468 -0.3740 -1.6282
  158MOL   H12031834   5.888   6.678   6.890  0.5395  0.8805 -1.0562
  158MOL   H12131835   5.983   6.805   6.950 -2.2331  0.9846 -1.2114
  158MOL   O12231836   6.076   6.622   6.996  0.2059 -0.0133  0.1211
  158MOL   C12331837   6.008   6.547   7.090  0.2777 -0.7382 -0.4359
  158MOL   C12431838   6.113   6.448   7.152  0.0836  0.1245 -0.3769
  158MOL   C12531839   6.050   6.333   7.241 -0.0032 -0.2813 -0.0668
  158MOL   H12631840   5.922   6.500   7.043  0.1977  0.5307 -1.5949
  158MOL   H12731841   5.959   6.613   7.162 -4.1862 -2.4352 -1.7705
  158MOL   H12831842   6.175   6.405   7.074 -0.6981 -1.3496 -0.2115
  158MOL   H12931843   6.173   6.522   7.206  0.2509 -0.1776 -0.1469
  158MOL   H13031844   5.970   6.277   7.193 -1.3183  1.3150  0.1866
  158MOL   H13131845   6.006   6.376   7.331 -0.2414  0.7818 -0.6717
  158MOL   O13231846   6.160   6.255   7.278  0.0859  0.5148  0.0294
  158MOL   C13331847   6.148   6.166   7.392 -0.2038 -0.8429  0.7171
  158MOL   C13431848   6.287   6.113   7.439  0.7022 -0.6593  0.7699
  158MOL   C13531849   6.281   6.027   7.561  0.5069  0.1350 -0.3203
  158MOL   H13631850   6.080   6.087   7.359 -0.3347  0.2386 -1.6911
  158MOL   H13731851   6.092   6.222   7.467  0.2618 -1.3564  1.4557
  158MOL   H13831852   6.334   6.064   7.353  0.4769  0.8138 -0.2201
  158MOL   H13931853   6.347   6.203   7.443 -2.2386  1.5404 -1.8949
  158MOL   H14031854   6.198   5.956   7.556  0.7248 -0.0295 -1.7993
  158MOL   H14131855   6.255   6.082   7.651  0.8731  1.8153 -1.2141
  158MOL   O14231856   6.409   5.973   7.577 -0.2360  0.5221 -0.1305
  158MOL   C14331857   6.413   5.867   7.673 -0.1431 -0.2624  0.3694
  158MOL   C14431858   6.533   5.778   7.635 -1.1193 -0.0356  0.8056
  158MOL   C14531859   6.539   5.658   7.725  0.4332 -0.7867  0.0040
  158MOL   H14631860   6.320   5.810   7.674  0.4245 -1.2072  0.0376
  158MOL   H14731861   6.427   5.917   7.769  1.5038  3.0386 -1.5176
  158MOL   H14831862   6.532   5.753   7.529  3.1017 -0.0806  0.6587
  158MOL   H14931863   6.627   5.833   7.643 -0.1193 -1.3044 -1.5467
  158MOL   H15031864   6.480   5.580   7.676 -0.9598 -0.0177  0.4390
  158MOL   H15131865   6.498   5.677   0.036  1.0644 -0.6824  0.2432
  158MOL   O15231866   6.672   5.621   7.749  0.1137 -0.7006 -0.0098
  158MOL   C15331867   6.693   5.506   0.040  0.2303  0.1167 -0.0771
  158MOL   C15431868   6.657   5.511   0.187 -0.0329 -0.1971  0.1450
  158MOL   C15531869   6.683   5.384   0.263 -0.0117  0.5592  0.1815
  158MOL   H15631870   6.799   5.492   0.021  0.3909  1.1227  0.0540
  158MOL   H15731871   6.644   5.421   7.781  1.5418 -0.6473 -0.0878
  158MOL   H15831872   6.715   5.587   0.239 -1.6373  0.2684  1.2819
  158MOL   H15931873   6.553   5.542   0.203  0.2385  0.6734  0.2603
  158MOL   H16031874   6.788   5.357   0.247 -0.1134  0.3479 -0.1225
  158MOL   H16131875   6.624   5.305   0.217 -1.8872  1.5147  0.9013
  158MOL   O16231876   6.649   5.403   0.398  0.7123  0.1945 -0.0738
  158MOL   C16331877   6.643   5.282   0.472 -0.1623  0.7601  0.2100
  158MOL   C16431878   6.608   5.321   0.615  1.0727  0.0604 -0.0076
  158MOL   C16531879   6.453   5.367   0.623 -0.2155 -0.2668 -0.2296
  158MOL   H16631880   6.730   5.219   0.455 -0.0149  1.0755 -0.2256
  158MOL   H16731881   6.560   5.237   0.416 -0.0147 -1.5669  1.8014
  158MOL   H16831882   6.625   5.235   0.679 -0.9785  0.5346  1.1986
  158MOL   H16931883   6.674   5.398   0.655  0.7833 -0.0585  0.6922
  158MOL   H17031884   6.381   5.291   0.596  0.4136 -0.8117 -0.3842
  158MOL   H17131885   6.438   5.446   0.549 -0.6633  1.2264  1.4191
  158MOL   O17231886   6.413   5.413   0.754  0.0603 -0.4294 -0.1605
  158MOL   C17331887   6.294   5.486   0.765  0.1971 -0.5493  0.5202
  158MOL   C17431888   6.237   5.504   0.906 -0.5234 -0.1475 -0.4295
  158MOL   C17531889   6.323   5.586   0.990  0.0597  0.7269  0.5879
  158MOL   H17631890   6.221   5.436   0.701  0.5254 -0.4479  0.0719
  158MOL   H17731891   6.306   5.582   0.716 -1.0722  0.3766  1.9866
  158MOL   H17831892   6.136   5.545   0.896 -0.4888 -0.2255 -1.0824
  158MOL   H17931893   6.223   5.408   0.956 -0.9287 -0.6794 -1.5535
  158MOL   H18031894   6.318   5.688   0.952 -1.6290  0.1004 -0.9475
  158MOL   H18131895   6.429   5.562   0.991 -0.3615 -1.2526 -0.7700
  158MOL   O18231896   6.275   5.596   1.127  0.0121 -1.0656 -0.0830
  158MOL   C18331897   6.361   5.669   1.205  0.0541 -0.6594  0.0824
  158MOL   C18431898   6.308   5.702   1.347 -0.4752  0.3826  0.2759
  158MOL   C18531899   6.242   5.841   1.349  0.1647 -0.6048 -0.3584
  158MOL   H18631900   6.383   5.771   1.173 -3.4062 -0.4391 -1.8150
  158MOL   H18731901   6.459   5.623   1.217  1.7666  2.5872 -0.6085
  158MOL   H18831902   6.246   5.617   1.375 -2.4887  2.5247  2.4944
  158MOL   H18931903   6.392   5.714   1.415 -1.3464 -0.9023  1.5970
  158MOL   H19031904   6.205   5.852   1.451  2.2360 -0.3064  0.3815
  158MOL   H19131905   6.159   5.846   1.278  0.9277  0.2493 -1.1950
  158MOL   O19231906   6.339   5.942   1.318  0.7275  0.6332  0.2341
  158MOL   C19331907   6.275   6.064   1.328 -0.3807 -0.4303  0.4469
  158MOL   C19431908   6.379   6.181   1.324 -0.2225 -0.1032  0.5496
  158MOL   C19531909   6.309   6.308   1.288 -0.6821  0.7657 -0.9223
  158MOL   H19631910   6.214   6.066   1.418 -0.5080  1.2044  0.3405
  158MOL   H19731911   6.212   6.077   1.240 -2.0527 -1.8162  1.4051
  158MOL   H19831912   6.432   6.192   1.418  2.5106 -0.9598 -0.8521
  158MOL   H19931913   6.444   6.164   1.238 -2.6281 -0.1524 -1.3217
  158MOL   H20031914   6.277   6.305   1.184 -2.3080  0.9301 -0.4439
  158MOL   H20131915   6.373   6.396   1.292 -0.2628  0.4187  0.3065
  158MOL   H20231916   6.224   6.334   1.351 -0.1751  0.0167  0.0835
  159MOL     O131917   3.858   2.239   5.265  0.0967  0.0353  0.0985
  159MOL     C231918   3.863   2.093   5.254 -0.5437 -0.6707 -0.0773
  159MOL     C331919   3.891   2.043   5.399 -0.2915 -1.1921 -0.3366
  159MOL     C431920   3.904   1.888   5.419  0.4610 -0.2369 -0.3479
  159MOL     H531921   3.943   2.060   5.188  0.9736  0.4948  1.1311
  159MOL     H631922   3.767   2.052   5.221  0.5982 -1.5388 -2.4134
  159MOL     H731923   3.987   2.077   5.437 -1.2331 -0.1474  1.2002
  159MOL     H831924   3.805   2.085   5.452  1.4017  0.1747  1.4154
  159MOL     H931925   3.889   1.866   5.525  0.5171  2.8913  0.3562
  159MOL    H1031926   4.010   1.865   5.405  1.5167  3.2466  1.3777
  159MOL    H1131927   3.771   2.260   5.297 -0.3729 -0.8191 -0.5999
  159MOL    O1231928   3.835   1.815   5.330 -0.1295  0.2451 -0.1854
  159MOL    C1331929   3.842   1.680   5.357 -0.3653 -0.6218  0.3819
  159MOL    C1431930   3.789   1.599   5.237 -0.0166 -0.4595 -0.2232
  159MOL    C1531931   3.788   1.446   5.273  0.6078  0.5314  0.7262
  159MOL    H1631932   3.782   1.659   5.445 -2.9874  1.5128 -0.8396
  159MOL    H1731933   3.947   1.651   5.370 -0.0754  0.2075 -0.0547
  159MOL    H1831934   3.690   1.631   5.205 -0.0343 -1.7774 -1.5344
  159MOL    H1931935   3.864   1.623   5.161 -0.9717  2.3882 -0.3221
  159MOL    H2031936   3.725   1.417   5.356 -2.2793 -1.5119 -2.0480
  159MOL    H2131937   3.882   1.416   5.319  0.3811 -2.0437 -0.3698
  159MOL    O2231938   3.766   1.363   5.165  0.1785  0.2122  0.6748
  159MOL    C2331939   3.780   1.224   5.179  0.3549 -0.1029  0.2136
  159MOL    C2431940   3.760   1.192   5.034  0.5548  0.1060  0.7197
  159MOL    C2531941   3.782   1.047   4.998  0.3830  0.2226  0.5525
  159MOL    H2631942   3.707   1.170   5.240  0.3089 -2.3659 -1.7867
  159MOL    H2731943   3.873   1.185   5.220  0.0803 -0.5518  0.4242
  159MOL    H2831944   3.662   1.229   5.003  0.3143 -0.2394  1.0493
  159MOL    H2931945   3.827   1.254   4.975 -0.3443  0.7062  0.3189
  159MOL    H3031946   3.734   0.981   5.071  1.0755  0.2585  1.0431
  159MOL    H3131947   3.889   1.027   4.993 -0.0691 -1.8809 -1.2479
  159MOL    O3231948   3.731   1.026   4.863  1.1716 -0.4894 -0.0372
  159MOL    C3331949   3.761   0.906   4.809 -0.0070 -0.9458  0.0095
  159MOL    C3431950   3.642   0.820   4.756 -0.0469 -0.4712 -0.5439
  159MOL    C3531951   3.670   0.674   4.740  0.4256  0.2287  0.2058
  159MOL    H3631952   3.799   0.841   4.888  0.8470  1.5840  1.7356
  159MOL    H3731953   3.829   0.919   4.725 -2.1582  1.3594 -1.4548
  159MOL    H3831954   3.571   0.822   4.839  0.3577 -0.5456 -0.1951
  159MOL    H3931955   3.599   0.879   4.674  0.1028  0.2146 -0.1315
  159MOL    H4031956   3.720   0.630   4.826 -0.1170  0.9238  0.8747
  159MOL    H4131957   3.740   0.662   4.657 -0.1565  2.0101 -0.5591
  159MOL    O4231958   3.558   0.589   4.710 -0.4873  0.3077  0.0442
  159MOL    C4331959   3.504   0.611   4.584 -1.3002 -0.6413 -0.5331
  159MOL    C4431960   3.384   0.517   4.568 -0.6767  0.8205 -0.4639
  159MOL    C4531961   3.283   0.549   4.451 -0.0096 -0.1039  0.2925
  159MOL    H4631962   3.580   0.573   4.516 -0.2913  2.3191 -1.1296
  159MOL    H4731963   3.489   0.715   4.556 -1.5620 -0.9202 -1.4357
  159MOL    H4831964   3.419   0.414   4.569  0.2034  1.0796 -2.5053
  159MOL    H4931965   3.314   0.529   4.651  0.9440 -0.1198  1.0583
  159MOL    H5031966   3.307   0.643   4.402 -1.9794  0.6092  0.6536
  159MOL    H5131967   3.183   0.567   4.490 -0.8006 -2.3106 -0.6111
  159MOL    O5231968   3.298   0.451   4.352 -0.3638  0.1816 -0.0396
  159MOL    C5331969   3.203   0.462   4.251  0.3045  0.4715 -0.3742
  159MOL    C5431970   3.256   0.391   4.121  0.5950  0.1009 -0.5877
  159MOL    C5531971   3.157   0.387   4.002 -0.0005  0.3508 -0.4419
  159MOL    H5631972   3.186   0.566   4.223 -0.6426  0.6124  0.6632
  159MOL    H5731973   3.106   0.416   4.269  0.5177  0.7731  1.7890
  159MOL    H5831974   3.340   0.447   4.081  0.3355 -0.6792 -2.2541
  159MOL    H5931975   3.298   0.292   4.140 -1.8017 -0.3533  2.7839
  159MOL    H6031976   3.117   0.486   3.984  3.6010  1.4161 -3.2382
  159MOL    H6131977   3.070   0.331   4.036  0.1543  0.7811  0.6636
  159MOL    O6231978   3.210   0.338   3.871  0.0146 -0.6099 -0.2575
  159MOL    C6331979   3.111   0.313   3.772  0.1375 -0.2980  0.0733
  159MOL    C6431980   3.191   0.255   3.654 -0.2032 -0.3972  0.1841
  159MOL    C6531981   3.119   0.245   3.526 -0.1981  0.0856  0.4184
  159MOL    H6631982   3.069   0.409   3.741  2.9948  0.7838 -0.6714
  159MOL    H6731983   3.031   0.247   3.804  0.0386  0.2336  0.9612
  159MOL    H6831984   3.290   0.298   3.636 -0.5692  1.3593  2.0890
  159MOL    H6931985   3.216   0.156   3.691 -0.9130 -1.6727 -2.6372
  159MOL    H7031986   3.067   0.335   3.494 -1.3501 -0.2725  1.2404
  159MOL    H7131987   3.035   0.179   3.549  0.8491 -1.7617 -0.9033
  159MOL    O7231988   3.201   0.192   3.419  0.0453  0.1085  0.2256
  159MOL    C7331989   3.112   0.113   3.333  0.6191  0.6791  0.0085
  159MOL    C7431990   3.016   0.196   3.240 -0.1245 -0.0992  0.6782
  159MOL    C7531991   2.896   0.118   3.182 -0.3618  0.0770 -0.0709
  159MOL    H7631992   3.057   0.034   3.384 -0.2792  0.7745 -0.7921
  159MOL    H7731993   3.169   0.049   3.265  1.4000 -0.4303  1.6931
  159MOL    H7831994   2.971   0.278   3.296  2.1964  0.9709  1.0483
  159MOL    H7931995   3.077   0.243   3.163  0.4260 -2.1630 -0.1830
  159MOL    H8031996   2.926   0.034   3.119 -0.9960  0.1754 -0.5058
  159MOL    H8131997   2.838   0.189   3.124 -2.3956 -0.5078  1.2058
  159MOL    O8231998   2.817   0.078   3.281 -0.0663  0.4627  0.0952
  159MOL    C8331999   2.710   7.782   3.231 -0.2161  0.6479 -0.3993
  159MOL    C8432000   2.595   0.007   3.329 -0.2377  0.0417 -0.2080
  159MOL    C8532001   2.534   0.151   3.328  0.4653  0.1632  0.0444
  159MOL    H8632002   2.743   7.678   3.235 -0.4612  0.5724 -0.3457
  159MOL    H8732003   2.665   0.007   3.133 -0.9971  0.4708 -0.0663
  159MOL    H8832004   2.515   7.725   3.305 -0.6039  0.1475  0.6784
  159MOL    H8932005   2.632   7.774   3.429  0.3438 -1.0458 -0.6453
  159MOL    H9032006   2.488   0.171   3.231  0.3790 -0.7147 -0.0958
  159MOL    H9132007   2.597   0.237   3.351 -1.4933  1.3902  0.9534
  159MOL    O9232008   2.430   0.148   3.426 -0.1053  0.5303 -0.1787
  159MOL    C9332009   2.366   0.275   3.428  0.2117  0.4341  0.5286
  159MOL    C9432010   2.245   0.263   3.522 -0.5745 -0.0699  0.5025
  159MOL    C9532011   2.296   0.235   3.665  0.5641  0.0648 -1.0737
  159MOL    H9632012   2.332   0.299   3.328  1.1627  1.9905  0.5512
  159MOL    H9732013   2.431   0.358   3.457 -1.2957  1.4623  1.0486
  159MOL    H9832014   2.191   0.358   3.524  2.1629  1.5299  1.3992
  159MOL    H9932015   2.177   0.184   3.489 -1.3312  0.7669  0.0336
  159MOL   H10032016   2.372   0.307   3.695  2.2942 -1.5927 -1.3869
  159MOL   H10132017   2.332   0.133   3.676 -0.7533 -0.5204 -1.9531
  159MOL   O10232018   2.182   0.235   3.752 -0.2337 -0.2834  1.0120
  159MOL   C10332019   2.217   0.223   3.885 -0.9612  0.4186 -0.3263
  159MOL   C10432020   2.097   0.242   3.966  0.5177 -0.0728 -0.8575
  159MOL   C10532021   1.989   0.130   3.955  0.0407 -0.0275 -0.4701
  159MOL   H10632022   2.285   0.303   3.916 -3.1056  1.6816  1.2743
  159MOL   H10732023   2.266   0.128   3.904  1.0844  1.1126 -1.9548
  159MOL   H10832024   2.143   0.266   4.063 -0.8408  0.6693 -0.3758
  159MOL   H10932025   2.051   0.339   3.947  3.9351  2.2598  1.8528
  159MOL   H11032026   2.030   0.036   3.992  1.8041  0.6532 -0.6433
  159MOL   H11132027   1.972   0.108   3.849 -1.6002  0.3592 -0.3127
  159MOL   O11232028   1.859   0.153   4.007 -0.4507 -0.3452  0.3757
  159MOL   C11332029   1.841   0.147   4.141 -0.0524 -0.5741 -0.0550
  159MOL   C11432030   1.704   0.198   4.166  0.3880 -0.0433  0.3961
  159MOL   C11532031   1.631   0.118   4.272 -0.3713  0.0588 -0.2820
  159MOL   H11632032   1.901   0.219   4.196 -1.1977  0.6650 -0.4214
  159MOL   H11732033   1.857   0.046   4.181 -0.1031  0.3019  2.2557
  159MOL   H11832034   1.693   0.304   4.186  2.4688  0.3144 -0.2238
  159MOL   H11932035   1.645   0.175   4.077 -2.4450 -0.4199  2.2834
  159MOL   H12032036   1.645   0.015   4.241 -0.4373  0.6016 -2.1962
  159MOL   H12132037   1.524   0.140   4.275 -0.0320  2.1451 -1.7810
  159MOL   O12232038   1.694   0.127   4.395  0.0233  0.0445  0.4201
  159MOL   C12332039   1.643   0.216   4.490  0.2387  0.4175 -0.6309
  159MOL   C12432040   1.680   0.171   4.634  1.0312  0.4549 -0.2516
  159MOL   C12532041   1.824   0.173   4.670  0.6155  0.5436 -0.0486
  159MOL   H12632042   1.535   0.222   4.476  0.2135  1.7020  0.0464
  159MOL   H12732043   1.684   0.315   4.472 -0.7467  0.8946 -0.3069
  159MOL   H12832044   1.644   0.239   4.711 -0.9027 -0.5838 -0.2056
  159MOL   H12932045   1.633   0.074   4.651  0.2190  0.8650 -0.1262
  159MOL   H13032046   1.865   0.274   4.667 -3.0058  2.0921  0.4722
  159MOL   H13132047   1.881   0.117   4.595  1.5412 -0.1955  1.1823
  159MOL   O13232048   1.845   0.119   4.798  0.1951  0.2105  0.4357
  159MOL   C13332049   1.984   0.084   4.812 -0.3484  0.1290  0.1880
  159MOL   C13432050   2.006   0.047   4.955 -0.0873  0.0458 -0.6070
  159MOL   C13532051   2.152   0.043   5.012 -0.2349 -0.1370 -0.2198
  159MOL   H13632052   2.046   0.168   4.781 -1.3994  0.5828 -0.7266
  159MOL   H13732053   1.998   0.000   4.744 -0.3939 -0.7350  1.2348
  159MOL   H13832054   1.943   0.111   5.018  2.4584  1.3199  0.7419
  159MOL   H13932055   1.950   7.743   4.965 -0.6730  0.5339  0.7900
  159MOL   H14032056   2.147   0.022   5.119 -1.8605 -0.4763 -0.3511
  159MOL   H14132057   2.204   0.139   5.023  0.1963 -0.5104  1.1633
  159MOL   O14232058   2.229   7.734   4.940  0.3466 -0.6529  0.1466
  159MOL   C14332059   2.194   7.597   4.967 -0.1143  0.5276 -0.4444
  159MOL   C14432060   2.284   7.508   4.879  0.1827 -0.0160  0.5275
  159MOL   C14532061   2.251   7.366   4.884  0.1555 -0.1009 -0.3039
  159MOL   H14632062   2.093   7.583   4.928 -1.5029  1.4584  2.6836
  159MOL   H14732063   2.191   7.558   5.068  1.5420  1.1226 -0.1429
  159MOL   H14832064   2.296   7.537   4.775  0.1096 -0.9979  0.2395
  159MOL   H14932065   2.387   7.510   4.915  0.9525 -0.0744 -1.6202
  159MOL   H15032066   2.155   7.326   4.853  1.1125 -2.1685 -0.7312
  159MOL   H15132067   2.272   7.334   4.986  1.5472  1.6948 -0.0079
  159MOL   O15232068   2.347   7.298   4.803  0.0125 -0.6654 -0.0964
  159MOL   C15332069   2.342   7.154   4.799 -0.8309 -0.1181 -0.3903
  159MOL   C15432070   2.232   7.095   4.706  0.2592 -0.3728 -0.0413
  159MOL   C15532071   2.232   6.944   4.697  0.0217  0.0618 -0.1359
  159MOL   H15632072   2.331   7.127   4.904 -0.4727  1.6483  0.1296
  159MOL   H15732073   2.435   7.109   4.764 -0.1695 -0.1390  1.3306
  159MOL   H15832074   2.134   7.118   4.746  0.7870 -0.0952  1.1100
  159MOL   H15932075   2.239   7.138   4.606  1.8402  0.7967  0.5674
  159MOL   H16032076   2.138   6.924   4.646 -0.6341 -0.1153  1.1284
  159MOL   H16132077   2.238   6.889   4.791  1.9451 -0.6417 -0.6456
  159MOL   O16232078   2.356   6.915   4.624  0.1362 -0.0416 -0.3247
  159MOL   C16332079   2.364   6.774   4.601 -0.0484 -0.2639  0.0351
  159MOL   C16432080   2.448   6.703   4.703  0.0470 -0.3601 -0.2900
  159MOL   C16532081   2.488   6.552   4.691  0.0338 -0.0515  0.1428
  159MOL   H16632082   2.397   6.747   4.500  1.1822  2.1319 -0.2375
  159MOL   H16732083   2.267   6.724   4.610 -1.1023  1.2508 -2.3454
  159MOL   H16832084   2.535   6.769   4.698  1.2426 -1.6315  2.5267
  159MOL   H16932085   2.404   6.720   4.801  2.1061  0.7968  0.4686
  159MOL   H17032086   2.534   6.519   4.784  0.4853  1.1888  0.3679
  159MOL   H17132087   2.564   6.542   4.613  0.1927  2.5175 -0.0755
  159MOL   O17232088   2.361   6.490   4.661 -0.0883  0.1729  0.5114
  159MOL   C17332089   2.373   6.345   4.643  0.2644  0.4730  0.6149
  159MOL   C17432090   2.237   6.275   4.630 -0.1586 -0.4278 -0.2492
  159MOL   C17532091   2.254   6.126   4.647  1.6443 -0.4605 -0.3706
  159MOL   H17632092   2.430   6.302   4.725 -0.7762 -1.4444  0.3765
  159MOL   H17732093   2.427   6.327   4.549 -0.2953  1.5786  0.0732
  159MOL   H17832094   2.157   6.312   4.694 -1.4852 -0.7371 -1.6908
  159MOL   H17932095   2.191   6.274   4.531  0.8820 -1.2090 -0.7368
  159MOL   H18032096   2.317   6.095   4.730  2.6250 -2.7390 -1.8813
  159MOL   H18132097   2.304   6.082   4.560  1.8767  1.8187 -1.4272
  159MOL   O18232098   2.124   6.063   4.651 -0.9909  0.0005  0.7798
  159MOL   C18332099   2.119   5.932   4.680  0.1393  0.3098  0.9754
  159MOL   C18432100   1.976   5.877   4.673 -0.1513  0.3175 -0.3048
  159MOL   C18532101   1.957   5.724   4.713  0.7388  0.6537 -0.3155
  159MOL   H18632102   2.155   5.908   4.780  0.3098  2.6579  1.4981
  159MOL   H18732103   2.168   5.881   4.597  0.8219 -2.2456  2.8996
  159MOL   H18832104   1.904   5.924   4.739 -1.3524 -1.6702 -0.1632
  159MOL   H18932105   1.924   5.892   4.578  0.6640  0.0212 -0.7965
  159MOL   H19032106   1.976   5.703   4.818 -1.5836  0.1048  0.0216
  159MOL   H19132107   2.036   5.668   4.662  0.9797  0.8577 -0.1665
  159MOL   O19232108   1.833   5.683   4.666  0.0099  0.5458  0.4355
  159MOL   C19332109   1.784   5.553   4.707  0.0898 -0.8777 -0.0825
  159MOL   C19432110   1.644   5.524   4.657  0.1667  0.2839 -0.0856
  159MOL   C19532111   1.571   5.398   4.713  0.7170 -0.1388 -0.0282
  159MOL   H19632112   1.786   5.553   4.816  1.0306  0.2297 -0.0835
  159MOL   H19732113   1.848   5.475   4.665  0.2412  0.2105 -1.9024
  159MOL   H19832114   1.594   5.619   4.676  0.9597  0.9389 -1.1856
  159MOL   H19932115   1.642   5.522   4.548  1.0552  0.8316 -0.1236
  159MOL   H20032116   1.609   5.300   4.686  1.9504 -0.1442  1.6191
  159MOL   H20132117   1.465   5.401   4.692  0.2108 -1.3263  2.1891
  159MOL   H20232118   1.565   5.395   4.822  3.4881 -0.3521  0.1751
  160MOL     O132119   7.367   0.995   4.952  0.1574 -0.1747 -0.3292
  160MOL     C232120   7.270   1.100   4.953  0.2451  0.6980  0.0217
  160MOL     C332121   7.131   1.047   4.917 -0.0759 -0.2038 -0.2697
  160MOL     C432122   7.031   1.165   4.907 -1.2941 -0.0153  1.1425
  160MOL     H532123   7.313   1.173   4.885 -1.6745  0.9982 -0.8933
  160MOL     H632124   7.269   1.149   5.051 -0.9764 -0.8439  0.7987
  160MOL     H732125   7.142   0.996   4.821 -2.6430  1.6551 -1.5913
  160MOL     H832126   7.081   0.979   4.986  2.0687  0.4996  2.0338
  160MOL     H932127   7.012   1.215   5.002 -0.6176  0.8007  0.8491
  160MOL    H1032128   6.937   1.125   4.869 -0.6202 -1.6671  1.1539
  160MOL    H1132129   7.356   0.946   4.871 -2.1158 -0.6315  0.2140
  160MOL    O1232130   7.088   1.252   4.807  0.1722 -0.3278 -0.4869
  160MOL    C1332131   7.025   1.379   4.816  0.3549  0.0833  0.0817
  160MOL    C1432132   7.103   1.485   4.729  0.0387  0.4318  0.8275
  160MOL    C1532133   7.243   1.505   4.773 -0.1235 -0.2313 -0.1723
  160MOL    H1632134   7.042   1.409   4.919 -0.2207 -2.7053  1.0045
  160MOL    H1732135   6.922   1.366   4.783  0.9311 -1.2190 -1.2641
  160MOL    H1832136   7.102   1.453   4.625 -0.4446  1.1399  0.6131
  160MOL    H1932137   7.057   1.583   4.717  1.0245  0.5617 -2.2992
  160MOL    H2032138   7.286   1.405   4.770  1.9121  0.5938  0.1901
  160MOL    H2132139   7.252   1.542   4.875  2.0971 -1.3543  0.0765
  160MOL    O2232140   7.301   1.588   4.675 -0.0118  0.0047  0.7535
  160MOL    C2332141   7.444   1.596   4.685 -0.0604 -0.0412  0.2233
  160MOL    C2432142   7.476   1.674   4.550  0.0972 -0.2389  0.9859
  160MOL    C2532143   7.545   1.586   4.441  0.2876 -0.1274 -0.9113
  160MOL    H2632144   7.494   1.499   4.678 -0.3272 -0.0817 -1.3569
  160MOL    H2732145   7.478   1.659   4.766 -1.5903  2.2259 -0.8510
  160MOL    H2832146   7.386   1.720   4.509  2.3847  2.9121 -0.6844
  160MOL    H2932147   7.532   1.763   4.577 -0.2852  0.5233 -0.6579
  160MOL    H3032148   7.482   1.500   4.421  0.2483 -0.6836  1.4139
  160MOL    H3132149   7.642   1.547   4.473  0.3804  1.4132  0.7826
  160MOL    O3232150   7.539   1.668   4.325 -0.7496 -0.0792  0.2655
  160MOL    C3332151   7.602   1.606   4.212 -0.1142  0.4714  0.4590
  160MOL    C3432152   7.594   1.705   4.100 -0.1711 -0.6208 -0.2170
  160MOL    C3532153   7.696   1.685   3.984 -0.1957 -0.1682 -0.4476
  160MOL    H3632154   7.557   1.512   4.180 -1.4003  1.4652 -0.7501
  160MOL    H3732155   7.707   1.584   4.230 -0.2202 -1.5738 -1.2500
  160MOL    H3832156   7.488   1.702   4.072  0.0835  0.6143 -1.3478
  160MOL    H3932157   7.607   1.807   4.137  2.2538 -1.0576  0.1867
  160MOL    H4032158   7.696   1.584   3.944 -0.2376 -0.3499  0.0171
  160MOL    H4132159   0.001   1.695   4.038  0.4858 -1.9106 -1.2674
  160MOL    O4232160   7.698   1.789   3.885  0.1432 -0.2589 -0.6170
  160MOL    C4332161   0.035   1.829   3.835  0.0890  0.3219 -0.1037
  160MOL    C4432162   0.010   1.904   3.702 -0.5103  0.5923 -0.4145
  160MOL    C4532163   7.753   2.042   3.715  0.3727  0.5364 -0.1353
  160MOL    H4632164   0.092   1.738   3.816 -1.2856 -0.2082 -1.8161
  160MOL    H4732165   0.098   1.883   3.905 -0.4991  1.8068 -0.7092
  160MOL    H4832166   0.109   1.917   3.659 -1.0977  1.6282 -1.4530
  160MOL    H4932167   7.740   1.839   3.637  1.0751 -3.1713  1.7341
  160MOL    H5032168   0.020   2.098   3.790  1.7772 -0.5960 -0.3058
  160MOL    H5132169   7.649   2.042   3.749  0.7114  0.8313  0.9399
  160MOL    O5232170   7.735   2.111   3.592 -0.5452  0.3650 -0.0591
  160MOL    C5332171   7.737   2.251   3.616 -1.0320  0.3686  1.2347
  160MOL    C5432172   7.739   2.330   3.483 -0.0202 -1.0266  0.3578
  160MOL    C5532173   7.741   2.487   3.490 -0.3662  0.0020  0.2821
  160MOL    H5632174   0.037   2.286   3.669 -0.8416  0.1404  1.0728
  160MOL    H5732175   7.656   2.276   3.685 -2.5968 -0.6997 -0.1685
  160MOL    H5832176   0.042   2.300   3.432 -0.4949  0.5100 -1.4439
  160MOL    H5932177   7.653   2.301   3.423 -0.1091  1.3940 -0.7310
  160MOL    H6032178   0.020   2.510   3.572  1.7632  3.2085 -2.2379
  160MOL    H6132179   7.650   2.544   3.509 -0.1206  0.8227 -0.9375
  160MOL    O6232180   0.019   2.535   3.373  0.2498  0.3238  0.2579
  160MOL    C6332181   0.037   2.674   3.375 -0.0058 -0.2465 -0.7254
  160MOL    C6432182   0.151   2.721   3.284  0.4136 -0.1722  0.7138
  160MOL    C6532183   0.174   2.872   3.280 -0.1308 -0.0242  0.1552
  160MOL    H6632184   0.063   2.700   3.477 -2.1031 -0.4359 -0.1143
  160MOL    H6732185   7.731   2.724   3.356  0.3745  0.3640 -1.0018
  160MOL    H6832186   0.244   2.680   3.322  1.2240  0.3667 -0.6597
  160MOL    H6932187   0.140   2.675   3.186 -0.7145 -0.2539  0.8690
  160MOL    H7032188   0.075   2.918   3.272 -0.4186 -0.2714  2.0882
  160MOL    H7132189   0.243   2.897   3.199 -0.2475 -2.4952 -0.7348
  160MOL    O7232190   0.243   2.907   3.399  0.6655  0.0487 -0.5580
  160MOL    C7332191   0.290   3.048   3.402  0.0068 -0.0304  0.3984
  160MOL    C7432192   0.371   3.078   3.526 -0.8029  0.1854 -0.6492
  160MOL    C7532193   0.368   2.974   3.642  0.1695  0.1774 -0.2329
  160MOL    H7632194   0.203   3.111   3.388  1.4534  2.4150  2.0978
  160MOL    H7732195   0.352   3.077   3.316  0.2985  0.2116  0.6908
  160MOL    H7832196   0.473   3.089   3.490  0.8845 -3.1067  2.7060
  160MOL    H7932197   0.336   3.173   3.565  0.4861  0.0622  0.8677
  160MOL    H8032198   0.408   2.879   3.607  0.0934 -0.3795  1.1636
  160MOL    H8132199   0.265   2.945   3.666  0.9149 -0.2870  2.5254
  160MOL    O8232200   0.436   3.023   3.746 -0.0053  0.6094 -0.4337
  160MOL    C8332201   0.417   2.940   3.859  0.6905  0.2392 -0.4178
  160MOL    C8432202   0.532   2.939   3.961  0.6961  0.4847 -0.2349
  160MOL    C8532203   0.588   3.071   4.013 -0.0299  0.1493  0.6226
  160MOL    H8632204   0.393   2.839   3.824  0.3592  0.7093 -1.5706
  160MOL    H8732205   0.326   2.975   3.909  1.4401  0.4724  0.8060
  160MOL    H8832206   0.511   2.882   4.052  0.7201  0.6128 -0.1491
  160MOL    H8932207   0.610   2.879   3.916  1.5084 -0.0830  1.8817
  160MOL    H9032208   0.513   3.137   4.057  1.0074  2.0208 -0.3714
  160MOL    H9132209   0.618   3.132   3.928 -1.3234 -0.6616 -0.4477
  160MOL    O9232210   0.693   3.054   4.104  0.2006 -0.5729 -0.1554
  160MOL    C9332211   0.819   3.064   4.046 -0.1681 -0.1633  0.3636
  160MOL    C9432212   0.939   3.030   4.126 -0.0464 -0.0498 -0.2975
  160MOL    C9532213   1.075   3.050   4.059 -0.0481 -1.1466 -0.1615
  160MOL    H9632214   0.825   3.166   4.008  3.8126 -0.0503  1.0951
  160MOL    H9732215   0.815   2.993   3.963  2.7506 -0.4910  0.4757
  160MOL    H9832216   0.930   3.091   4.216  1.9713 -2.5492  1.6555
  160MOL    H9932217   0.923   2.927   4.158  0.7283 -0.0445  0.1201
  160MOL   H10032218   1.151   3.041   4.137  2.0056 -2.5398 -2.2718
  160MOL   H10132219   1.083   3.149   4.016 -1.3505 -0.5626  0.8981
  160MOL   O10232220   1.098   2.947   3.966 -0.5842  0.3723 -0.3275
  160MOL   C10332221   1.224   2.964   3.909  0.2090  0.1662  0.2591
  160MOL   C10432222   1.245   2.882   3.784 -0.7350 -0.1993 -0.0437
  160MOL   C10532223   1.183   2.937   3.658 -0.0691 -0.5816  0.4210
  160MOL   H10632224   1.295   2.931   3.985 -1.5942  0.4633  2.1148
  160MOL   H10732225   1.233   3.069   3.882 -0.1258 -0.2100 -1.3505
  160MOL   H10832226   1.353   2.872   3.770 -0.9599 -1.7613 -0.7621
  160MOL   H10932227   1.205   2.787   3.819  0.4587 -0.4770  0.6004
  160MOL   H11032228   1.076   2.955   3.671 -0.7497 -1.1876 -3.7679
  160MOL   H11132229   1.201   2.863   3.580  0.4394  1.5435 -1.4924
  160MOL   O11232230   1.264   3.042   3.629  0.1213 -0.8196 -0.2690
  160MOL   C11332231   1.196   3.146   3.551  0.1741  0.1167 -0.1132
  160MOL   C11432232   1.279   3.259   3.500  0.0151  0.1348  0.1284
  160MOL   C11532233   1.175   3.374   3.468 -0.0517 -0.5716  0.7379
  160MOL   H11632234   1.124   3.189   3.621  0.3651  1.0219 -0.4659
  160MOL   H11732235   1.147   3.091   3.471 -2.0495 -0.2855  1.4689
  160MOL   H11832236   1.351   3.295   3.574 -1.2691  0.2722  1.3376
  160MOL   H11932237   1.341   3.238   3.413 -1.1414  0.9030 -0.9057
  160MOL   H12032238   1.100   3.388   3.546 -0.2557  1.2035  0.2408
  160MOL   H12132239   1.111   3.350   3.384  0.0049  0.0119  0.5272
  160MOL   O12232240   1.253   3.492   3.440  0.5172  0.4721 -0.1309
  160MOL   C12332241   1.194   3.601   3.375  0.3074  0.0471 -0.5624
  160MOL   C12432242   1.284   3.721   3.385  0.4090 -0.3191  0.0619
  160MOL   C12532243   1.223   3.843   3.312  0.2658  0.6443 -1.0525
  160MOL   H12632244   1.100   3.620   3.426  0.8939 -2.1622  1.4338
  160MOL   H12732245   1.185   3.573   3.270  0.4729 -1.4589 -0.1954
  160MOL   H12832246   1.283   3.763   3.486  0.0517 -0.6333  0.1892
  160MOL   H12932247   1.381   3.714   3.337  0.0960  0.3593 -0.6905
  160MOL   H13032248   1.124   3.847   3.356  0.6577 -0.5975 -0.0070
  160MOL   H13132249   1.214   3.820   3.205 -1.2037 -2.1597 -0.3878
  160MOL   O13232250   1.290   3.967   3.335 -0.2770  0.3904 -0.3006
  160MOL   C13332251   1.220   4.078   3.290  0.2821 -0.2553  0.0394
  160MOL   C13432252   1.293   4.206   3.331 -0.3542 -0.0382  0.2857
  160MOL   C13532253   1.203   4.328   3.343  0.6228 -0.4462 -0.8011
  160MOL   H13632254   1.116   4.087   3.322  0.3344  0.4196  0.0331
  160MOL   H13732255   1.216   4.068   3.181 -1.4213  0.0871  0.0580
  160MOL   H13832256   1.339   4.179   3.426  0.3946  0.5603  0.0937
  160MOL   H13932257   1.373   4.231   3.262 -0.1277  0.3280  0.6812
  160MOL   H14032258   1.146   4.327   3.250  2.5582 -1.5515 -2.0352
  160MOL   H14132259   1.254   4.425   3.341  0.9805 -0.6369 -1.1922
  160MOL   O14232260   1.109   4.319   3.448 -0.3301  0.0318 -0.0156
  160MOL   C14332261   0.972   4.340   3.410 -0.3436  0.1232 -0.1304
  160MOL   C14432262   0.886   4.329   3.537 -0.2948  0.4141 -0.5954
  160MOL   C14532263   0.749   4.390   3.508  0.1925 -0.6139  0.4081
  160MOL   H14632264   0.941   4.271   3.332  0.2007  0.3540 -0.5541
  160MOL   H14732265   0.970   4.441   3.369  0.0609  0.3474  0.4051
  160MOL   H14832266   0.878   4.227   3.577 -0.3210  1.3966  2.0271
  160MOL   H14932267   0.935   4.380   3.620 -0.0923  0.0807 -0.5092
  160MOL   H15032268   0.693   4.405   3.600  1.6345  2.1822  0.8712
  160MOL   H15132269   0.691   4.324   3.444 -2.1447  0.3545  1.4599
  160MOL   O15232270   0.771   4.521   3.453 -0.0122 -0.3648 -0.1235
  160MOL   C15332271   0.651   4.582   3.406 -0.3082  0.0895  0.3655
  160MOL   C15432272   0.644   4.596   3.249  0.0791 -0.1635 -0.3158
  160MOL   C15532273   0.610   4.462   3.191 -0.1030  0.0315 -0.8084
  160MOL   H15632274   0.648   4.685   3.441  0.6918  0.6044 -1.0271
  160MOL   H15732275   0.557   4.544   3.446 -1.1590  1.7390 -0.0596
  160MOL   H15832276   0.569   4.668   3.215 -1.3667 -0.6775  1.6806
  160MOL   H15932277   0.742   4.627   3.212 -0.0333 -1.3390 -1.6359
  160MOL   H16032278   0.546   4.398   3.251  1.4471 -1.3330 -0.5688
  160MOL   H16132279   0.709   4.415   3.189 -0.7532 -1.4069  0.0288
  160MOL   O16232280   0.559   4.478   3.055  0.1466  0.3848  0.2783
  160MOL   C16332281   0.642   4.525   2.949  0.2500 -0.0783  0.2035
  160MOL   C16432282   0.555   4.554   2.828  0.3322 -0.8026 -0.2292
  160MOL   C16532283   0.648   4.603   2.722  0.4502  0.0697  0.6057
  160MOL   H16632284   0.723   4.452   2.940 -0.3004 -0.5641 -0.9246
  160MOL   H16732285   0.699   4.614   2.976 -0.0657 -0.7971  3.4765
  160MOL   H16832286   0.519   4.457   2.794  3.2481 -0.2563 -5.2670
  160MOL   H16932287   0.477   4.623   2.861  2.0728  0.6688  0.9308
  160MOL   H17032288   0.582   4.613   2.636  1.6482  0.7441 -0.2386
  160MOL   H17132289   0.732   4.538   2.699  1.4545  1.8099 -0.7776
  160MOL   O17232290   0.694   4.736   2.771  0.3118 -0.1331  0.4111
  160MOL   C17332291   0.747   4.809   2.662  0.8731  0.8140  0.1329
  160MOL   C17432292   0.801   4.944   2.713  0.1612  0.0040  0.2462
  160MOL   C17532293   0.702   5.032   2.784 -0.3350 -0.2553  0.6175
  160MOL   H17632294   0.670   4.831   2.588 -0.5925 -1.8765  0.8123
  160MOL   H17732295   0.830   4.755   2.616  2.5371  1.9832  1.7138
  160MOL   H17832296   0.883   4.937   2.785 -0.8599 -0.5313  1.3704
  160MOL   H17932297   0.829   5.003   2.626 -0.7832  0.3006  0.1316
  160MOL   H18032298   0.652   4.998   2.875  0.1104  1.4371  1.5235
  160MOL   H18132299   0.614   5.044   2.721  0.3303 -5.2276 -1.4528
  160MOL   O18232300   0.762   5.160   2.803  0.2170 -0.5117  0.4166
  160MOL   C18332301   0.667   5.259   2.837 -0.2023 -0.4326 -0.2792
  160MOL   C18432302   0.723   5.388   2.896  0.2598  0.2472 -0.0534
  160MOL   C18532303   0.771   5.363   3.034  0.0433 -0.1604  0.5696
  160MOL   H18632304   0.593   5.219   2.907 -1.7952 -0.3709 -1.9189
  160MOL   H18732305   0.607   5.293   2.753  1.1111  1.0460 -0.6499
  160MOL   H18832306   0.805   5.420   2.832  0.0846 -1.2880 -1.0725
  160MOL   H18932307   0.648   5.467   2.899  1.3621  1.3033  0.0819
  160MOL   H19032308   0.797   5.456   3.083 -0.8565  0.6558 -0.4882
  160MOL   H19132309   0.854   5.291   3.041 -0.9871 -1.3321  0.9265
  160MOL   O19232310   0.656   5.318   3.110  0.8341 -0.0015  0.7653
  160MOL   C19332311   0.691   5.275   3.239 -0.8186  0.5145  0.4613
  160MOL   C19432312   0.766   5.138   3.242  0.3043  0.1308  0.0328
  160MOL   C19532313   0.683   5.018   3.191  0.0357  0.1694 -0.0062
  160MOL   H19632314   0.598   5.265   3.295  0.2632  0.6144  2.3035
  160MOL   H19732315   0.750   5.345   3.297  0.9418  1.0606 -1.9258
  160MOL   H19832316   0.859   5.142   3.185  0.9297  0.7114  1.0811
  160MOL   H19932317   0.789   5.112   3.345 -1.0896  0.4550  0.4349
  160MOL   H20032318   0.620   4.972   3.267  1.2958  0.5288  1.2778
  160MOL   H20132319   0.749   4.933   3.168  0.0333  0.1987 -0.1192
  160MOL   H20232320   0.632   5.049   3.100  0.0325  1.2395  0.3595
  161MOL     O132321   6.900   0.229   4.287 -0.1236 -0.1756  0.6436
  161MOL     C232322   6.770   0.208   4.231 -0.7612 -0.0858  0.1578
  161MOL     C332323   6.665   0.263   4.332  0.5571 -0.5510  1.1234
  161MOL     C432324   6.521   0.253   4.288  0.5907  0.1659 -0.1057
  161MOL     H532325   6.750   0.110   4.187  2.3306 -0.0845 -1.4061
  161MOL     H632326   6.762   0.274   4.145  2.4036 -1.7461 -1.5007
  161MOL     H732327   6.674   0.228   4.434  1.0998 -0.0806  1.2405
  161MOL     H832328   6.682   0.370   4.342 -0.3085 -0.2662 -0.2616
  161MOL     H932329   6.457   0.285   4.370 -0.4913 -2.2804  0.0188
  161MOL    H1032330   6.497   0.149   4.269 -1.5307  0.3590  1.3864
  161MOL    H1132331   6.972   0.235   4.226  0.3684 -1.2196  1.1014
  161MOL    O1232332   6.489   0.323   4.173 -0.2665  0.8696 -0.1176
  161MOL    C1332333   6.356   0.299   4.126  0.2741 -0.6425  0.6966
  161MOL    C1432334   6.340   0.320   3.978  0.2209  0.1413  0.0579
  161MOL    C1532335   6.206   0.264   3.928 -0.2433 -0.4726 -0.0489
  161MOL    H1632336   6.287   0.359   4.185  1.2186 -0.0598  1.2258
  161MOL    H1732337   6.325   0.199   4.153 -0.5680 -0.4199  0.5832
  161MOL    H1832338   6.344   0.428   3.960 -1.3889  0.0198 -1.1570
  161MOL    H1932339   6.422   0.275   3.922  0.0582 -1.1036  0.8154
  161MOL    H2032340   6.124   0.310   3.982  0.8039 -0.3084  1.4390
  161MOL    H2132341   6.201   0.156   3.943  3.7889 -0.7901 -0.3826
  161MOL    O2232342   6.207   0.295   3.786 -0.0827  0.0846 -0.5603
  161MOL    C2332343   6.081   0.305   3.729  0.4311  0.0748  0.3701
  161MOL    C2432344   6.010   0.168   3.711 -0.4676 -0.6563 -0.1027
  161MOL    C2532345   5.878   0.161   3.641  0.0969  0.3358  0.5763
  161MOL    H2632346   6.107   0.342   3.630  1.0905 -3.1005 -0.7003
  161MOL    H2732347   6.018   0.374   3.785  1.6400  1.5284  0.0048
  161MOL    H2832348   6.087   0.108   3.662  1.1661  2.8074 -1.9833
  161MOL    H2932349   5.988   0.133   3.811  0.3246 -1.4357 -0.1975
  161MOL    H3032350   5.869   0.059   3.603  0.5776 -0.4411  2.5189
  161MOL    H3132351   5.885   0.233   3.558 -2.2162 -1.0073 -0.8426
  161MOL    O3232352   5.772   0.189   3.727  0.6711  0.1110  0.0660
  161MOL    C3332353   5.634   0.166   3.687 -0.5793 -0.2159 -0.5134
  161MOL    C3432354   5.545   0.247   3.784 -0.1467 -0.0179  0.4216
  161MOL    C3532355   5.391   0.252   3.750  0.2183  0.6054  0.0666
  161MOL    H3632356   5.604   0.062   3.701 -1.4497 -0.0502 -1.1157
  161MOL    H3732357   5.615   0.192   3.583 -0.2127 -0.3163 -0.6042
  161MOL    H3832358   5.560   0.212   3.886 -0.0510  0.5389  0.5994
  161MOL    H3932359   5.578   0.350   3.789 -0.4980  0.2135 -1.7846
  161MOL    H4032360   5.362   0.151   3.721 -1.7676  0.8099  1.2848
  161MOL    H4132361   5.377   0.319   3.665 -1.0432 -0.5314 -0.6169
  161MOL    O4232362   5.325   0.286   3.872  0.1699 -0.0423  0.9316
  161MOL    C4332363   5.347   0.408   3.933  0.1839 -0.4027 -0.4823
  161MOL    C4432364   5.236   0.437   4.037  0.2236  0.5698  0.2045
  161MOL    C4532365   5.232   0.586   4.098  0.4933 -0.4603 -0.4689
  161MOL    H4632366   5.332   0.490   3.863 -1.3405  0.2943  0.6314
  161MOL    H4732367   5.445   0.403   3.979  0.2972  0.0957 -0.6697
  161MOL    H4832368   5.139   0.405   3.998 -0.1048  0.0102  1.4393
  161MOL    H4932369   5.261   0.370   4.120  0.4272 -0.3688 -0.6108
  161MOL    H5032370   5.224   0.656   4.015 -0.3863  1.5688  1.2765
  161MOL    H5132371   5.328   0.603   4.147  1.8355 -3.1627 -2.0451
  161MOL    O5232372   5.118   0.597   4.182 -0.1090  0.2329 -0.5482
  161MOL    C5332373   5.100   0.726   4.237  0.2460  0.2127 -0.2730
  161MOL    C5432374   4.972   0.733   4.332 -0.5335 -0.3409 -0.1423
  161MOL    C5532375   4.943   0.869   4.389  0.3242  0.2126 -0.4488
  161MOL    H5632376   5.089   0.802   4.159  0.8743 -0.4208 -0.9817
  161MOL    H5732377   5.185   0.761   4.295  1.1571 -1.1919 -0.7601
  161MOL    H5832378   4.887   0.704   4.271  0.4161 -0.9216 -1.1939
  161MOL    H5932379   4.985   0.665   4.417 -1.1635 -0.1418  0.1195
  161MOL    H6032380   4.838   0.867   4.419  0.3819  1.7454 -0.1284
  161MOL    H6132381   4.963   0.930   4.301 -0.9238  0.0772 -0.8462
  161MOL    O6232382   5.026   0.903   4.495 -0.3166 -0.1779  0.1917
  161MOL    C6332383   5.001   1.027   4.553 -0.1466  0.0488 -0.1847
  161MOL    C6432384   5.059   1.041   4.693 -0.3468  0.0286 -0.3048
  161MOL    C6532385   5.036   1.172   4.773 -1.0828  0.3412  0.3453
  161MOL    H6632386   4.894   1.045   4.551  0.0694  1.5937  0.9611
  161MOL    H6732387   5.041   1.105   4.488 -0.2899 -1.1201 -1.7118
  161MOL    H6832388   5.031   0.961   4.761  1.8076  0.4889  1.1992
  161MOL    H6932389   5.168   1.033   4.688 -0.1923  3.0063 -3.9196
  161MOL    H7032390   5.080   1.174   4.872 -1.1291  1.0675  0.3552
  161MOL    H7132391   4.932   1.198   4.793 -1.4720 -1.0468  0.1905
  161MOL    O7232392   5.094   1.282   4.699  0.4051  0.4086  0.3907
  161MOL    C7332393   5.050   1.410   4.744 -0.0324  0.0605 -0.3289
  161MOL    C7432394   5.135   1.522   4.674 -0.7411  0.3979  0.4610
  161MOL    C7532395   5.107   1.664   4.728 -0.7311  0.8427 -0.0601
  161MOL    H7632396   5.078   1.416   4.849  0.4156 -1.7663 -0.3295
  161MOL    H7732397   4.945   1.437   4.731  0.0319  0.3233 -0.3060
  161MOL    H7832398   5.237   1.490   4.694 -0.5930 -2.0109 -3.6604
  161MOL    H7932399   5.129   1.532   4.566 -0.4274  3.4943  0.6899
  161MOL    H8032400   5.003   1.696   4.728 -0.8802  0.3556  0.1366
  161MOL    H8132401   5.169   1.732   4.670 -1.0340  1.0935 -0.0889
  161MOL    O8232402   5.155   1.668   4.859 -0.3839  0.2312 -0.3292
  161MOL    C8332403   5.150   1.790   4.935  0.0122 -0.1903  0.2577
  161MOL    C8432404   5.274   1.795   5.025  0.3380 -1.4143  0.0690
  161MOL    C8532405   5.266   1.920   5.112 -0.6221 -0.2154  0.0365
  161MOL    H8632406   5.062   1.792   4.999  2.0600  0.0025  3.1368
  161MOL    H8732407   5.155   1.883   4.878  1.5959 -1.0522 -1.0506
  161MOL    H8832408   5.276   1.699   5.078 -0.4149 -1.4389  0.0619
  161MOL    H8932409   5.357   1.791   4.954  0.1431  0.5266 -0.2771
  161MOL    H9032410   5.172   1.922   5.166  0.5837 -1.7788  2.2441
  161MOL    H9132411   5.280   2.013   5.056  0.0157 -0.2799  0.0803
  161MOL    O9232412   5.384   1.926   5.199  0.2567 -0.3862 -0.6577
  161MOL    C9332413   5.354   1.853   5.318  0.4470  0.2829 -0.1723
  161MOL    C9432414   5.476   1.871   5.406  1.0454 -0.1048 -0.4454
  161MOL    C9532415   5.467   1.796   5.538  0.1745 -0.2089  0.5880
  161MOL    H9632416   5.360   1.746   5.295 -0.6275  0.2509 -0.3051
  161MOL    H9732417   5.262   1.874   5.372  0.7501 -1.2619  0.9977
  161MOL    H9832418   5.572   1.854   5.357  1.5000 -1.4291  0.8579
  161MOL    H9932419   5.469   1.979   5.416 -0.3965 -0.1226 -1.0879
  161MOL   H10032420   5.367   1.811   5.579  0.1402  4.5972 -0.9062
  161MOL   H10132421   5.541   1.834   5.609  1.7884 -0.8653 -0.7329
  161MOL   O10232422   5.504   1.662   5.520  0.0653  0.4802  1.0796
  161MOL   C10332423   5.485   1.575   5.626  0.2670  0.3626  0.3743
  161MOL   C10432424   5.569   1.447   5.625 -0.2082 -0.2103 -0.0605
  161MOL   C10532425   5.718   1.480   5.652  0.2439 -0.2437 -0.5651
  161MOL   H10632426   5.381   1.542   5.629  0.4035 -0.0981 -0.0267
  161MOL   H10732427   5.509   1.628   5.718  1.3998 -1.3041  1.0534
  161MOL   H10832428   5.545   1.370   5.698  1.1172 -1.2783 -0.7358
  161MOL   H10932429   5.550   1.385   5.537 -0.6888  1.2108 -0.9829
  161MOL   H11032430   5.730   1.543   5.741 -1.0456 -1.6002  0.6104
  161MOL   H11132431   5.770   1.531   5.572 -2.7961  1.6544 -1.3978
  161MOL   O11232432   5.776   1.352   5.662  0.1395 -0.1815  0.4993
  161MOL   C11332433   5.914   1.359   5.697 -0.1688 -0.2481 -0.1986
  161MOL   C11432434   5.963   1.223   5.746  0.2006  0.4554  0.6391
  161MOL   C11532435   6.113   1.215   5.781  0.3731  0.3400  0.2246
  161MOL   H11632436   5.934   1.423   5.783  2.0481 -0.3301 -0.6416
  161MOL   H11732437   5.976   1.390   5.613 -0.0906 -1.6618 -0.6889
  161MOL   H11832438   5.894   1.190   5.824  0.3601 -0.3768  0.4353
  161MOL   H11932439   5.949   1.155   5.661  0.9509 -0.2730  1.0856
  161MOL   H12032440   6.162   1.308   5.752 -0.4486  0.7730  0.2229
  161MOL   H12132441   6.156   1.134   5.722 -1.5938 -0.0486 -0.7043
  161MOL   O12232442   6.151   1.176   5.915 -0.4125 -0.3454  0.0266
  161MOL   C12332443   6.286   1.197   5.944 -0.9476 -0.1238  0.8775
  161MOL   C12432444   6.324   1.126   6.075  0.3826 -0.5623 -0.4117
  161MOL   C12532445   6.476   1.121   6.093  0.1027 -0.6313 -0.1067
  161MOL   H12632446   6.315   1.302   5.942  1.5378 -0.7962  0.2569
  161MOL   H12732447   6.332   1.146   5.860 -1.5785  1.5044 -0.4707
  161MOL   H12832448   6.277   1.183   6.155 -2.2373 -0.8324 -1.7092
  161MOL   H12932449   6.282   1.026   6.087 -1.2528  0.2953  1.3319
  161MOL   H13032450   6.515   1.222   6.081  0.2148 -0.4706  1.5336
  161MOL   H13132451   6.518   1.069   6.007  0.5084 -0.2340 -0.1538
  161MOL   O13232452   6.513   1.052   6.209  0.2108 -0.2211 -0.6541
  161MOL   C13332453   6.656   1.039   6.209  0.1992  0.1195 -0.6526
  161MOL   C13432454   6.702   0.952   6.336  0.0048 -0.2952 -0.2167
  161MOL   C13532455   6.850   0.922   6.319 -0.0530 -0.0316 -0.3279
  161MOL   H13632456   6.699   1.139   6.212  0.7448 -0.0943 -1.2934
  161MOL   H13732457   6.684   0.997   6.112  0.2113 -1.3459 -0.0244
  161MOL   H13832458   6.680   1.004   6.429 -0.2310  0.5528 -0.7452
  161MOL   H13932459   6.641   0.865   6.364 -1.8808  1.2096  0.4575
  161MOL   H14032460   6.897   1.018   6.298  0.0303 -0.0719 -0.3283
  161MOL   H14132461   6.870   0.863   6.230  1.0374  0.8534 -0.6784
  161MOL   O14232462   6.902   0.840   6.427 -0.3244 -0.3159  0.2108
  161MOL   C14332463   7.044   0.830   6.437  0.2493  0.1907 -0.3350
  161MOL   C14432464   7.079   0.752   6.567 -0.4784  0.4893  0.3930
  161MOL   C14532465   7.040   0.599   6.563 -0.1362 -0.2163  0.2462
  161MOL   H14632466   7.081   0.933   6.443 -0.8806  0.6741 -1.4974
  161MOL   H14732467   7.088   0.791   6.345  1.1330 -1.9858  0.9621
  161MOL   H14832468   7.184   0.759   6.594 -0.1220  0.7148 -1.0407
  161MOL   H14932469   7.015   0.798   6.642 -0.2287  0.8804  0.3690
  161MOL   H15032470   7.125   0.552   6.514 -0.0332 -1.7900  1.9054
  161MOL   H15132471   6.942   0.579   6.520  0.5868 -0.7745 -1.1607
  161MOL   O15232472   7.042   0.549   6.697  0.1634  0.0490 -0.7478
  161MOL   C15332473   6.978   0.431   6.712 -1.3014  0.3723  1.1892
  161MOL   C15432474   6.969   0.409   6.866  0.1262 -0.7759 -0.3607
  161MOL   C15532475   6.899   0.281   6.894 -0.4596 -0.2713  0.5532
  161MOL   H15632476   7.047   0.354   6.678 -1.6894 -0.0051  1.2539
  161MOL   H15732477   6.884   0.413   6.661 -1.2007  0.1325  1.0884
  161MOL   H15832478   7.064   0.407   6.919  0.7411 -2.4536 -1.4777
  161MOL   H15932479   6.916   0.487   6.920  0.2914 -1.3330  0.6213
  161MOL   H16032480   6.898   0.258   7.001  2.0980 -1.7775  0.2871
  161MOL   H16132481   6.956   0.206   6.839 -1.2202  0.9856 -2.0124
  161MOL   O16232482   6.766   0.295   6.849 -0.5481 -0.3847 -0.4917
  161MOL   C16332483   6.704   0.169   6.863  0.4412  0.4637  0.4595
  161MOL   C16432484   6.555   0.183   6.837 -0.3590 -0.1767  0.2415
  161MOL   C16532485   6.470   0.074   6.910  0.6805  0.1349  0.8379
  161MOL   H16632486   6.701   0.138   6.967  2.0924  0.3927  0.5130
  161MOL   H16732487   6.743   0.093   6.794  1.4085 -0.0137  1.5220
  161MOL   H16832488   6.528   0.282   6.872  0.2743 -0.7009  2.2803
  161MOL   H16932489   6.532   0.178   6.730 -0.9065 -2.1636  0.4188
  161MOL   H17032490   6.518   7.764   6.905  0.2332 -0.0996  1.2387
  161MOL   H17132491   6.370   0.055   6.873  1.5545  0.1085 -1.6323
  161MOL   O17232492   6.445   0.117   7.042 -0.5993 -0.7455  0.3453
  161MOL   C17332493   6.347   0.036   7.109 -0.6498  0.2047  0.8140
  161MOL   C17432494   6.292   0.102   7.233  0.3674 -0.1355  0.2194
  161MOL   C17532495   6.170   0.026   7.287  0.3607 -0.0912  0.0800
  161MOL   H17632496   6.395   7.732   7.142  0.5277  1.6622  3.3150
  161MOL   H17732497   6.259   0.016   7.047 -0.2542  1.7950 -0.2685
  161MOL   H17832498   6.367   0.106   7.312 -0.2402  0.1646  0.7906
  161MOL   H17932499   6.254   0.203   7.217 -0.9553 -0.8837 -1.5186
  161MOL   H18032500   6.171   7.705   7.289  5.0566 -0.1899 -0.7753
  161MOL   H18132501   6.089   0.039   7.216 -0.2945  2.0598  1.2076
  161MOL   O18232502   6.129   0.068   7.421  0.4297 -0.1559 -0.3018
  161MOL   C18332503   6.089   0.198   7.431 -0.3581 -0.1625  0.6440
  161MOL   C18432504   6.015   0.224   7.562 -0.0636 -0.7578 -0.4239
  161MOL   C18532505   5.981   0.375   7.567 -0.3856 -0.6785  0.3562
  161MOL   H18632506   6.027   0.240   7.352 -1.0391  0.2605  1.3899
  161MOL   H18732507   6.179   0.259   7.431 -0.2196 -0.3594 -1.4484
  161MOL   H18832508   5.916   0.177   7.562 -0.5194  0.1638 -1.2801
  161MOL   H18932509   6.077   0.196   7.646  0.5353 -0.1263 -0.6485
  161MOL   H19032510   5.928   0.414   7.655 -0.2040  0.1660  0.0970
  161MOL   H19132511   5.922   0.412   7.483 -0.4906  1.2471  1.2435
  161MOL   O19232512   6.099   0.449   7.563 -0.0266 -0.0913  0.0506
  161MOL   C19332513   6.071   0.589   7.574  0.8395  0.1145  0.4130
  161MOL   C19432514   6.204   0.664   7.604  0.2330 -1.2442 -0.7052
  161MOL   C19532515   6.254   0.642   7.749 -0.1564 -0.2169 -0.1628
  161MOL   H19632516   6.005   0.612   7.658  0.4519 -0.1196  0.1753
  161MOL   H19732517   6.023   0.613   7.478  1.8378  1.4865  0.2408
  161MOL   H19832518   6.279   0.644   7.527  1.3987 -1.6282  0.5062
  161MOL   H19932519   6.179   0.769   7.592  2.9747 -0.4933 -0.1815
  161MOL   H20032520   6.327   0.719   7.772  1.3538 -1.0247 -2.1038
  161MOL   H20132521   6.316   0.553   7.764  0.8196  0.4427 -0.2780
  161MOL   H20232522   6.169   0.651   0.029  0.2922  1.6466  0.1758
  162MOL     O132523   5.669   0.665   0.213 -0.0021  0.4749 -0.3193
  162MOL     C232524   5.648   0.743   0.093 -0.3836  0.1664 -0.2692
  162MOL     C332525   5.761   0.734   0.002 -0.1685 -0.5028  0.5370
  162MOL     C432526   5.731   0.813   7.660  0.0563  0.1741  0.1357
  162MOL     H532527   5.626   0.846   0.120  3.3008  0.5418  1.6557
  162MOL     H632528   5.566   0.699   0.037  1.0499  0.4029 -2.6392
  162MOL     H732529   5.856   0.767   0.045  0.0458  0.6564 -0.8034
  162MOL     H832530   5.764   0.627   7.766 -0.1391 -0.3128 -0.3130
  162MOL     H932531   5.686   0.910   7.681  0.9460  0.8241 -0.9469
  162MOL    H1032532   5.659   0.768   7.592  1.3770  1.9609 -2.5161
  162MOL    H1132533   5.715   0.720   0.275  1.1885 -1.5301  0.5988
  162MOL    O1232534   5.851   0.834   7.591 -0.6499  0.0570  0.1225
  162MOL    C1332535   5.828   0.905   7.467  1.0719  0.4094 -0.4380
  162MOL    C1432536   5.945   0.936   7.379 -0.6522  0.2694  0.0712
  162MOL    C1532537   6.043   1.048   7.425 -0.1341  0.0565 -0.0539
  162MOL    H1632538   5.774   0.992   7.503 -0.6470 -1.2932  1.2523
  162MOL    H1732539   5.748   0.853   7.415  2.3699 -1.9507 -0.1711
  162MOL    H1832540   6.012   0.855   7.349 -0.3075  0.7061 -0.3311
  162MOL    H1932541   5.908   0.975   7.284  0.7504  1.9324  0.1883
  162MOL    H2032542   6.103   1.022   7.512 -0.1285  1.4481  0.3661
  162MOL    H2132543   5.981   1.136   7.445  1.3837  0.6804  2.0541
  162MOL    O2232544   6.136   1.063   7.316  0.3365 -0.3148 -0.0571
  162MOL    C2332545   6.200   1.188   7.315  0.0943  0.0075 -0.4376
  162MOL    C2432546   6.269   1.210   7.179 -0.4505 -0.7146  0.0541
  162MOL    C2532547   6.365   1.330   7.177 -0.5739 -0.2288 -0.0597
  162MOL    H2632548   6.271   1.192   7.397 -1.0525  1.3656  0.5132
  162MOL    H2732549   6.128   1.267   7.340 -0.6700 -1.1803  1.2109
  162MOL    H2832550   6.332   1.122   7.164  1.4642  0.6454 -0.0359
  162MOL    H2932551   6.183   1.209   7.112 -0.3074 -0.7252 -0.1325
  162MOL    H3032552   6.438   1.322   7.096  0.2235 -0.7313  0.6915
  162MOL    H3132553   6.428   1.334   7.266 -0.7175 -0.1040  0.0346
  162MOL    O3232554   6.284   1.442   7.170 -0.1638  0.7947 -0.0925
  162MOL    C3332555   6.355   1.563   7.183 -0.3780 -0.3631 -0.0641
  162MOL    C3432556   6.251   1.672   7.173 -0.3000 -1.2168  0.3994
  162MOL    C3532557   6.157   1.678   7.296 -0.5491  0.4189 -0.2592
  162MOL    H3632558   6.434   1.582   7.111  0.7467 -1.4136  0.8781
  162MOL    H3732559   6.415   1.552   7.273  0.3734 -1.5411 -0.6898
  162MOL    H3832560   6.312   1.758   7.144  0.1303 -1.7231 -0.2000
  162MOL    H3932561   6.183   1.653   7.089  1.5686 -1.1651 -1.1696
  162MOL    H4032562   6.220   1.704   7.381 -1.4395  1.2939  0.1407
  162MOL    H4132563   6.109   1.583   7.320 -3.2239  2.0558  1.0563
  162MOL    O4232564   6.056   1.776   7.270  0.6882  0.5283 -0.0180
  162MOL    C4332565   6.054   1.892   7.352 -0.0093  0.3604  0.8253
  162MOL    C4432566   5.904   1.941   7.359 -0.3801 -0.2595  0.6605
  162MOL    C4532567   5.860   2.021   7.485  0.3198 -0.2653 -0.4350
  162MOL    H4632568   6.128   1.963   7.316  0.0063 -0.1743 -0.2389
  162MOL    H4732569   6.078   1.866   7.455 -0.7845 -1.4112  0.5759
  162MOL    H4832570   5.872   2.003   7.275  0.2355  0.0405  0.6427
  162MOL    H4932571   5.836   1.857   7.345  0.2560 -0.4346 -1.4410
  162MOL    H5032572   5.910   2.118   7.488  0.3788 -0.2761 -1.0637
  162MOL    H5132573   5.883   1.961   7.574 -1.9999  1.5554  1.4792
  162MOL    O5232574   5.720   2.029   7.467 -0.1111 -0.0261 -0.0118
  162MOL    C5332575   5.660   2.078   7.584  0.2712 -0.1726 -0.0618
  162MOL    C5432576   5.705   2.217   7.627 -0.0819 -0.2143 -0.4722
  162MOL    C5532577   5.618   2.270   7.741 -0.2801  0.3029  0.5034
  162MOL    H5632578   5.672   2.007   7.666 -1.6362 -1.1294 -0.5929
  162MOL    H5732579   5.552   2.087   7.581  0.3410  0.1976 -1.9645
  162MOL    H5832580   5.804   2.219   7.671 -0.5770 -0.7054  0.6853
  162MOL    H5932581   5.704   2.286   7.542 -0.5397 -0.0484 -0.3336
  162MOL    H6032582   5.614   2.203   0.038 -2.7125 -0.3033 -0.0565
  162MOL    H6132583   5.515   2.267   7.707 -1.3401  0.5731  3.5300
  162MOL    O6232584   5.658   2.396   7.781  0.2239 -0.1625  0.0508
  162MOL    C6332585   5.577   2.449   0.093  0.0375 -0.2801  0.5000
  162MOL    C6432586   5.578   2.593   0.070 -0.1616 -0.0027 -0.3215
  162MOL    C6532587   5.517   2.638   7.728  0.4737 -0.6690 -0.1812
  162MOL    H6632588   5.628   2.427   0.187  3.4844 -0.4798 -1.3712
  162MOL    H6732589   5.476   2.408   0.083  0.0256 -0.0631 -0.2488
  162MOL    H6832590   5.544   2.649   0.158 -1.5012 -0.4308 -0.5470
  162MOL    H6932591   5.682   2.623   0.072 -0.0687 -0.3420  0.1672
  162MOL    H7032592   5.415   2.605   7.713  0.5510  0.4007 -3.3359
  162MOL    H7132593   5.570   2.606   7.639  0.2528  0.4336 -0.7101
  162MOL    O7232594   5.520   2.773   7.735 -0.0342 -0.5644 -0.2070
  162MOL    C7332595   5.468   2.832   7.617 -0.4281 -0.2887 -0.2381
  162MOL    C7432596   5.478   2.986   7.619  0.1090 -0.2798 -0.3440
  162MOL    C7532597   5.422   3.049   7.497  0.2166  0.8146 -0.4410
  162MOL    H7632598   5.364   2.803   7.606 -0.7427  1.0082 -0.7566
  162MOL    H7732599   5.511   2.794   7.524 -0.5339 -0.6365 -0.1434
  162MOL    H7832600   5.429   3.006   7.715  1.3408 -2.1050  0.6968
  162MOL    H7932601   5.583   3.012   7.627  0.2717 -1.1187  0.3605
  162MOL    H8032602   5.316   3.026   7.494  0.3747  0.1547 -4.8533
  162MOL    H8132603   5.470   2.999   7.413 -1.0507  0.8613 -1.1923
  162MOL    O8232604   5.453   3.186   7.511  0.1002  0.0745  0.1713
  162MOL    C8332605   5.390   3.255   7.403 -0.3760 -0.6270 -0.4245
  162MOL    C8432606   5.381   3.407   7.427 -0.7378  0.5582  0.4196
  162MOL    C8532607   5.281   3.471   7.325 -0.1469  0.1424  0.1518
  162MOL    H8632608   5.289   3.215   7.402 -0.4414 -0.4849  0.0367
  162MOL    H8732609   5.440   3.223   7.312  0.8307 -2.2825  0.7718
  162MOL    H8832610   5.351   3.414   7.532 -0.1765  0.0017  0.6176
  162MOL    H8932611   5.479   3.454   7.431 -0.7031  0.6539 -1.2441
  162MOL    H9032612   5.305   3.441   7.223  0.2506  0.8281  0.0409
  162MOL    H9132613   5.296   3.579   7.321  1.1112 -0.0829 -2.1456
  162MOL    O9232614   5.151   3.439   7.364  0.1942 -0.0227  0.7613
  162MOL    C9332615   5.052   3.471   7.272 -0.0267 -0.5626  0.4129
  162MOL    C9432616   4.921   3.463   7.332 -0.0494  0.0692  0.6913
  162MOL    C9532617   4.877   3.316   7.376  1.3320  0.2869  0.1225
  162MOL    H9632618   5.064   3.402   7.189 -2.5658  0.7073 -1.0304
  162MOL    H9732619   5.073   3.568   7.226 -2.3821  0.1991  0.8636
  162MOL    H9832620   4.909   3.531   7.417 -1.2887 -1.1293  1.4965
  162MOL    H9932621   4.854   3.490   7.251  2.8941 -0.6045 -2.0589
  162MOL   H10032622   4.809   3.333   7.460  2.2212 -0.1599  0.9451
  162MOL   H10132623   4.956   3.243   7.397  2.2324  1.0355 -0.5819
  162MOL   O10232624   4.810   3.272   7.258  0.1695 -0.0632  0.1222
  162MOL   C10332625   4.745   3.151   7.256  0.3233 -0.4919  0.1286
  162MOL   C10432626   4.841   3.032   7.241  0.0532  0.2696  0.0254
  162MOL   C10532627   4.767   2.896   7.204  0.2520 -0.6781  0.1579
  162MOL   H10632628   4.671   3.142   7.176 -0.0967 -0.1532  0.4813
  162MOL   H10732629   4.690   3.134   7.348 -0.7449  2.0648 -0.0028
  162MOL   H10832630   4.911   3.054   7.159 -0.6317  2.0467 -0.1191
  162MOL   H10932631   4.904   3.018   7.328 -1.6287  1.9722  1.5507
  162MOL   H11032632   4.700   2.905   7.118  0.4540 -1.2502 -0.0671
  162MOL   H11132633   4.709   2.866   7.290 -0.3861  1.8003  0.6365
  162MOL   O11232634   4.867   2.805   7.165  0.0851  0.8263  0.9499
  162MOL   C11332635   4.815   2.675   7.144 -0.0022  0.5881  0.5223
  162MOL   C11432636   4.926   2.565   7.143 -0.5066  0.1258  0.7013
  162MOL   C11532637   5.013   2.584   7.024  0.3000  0.3468 -0.3704
  162MOL   H11632638   4.756   2.661   7.054  1.0720 -0.1080 -0.0767
  162MOL   H11732639   4.751   2.641   7.226 -0.2788 -2.7534 -0.9696
  162MOL   H11832640   4.996   2.567   7.226  1.5105  0.2437 -0.9751
  162MOL   H11932641   4.887   2.463   7.135  0.1069 -0.1041  0.6379
  162MOL   H12032642   5.054   2.685   7.026  2.0246 -0.3400 -0.1412
  162MOL   H12132643   4.960   2.558   6.933  3.0800 -3.0222 -1.1597
  162MOL   O12232644   5.112   2.488   7.037 -0.4040  0.4030 -0.1043
  162MOL   C12332645   5.206   2.494   6.927  0.2617 -0.3577 -0.2641
  162MOL   C12432646   5.305   2.380   6.961 -0.5032 -0.8134  0.3346
  162MOL   C12532647   5.395   2.347   6.839 -0.2080 -0.0619  0.2887
  162MOL   H12632648   5.248   2.595   6.924  0.8260 -0.4488  2.5638
  162MOL   H12732649   5.152   2.473   6.835  1.6195 -2.3818 -0.6460
  162MOL   H12832650   5.372   2.405   7.044  1.4779 -1.1793 -1.1186
  162MOL   H12932651   5.240   2.294   6.977  0.3676 -1.9101 -1.8079
  162MOL   H13032652   5.333   2.323   6.753  0.4440 -3.6340  0.7459
  162MOL   H13132653   5.455   2.256   6.850 -0.0159 -0.0902 -0.9586
  162MOL   O13232654   5.477   2.462   6.814  0.5070 -0.1927 -0.1847
  162MOL   C13332655   5.559   2.443   6.701 -0.2684 -0.4560  0.2240
  162MOL   C13432656   5.634   2.572   6.686 -0.1786  0.5255  0.0921
  162MOL   C13532657   5.769   2.558   6.613 -0.3698  1.0317 -0.4210
  162MOL   H13632658   5.503   2.417   6.611  1.8072 -0.2487 -1.1614
  162MOL   H13732659   5.629   2.361   6.717 -0.7136 -0.7041  0.9224
  162MOL   H13832660   5.573   2.649   6.641 -0.5440  0.5194  0.5657
  162MOL   H13932661   5.658   2.608   6.786  1.1562  1.3615 -0.5201
  162MOL   H14032662   5.749   2.496   6.525 -0.3540 -0.4330  0.5995
  162MOL   H14132663   5.830   2.501   6.683 -2.1124  0.4002  0.5853
  162MOL   O14232664   5.819   2.690   6.582 -0.3177  0.3496  0.0999
  162MOL   C14332665   5.788   2.730   6.445  0.9170 -0.1609  0.1980
  162MOL   C14432666   5.877   2.678   6.338 -0.3830  0.5406 -0.0866
  162MOL   C14532667   5.842   2.718   6.190 -0.0232  0.2334 -0.6017
  162MOL   H14632668   5.768   2.837   6.434 -0.0543 -0.4805 -1.3129
  162MOL   H14732669   5.688   2.691   6.424  0.9079 -0.1995  0.3145
  162MOL   H14832670   5.974   2.726   6.342 -0.0411  0.0675 -2.0742
  162MOL   H14932671   5.896   2.572   6.353 -0.2677  0.6298  0.4044
  162MOL   H15032672   5.851   2.826   6.175 -3.6596  1.2304  3.1140
  162MOL   H15132673   5.742   2.690   6.156 -1.0509  1.2754  1.4600
  162MOL   O15232674   5.926   2.645   6.109 -0.0138  0.1554  0.0432
  162MOL   C15332675   5.931   2.688   5.973  0.4433 -0.3643  0.0065
  162MOL   C15432676   6.078   2.738   5.950  0.5518 -0.5798 -0.0297
  162MOL   C15532677   6.099   2.796   5.814  0.7639 -0.3719  0.4628
  162MOL   H15632678   5.857   2.763   5.945  2.0285  0.2718 -2.6680
  162MOL   H15732679   5.916   2.605   5.904 -0.8230 -0.2005  0.0759
  162MOL   H15832680   6.093   2.823   6.017 -3.7256 -0.3400  0.7496
  162MOL   H15932681   6.141   2.655   5.981 -1.1982 -2.1866 -0.7327
  162MOL   H16032682   6.006   2.846   5.787  0.8220 -0.8764 -0.6697
  162MOL   H16132683   6.101   2.713   5.744 -0.2192 -0.9060  1.0641
  162MOL   O16232684   6.207   2.893   5.807  0.1667  0.6358  0.0587
  162MOL   C16332685   6.259   2.905   5.677  0.1967 -0.3552 -0.1018
  162MOL   C16432686   6.350   3.023   5.659  0.1621 -0.3534  0.2847
  162MOL   C16532687   6.389   3.039   5.514  0.1651  0.5255  0.4547
  162MOL   H16632688   6.182   2.921   5.601  0.6272  3.7327  0.2138
  162MOL   H16732689   6.308   2.810   5.657  0.2638 -0.3105 -0.1487
  162MOL   H16832690   6.306   3.112   5.703  1.5510  1.9605 -2.7500
  162MOL   H16932691   6.437   3.015   5.724  0.4250  0.4817  0.0445
  162MOL   H17032692   6.319   3.005   5.438  2.4428 -1.2749 -0.8907
  162MOL   H17132693   6.473   2.975   5.488 -1.0097 -0.5455 -0.7842
  162MOL   O17232694   6.406   3.172   5.483  0.4426  0.6034  0.3640
  162MOL   C17332695   6.449   3.204   5.348  0.1923 -0.5935 -0.0206
  162MOL   C17432696   6.385   3.339   5.310  0.2186 -0.0688 -0.5864
  162MOL   C17532697   6.401   3.374   5.165  0.7196  0.7913  0.5404
  162MOL   H17632698   6.412   3.133   5.274 -2.6313  0.4368  0.3641
  162MOL   H17732699   6.557   3.208   5.330  1.0083 -2.3918  3.8590
  162MOL   H17832700   6.280   3.348   5.336  0.4114 -0.4190  0.3518
  162MOL   H17932701   6.425   3.410   5.383  1.6333 -1.4937  0.0531
  162MOL   H18032702   6.372   3.292   5.100 -2.2232  1.4430  0.9887
  162MOL   H18132703   6.507   3.396   5.148  0.9035 -1.3443 -1.2115
  162MOL   O18232704   6.318   3.484   5.140  0.1712 -0.3484  0.3356
  162MOL   C18332705   6.261   3.483   5.010 -0.2918  0.5791  0.1808
  162MOL   C18432706   6.202   3.622   4.986 -0.5489 -0.0524  0.3410
  162MOL   C18532707   6.167   3.644   4.836 -0.2206  0.1769 -0.0223
  162MOL   H18632708   6.183   3.407   4.998  2.0745 -1.7435 -0.9176
  162MOL   H18732709   6.330   3.447   4.933 -0.9687 -0.5529  0.0867
  162MOL   H18832710   6.108   3.655   5.031 -0.2340 -0.4765  1.3306
  162MOL   H18932711   6.280   3.691   5.019  0.9815 -0.7402 -1.7515
  162MOL   H19032712   6.260   3.625   4.781 -0.9049 -0.6978 -0.8917
  162MOL   H19132713   6.140   3.748   4.818 -1.3049 -0.0067  0.4929
  162MOL   O19232714   6.062   3.555   4.785 -0.5078  0.1941 -0.2631
  162MOL   C19332715   6.062   3.543   4.639  0.0672 -0.8369 -0.4069
  162MOL   C19432716   5.929   3.480   4.581  0.0263  0.2729  0.1837
  162MOL   C19532717   5.901   3.337   4.628 -0.6157 -0.4824 -0.6591
  162MOL   H19632718   6.155   3.500   4.600 -1.7428 -4.0858 -1.3352
  162MOL   H19732719   6.066   3.648   4.609  0.7230 -1.1547 -1.4765
  162MOL   H19832720   5.846   3.548   4.594 -1.2385 -1.3526  0.8324
  162MOL   H19932721   5.948   3.475   4.474 -0.1564 -0.5537  0.1883
  162MOL   H20032722   5.885   3.340   4.736  0.4075  0.8585 -0.5185
  162MOL   H20132723   5.973   3.256   4.614 -0.2422 -0.1691 -0.5853
  162MOL   H20232724   5.804   3.308   4.588 -0.2117 -2.2714 -0.3994
  163MOL     O132725   0.326   4.172   2.912 -0.0229 -0.6914 -0.1843
  163MOL     C232726   0.286   4.305   2.954  0.3508  0.2808 -0.5858
  163MOL     C332727   0.265   4.316   3.107  0.8451 -0.4700  0.0535
  163MOL     C432728   0.159   4.423   3.138 -0.6608  0.3069 -0.2553
  163MOL     H532729   0.195   4.340   2.905 -1.0346 -0.3240  1.4630
  163MOL     H632730   0.368   4.370   2.925  0.4067  0.9001  0.9092
  163MOL     H732731   0.237   4.220   3.150 -0.3154 -0.1602 -0.0035
  163MOL     H832732   0.362   4.349   3.145  0.4796  5.5052 -3.6142
  163MOL     H932733   0.058   4.397   3.108 -0.5062 -0.0857 -0.4435
  163MOL    H1032734   0.177   4.518   3.087 -1.2157  1.8873  2.3848
  163MOL    H1132735   0.309   4.174   2.819  0.9452  0.0628 -0.3527
  163MOL    O1232736   0.183   4.461   3.279 -0.1785 -0.2363  0.2724
  163MOL    C1332737   0.076   4.540   3.323 -0.5936  0.4292  0.2439
  163MOL    C1432738   0.093   4.586   3.473  0.0996 -0.0824 -0.2787
  163MOL    C1532739   7.769   4.675   3.533  0.3571 -0.4096 -0.3574
  163MOL    H1632740   7.768   4.494   3.303 -0.2100 -0.5807  0.6760
  163MOL    H1732741   0.073   4.629   3.261  1.6127 -0.6574 -1.4722
  163MOL    H1832742   0.102   4.499   3.538 -0.8561 -0.3286 -0.4687
  163MOL    H1932743   0.186   4.643   3.479  0.2681 -0.2141 -1.4854
  163MOL    H2032744   7.766   4.769   3.478  0.0906 -0.5097 -0.5150
  163MOL    H2132745   0.006   4.711   3.633  1.0717  0.4655 -0.8437
  163MOL    O2232746   7.646   4.593   3.537  0.4832 -0.1851 -0.9326
  163MOL    C2332747   7.528   4.662   3.506  0.2884  0.8713  0.2941
  163MOL    C2432748   7.470   4.737   3.630  0.5019  0.7666  0.1042
  163MOL    C2532749   7.336   4.802   3.580  0.4501 -0.5142 -1.2088
  163MOL    H2632750   7.467   4.575   3.482  1.1624 -0.6639  3.4249
  163MOL    H2732751   7.550   4.717   3.415  2.9568 -0.6324 -0.0183
  163MOL    H2832752   7.461   4.667   3.714  0.9749 -0.5651 -0.9381
  163MOL    H2932753   7.541   4.819   3.647  0.1802  2.1538 -4.6121
  163MOL    H3032754   7.284   4.849   3.664  2.1478 -1.3083  0.3244
  163MOL    H3132755   7.266   4.724   3.549  0.7117 -1.8038  1.2879
  163MOL    O3232756   7.355   4.886   3.470 -0.0335  0.5103  0.4890
  163MOL    C3332757   7.236   4.937   3.418 -0.2188 -0.6566 -1.3318
  163MOL    C3432758   7.283   5.030   3.305 -0.6257  0.1299  0.3543
  163MOL    C3532759   7.167   5.096   3.233  0.2466 -0.1926 -0.2816
  163MOL    H3632760   7.182   4.985   3.499  1.3358  0.3207 -0.8488
  163MOL    H3732761   7.173   4.859   3.375  0.7486 -0.9476 -2.2746
  163MOL    H3832762   7.337   5.113   3.351 -0.4961  0.6084 -0.6592
  163MOL    H3932763   7.347   4.979   3.232  0.4779  1.9699  0.0044
  163MOL    H4032764   7.196   5.170   3.159 -0.2098 -2.0103 -2.3262
  163MOL    H4132765   7.105   5.134   3.314  2.4672  2.1309  0.4218
  163MOL    O4232766   7.098   4.993   3.172  0.6447 -0.7161  0.1660
  163MOL    C4332767   6.992   5.034   3.098  0.1192 -0.2218  0.3942
  163MOL    C4432768   6.890   4.925   3.073  0.5243  0.2111  0.3262
  163MOL    C4532769   6.835   4.864   3.203  0.3100 -0.5009  0.0042
  163MOL    H4632770   7.028   5.069   3.001  1.3985 -1.0550  0.5694
  163MOL    H4732771   6.931   5.110   3.147 -2.0929 -0.8495 -1.3101
  163MOL    H4832772   6.801   4.968   3.027  0.5283  1.4506  1.4473
  163MOL    H4932773   6.932   4.859   2.997 -0.2108 -0.0466  0.1412
  163MOL    H5032774   6.916   4.857   3.275  2.3095  2.3855 -1.8342
  163MOL    H5132775   6.802   4.762   3.184 -1.2217 -0.1723  0.7722
  163MOL    O5232776   6.716   4.935   3.246  0.4330 -0.4714 -0.4834
  163MOL    C5332777   6.671   4.871   3.368  0.0913  0.2102  0.0775
  163MOL    C5432778   6.519   4.914   3.383  0.1786 -0.5001 -0.7307
  163MOL    C5532779   6.502   5.053   3.436 -0.7239 -0.3904  0.0353
  163MOL    H5632780   6.721   4.894   3.462  0.4680 -0.0145 -0.0681
  163MOL    H5732781   6.677   4.762   3.365 -0.3242  0.2102 -0.7236
  163MOL    H5832782   6.470   4.911   3.286 -1.8301 -2.3668  0.3110
  163MOL    H5932783   6.463   4.845   3.446 -0.9965  0.0941 -1.1109
  163MOL    H6032784   6.527   5.124   3.357 -0.9181  0.7976  1.0203
  163MOL    H6132785   6.560   5.067   3.527  1.5818 -1.6829 -1.2034
  163MOL    O6232786   6.363   5.074   3.476 -0.1352  0.8528 -0.2953
  163MOL    C6332787   6.339   5.178   3.562  0.7175  0.6815 -0.0419
  163MOL    C6432788   6.192   5.168   3.604 -0.1364 -0.6568 -0.5014
  163MOL    C6532789   6.164   5.283   3.712  0.4178 -0.7399  0.1040
  163MOL    H6632790   6.365   5.268   3.506 -1.5428  1.4328  0.0837
  163MOL    H6732791   6.400   5.163   3.651  2.3569  1.8620 -0.9328
  163MOL    H6832792   6.139   5.199   3.514  0.6378 -1.6899 -1.3204
  163MOL    H6932793   6.171   5.071   3.647 -0.4726  0.4525  1.9208
  163MOL    H7032794   6.216   5.264   3.806 -0.4692 -1.5867  0.4336
  163MOL    H7132795   6.059   5.292   3.740  1.0009  0.5401  1.9198
  163MOL    O7232796   6.214   5.405   3.663 -0.1101 -0.0115  0.3318
  163MOL    C7332797   6.183   5.509   3.750 -0.1348  0.2390 -0.9155
  163MOL    C7432798   6.236   5.626   3.679 -1.1282 -0.7527  0.4338
  163MOL    C7532799   6.237   5.747   3.770 -0.4046  0.5288  0.9817
  163MOL    H7632800   6.238   5.507   3.844 -0.7828 -0.2306 -0.5439
  163MOL    H7732801   6.079   5.528   3.777 -0.1289 -0.8526 -0.0896
  163MOL    H7832802   6.336   5.601   3.644 -1.4944 -0.1724 -1.0364
  163MOL    H7932803   6.191   5.645   3.582 -2.1829 -0.0528  1.0489
  163MOL    H8032804   6.263   5.729   3.874 -0.7376  0.3434  1.0327
  163MOL    H8132805   6.132   5.777   3.768 -0.3496  0.6756 -0.1469
  163MOL    O8232806   6.325   5.844   3.720 -0.4811 -0.3636 -0.6476
  163MOL    C8332807   6.337   5.962   3.804 -0.4772 -0.3725 -0.0053
  163MOL    C8432808   6.406   6.066   3.710  0.4458 -0.0560 -0.2638
  163MOL    C8532809   6.424   6.196   3.796  0.3354  0.6316  0.1364
  163MOL    H8632810   6.387   5.938   3.898  1.1745 -1.5941 -1.1700
  163MOL    H8732811   6.238   5.997   3.833 -0.3062 -0.8184  1.1483
  163MOL    H8832812   6.497   6.019   3.673  0.8870  0.6619 -0.0836
  163MOL    H8932813   6.351   6.087   3.618  0.1187  2.6028  0.4893
  163MOL    H9032814   6.332   6.248   3.824  0.1501  0.1546  0.4185
  163MOL    H9132815   6.483   6.270   3.743 -1.2274  0.7060 -1.5507
  163MOL    O9232816   6.504   6.175   3.918  0.5971  0.2866 -0.4194
  163MOL    C9332817   6.646   6.171   3.896 -0.2896  0.3956 -0.1937
  163MOL    C9432818   6.727   6.085   3.996  0.6549 -0.0777 -0.0739
  163MOL    C9532819   6.738   6.135   4.140 -0.0361  0.3385 -0.5626
  163MOL    H9632820   6.688   6.270   3.874  1.2745 -0.2966 -0.3918
  163MOL    H9732821   6.662   6.109   3.808 -1.3057  0.1620 -0.2173
  163MOL    H9832822   6.683   5.986   3.992 -0.1377  0.2210  1.0771
  163MOL    H9932823   6.832   6.088   3.966  0.9860  0.6609  1.1211
  163MOL   H10032824   6.643   6.111   4.188 -0.3417  1.3641 -0.6269
  163MOL   H10132825   6.748   6.243   4.144  0.5809  0.4198 -3.0145
  163MOL   O10232826   6.852   6.070   4.197  0.6076 -0.5458 -0.4299
  163MOL   C10332827   6.854   6.074   4.331 -0.1441 -0.3861 -0.7187
  163MOL   C10432828   6.974   5.989   4.380 -0.3080 -0.0619 -0.2888
  163MOL   C10532829   6.963   5.957   4.526 -0.0852 -0.7262 -0.3749
  163MOL   H10632830   6.768   6.030   4.381  0.6473  0.9118  1.8760
  163MOL   H10732831   6.857   6.177   4.367  0.6280 -0.7090  0.1673
  163MOL   H10832832   6.975   5.893   4.330 -1.9739 -0.9705  1.3866
  163MOL   H10932833   7.072   6.033   4.359 -0.9467  2.2401  1.2732
  163MOL   H11032834   6.881   5.887   4.535 -1.0788  0.5790  1.0037
  163MOL   H11132835   6.941   6.042   4.591 -0.7486 -0.3792 -1.0469
  163MOL   O11232836   7.087   5.890   4.569 -0.3357  0.0127  0.0316
  163MOL   C11332837   7.113   5.890   4.704 -0.1591  0.4913 -0.7865
  163MOL   C11432838   7.088   5.753   4.760  0.0092  0.1179 -0.0322
  163MOL   C11532839   7.105   5.751   4.915 -0.7148  1.0976 -0.2765
  163MOL   H11632840   7.060   5.971   4.754  2.8973  2.5730 -0.7943
  163MOL   H11732841   7.220   5.896   4.723 -0.2818 -1.5062  0.7956
  163MOL   H11832842   6.990   5.719   4.726 -0.6533 -0.2362  2.1801
  163MOL   H11932843   7.154   5.679   4.714 -1.3747  0.3017 -2.3940
  163MOL   H12032844   7.057   5.835   4.966  1.4483  0.7929  2.4065
  163MOL   H12132845   7.212   5.749   4.931 -0.4563  3.3769 -1.5716
  163MOL   O12232846   7.057   5.623   4.974 -0.1867 -0.4255 -0.3536
  163MOL   C12332847   7.033   5.627   5.113  0.1957  0.1377 -0.3029
  163MOL   C12432848   6.887   5.669   5.128 -0.0340  0.4006 -0.2322
  163MOL   C12532849   6.789   5.559   5.099 -0.4427 -0.1852 -0.1098
  163MOL   H12632850   7.102   5.694   5.164 -0.1027  0.6999 -0.6409
  163MOL   H12732851   7.030   5.524   5.150 -0.7466  0.0834 -0.5097
  163MOL   H12832852   6.875   5.704   5.230 -0.5996  1.8913 -0.7949
  163MOL   H12932853   6.865   5.754   5.063  0.2516  2.3835  2.2141
  163MOL   H13032854   6.809   5.472   5.161 -2.2942 -0.8541 -0.4227
  163MOL   H13132855   6.804   5.529   4.996 -1.1161 -0.9831  0.0226
  163MOL   O13232856   6.659   5.595   5.138  0.3963 -0.2302 -0.1126
  163MOL   C13332857   6.570   5.487   5.089 -0.6513  0.5359 -0.9874
  163MOL   C13432858   6.422   5.522   5.131 -0.1992 -0.0060  0.3451
  163MOL   C13532859   6.395   5.514   5.276 -0.3604  0.3295 -0.4270
  163MOL   H13632860   6.595   5.391   5.134  0.8181  0.0944 -2.6797
  163MOL   H13732861   6.581   5.454   4.986  0.0079 -2.2992 -0.0744
  163MOL   H13832862   6.390   5.620   5.096  0.6466  0.8866  2.0110
  163MOL   H13932863   6.363   5.442   5.087 -1.8885  1.6224 -0.4053
  163MOL   H14032864   6.290   5.538   5.297 -0.1051 -0.4971  1.9640
  163MOL   H14132865   6.453   5.578   5.342 -1.4212  1.2449 -0.3533
  163MOL   O14232866   6.416   5.385   5.319 -0.3376  0.0659  0.3795
  163MOL   C14332867   6.378   5.356   5.447  0.0125  0.1891 -0.4353
  163MOL   C14432868   6.449   5.236   5.495 -0.1343 -0.3781 -0.2950
  163MOL   C14532869   6.414   5.204   5.636 -0.2593  0.6794  0.0345
  163MOL   H14632870   6.270   5.345   5.448  0.1199 -1.4407 -3.0802
  163MOL   H14732871   6.398   5.435   5.520 -0.2442 -0.1802  0.0412
  163MOL   H14832872   6.428   5.147   5.436  0.1143 -0.6573  0.0298
  163MOL   H14932873   6.552   5.267   5.481 -1.0592  4.1661  1.9992
  163MOL   H15032874   6.397   5.294   5.695 -2.6278 -0.5011  1.2322
  163MOL   H15132875   6.493   5.145   5.683 -0.4462  0.6133  0.2629
  163MOL   O15232876   6.293   5.126   5.626  0.2659 -0.3899  0.1964
  163MOL   C15332877   6.170   5.180   5.671  0.3262  0.8280  0.2604
  163MOL   C15432878   6.058   5.071   5.669  0.2168  0.0264  0.3724
  163MOL   C15532879   5.932   5.122   5.738  0.2533  0.0397  0.2276
  163MOL   H15632880   6.142   5.270   5.617  1.6243  0.9571 -0.2117
  163MOL   H15732881   6.192   5.202   5.775  1.9784  0.1392  0.0758
  163MOL   H15832882   6.041   5.050   5.564  1.8896  0.5957 -0.0142
  163MOL   H15932883   6.095   4.976   5.708 -0.4428 -0.3526  0.1045
  163MOL   H16032884   5.953   5.172   5.832 -0.6669  1.8223 -0.4872
  163MOL   H16132885   5.851   5.049   5.740  0.7018 -0.4789 -0.3183
  163MOL   O16232886   5.886   5.224   5.652 -0.1177  0.9288 -0.5325
  163MOL   C16332887   5.790   5.315   5.711  0.2848 -0.3379 -0.3745
  163MOL   C16432888   5.734   5.430   5.623  0.5541  0.7422 -0.3723
  163MOL   C16532889   5.826   5.547   5.578  0.7548 -0.3262 -0.0221
  163MOL   H16632890   5.839   5.350   5.802 -1.0672 -2.4199  1.2093
  163MOL   H16732891   5.704   5.255   5.742 -0.7833  0.8987 -0.9165
  163MOL   H16832892   5.693   5.374   5.538  1.4817 -1.6618  0.7131
  163MOL   H16932893   5.646   5.478   5.667  0.2793  1.4280 -1.6155
  163MOL   H17032894   5.926   5.504   5.568  1.9097  1.9684  1.3476
  163MOL   H17132895   5.805   5.626   5.649 -0.9783 -0.9390  0.1543
  163MOL   O17232896   5.789   5.590   5.453  0.5039 -0.2165  0.3479
  163MOL   C17332897   5.838   5.722   5.423  0.4457 -0.2271  0.0172
  163MOL   C17432898   5.806   5.774   5.284  0.6014 -0.3269 -0.0812
  163MOL   C17532899   5.861   5.678   5.172 -0.3694  0.5951  0.0868
  163MOL   H17632900   5.944   5.739   5.441  0.0441  1.1974  1.1438
  163MOL   H17732901   5.791   5.785   5.499  0.2484  1.2722 -1.3193
  163MOL   H17832902   5.697   5.785   5.284  0.8872  2.8639  0.0063
  163MOL   H17932903   5.842   5.877   5.279 -0.1478 -0.0775 -0.4527
  163MOL   H18032904   5.852   5.571   5.190  1.5799  0.2612 -0.9091
  163MOL   H18132905   5.967   5.702   5.165 -0.5282  1.7451  1.3307
  163MOL   O18232906   5.803   5.727   5.053 -0.1543  0.0890  0.5590
  163MOL   C18332907   5.671   5.688   5.038 -0.4193  0.7287 -0.3818
  163MOL   C18432908   5.618   5.740   4.907 -0.3212 -0.6004 -0.2084
  163MOL   C18532909   5.635   5.893   4.897  0.4745  0.1657  0.6085
  163MOL   H18632910   5.601   5.730   5.110 -1.6724 -0.6370 -0.7747
  163MOL   H18732911   5.659   5.580   5.044 -0.6327  0.5312 -3.3274
  163MOL   H18832912   5.669   5.699   4.820 -1.7516 -1.1494 -0.7901
  163MOL   H18932913   5.512   5.716   4.915 -0.3140  0.1312  3.1861
  163MOL   H19032914   5.737   5.920   4.868 -0.2830  1.5374 -0.8833
  163MOL   H19132915   5.608   5.956   4.982 -2.9876 -0.2317 -0.0974
  163MOL   O19232916   5.566   5.941   4.783 -0.3083  0.3460 -0.2917
  163MOL   C19332917   5.550   6.085   4.773  1.4030  0.9197  0.0740
  163MOL   C19432918   5.465   6.122   4.654  0.4658 -1.1223 -0.1200
  163MOL   C19532919   5.534   6.092   4.523 -0.3049  0.7329 -0.3856
  163MOL   H19632920   5.645   6.139   4.767  1.1057  1.2399 -2.2581
  163MOL   H19732921   5.504   6.115   4.867  0.5733 -0.7043  0.2022
  163MOL   H19832922   5.373   6.064   4.653 -0.2960  0.0703 -0.4094
  163MOL   H19932923   5.445   6.228   4.664 -3.9929 -1.8386 -0.7256
  163MOL   H20032924   5.462   6.086   4.441 -2.9909 -0.0962  1.9242
  163MOL   H20132925   5.573   5.991   4.534  0.1360  0.9466 -0.0125
  163MOL   H20232926   5.615   6.160   4.498 -0.7953  1.8728  1.0529
  164MOL     O132927   6.337   1.762   1.968 -0.2281  0.4866  0.0429
  164MOL     C232928   6.395   1.636   1.995  0.2121  0.1945 -0.0871
  164MOL     C332929   6.303   1.552   2.078 -0.8613 -0.3593 -0.8547
  164MOL     C432930   6.358   1.411   2.132  0.2390 -0.7354 -0.0899
  164MOL     H532931   6.489   1.659   2.048 -0.0743  1.8169 -0.2436
  164MOL     H632932   6.419   1.580   1.905 -3.2931  2.5386 -2.6294
  164MOL     H732933   6.244   1.604   2.153 -0.1063 -1.0789  0.2420
  164MOL     H832934   6.221   1.527   2.010 -1.1515  1.2628 -1.1177
  164MOL     H932935   6.419   1.430   2.220 -0.0376 -1.6723  0.3145
  164MOL    H1032936   6.432   1.368   2.064  1.1015  0.7293 -0.0871
  164MOL    H1132937   6.392   1.823   1.922 -0.4316  0.7283  0.1212
  164MOL    O1232938   6.259   1.309   2.160 -0.6388  0.5034 -0.6200
  164MOL    C1332939   6.294   1.215   2.264 -0.7802  0.3781  0.1011
  164MOL    C1432940   6.200   1.094   2.265 -0.0947  0.1983 -0.4740
  164MOL    C1532941   6.223   1.005   2.383 -0.4347  0.2506  0.7194
  164MOL    H1632942   6.294   1.259   2.364 -1.8175 -2.2055  1.2848
  164MOL    H1732943   6.399   1.186   2.256 -0.3706  1.3572  1.5733
  164MOL    H1832944   6.098   1.132   2.277  0.4217  0.5437  3.6265
  164MOL    H1932945   6.188   1.028   2.180  2.3796 -1.7345  0.6056
  164MOL    H2032946   6.219   1.062   2.476  0.9908 -2.5080  2.5434
  164MOL    H2132947   6.322   0.961   2.374 -0.7392 -0.6278  1.6523
  164MOL    O2232948   6.114   0.908   2.385 -0.0850 -0.4982 -0.0414
  164MOL    C2332949   6.122   0.825   2.495 -0.5251 -0.5135  0.0639
  164MOL    C2432950   5.995   0.744   2.506  0.1711  0.2426  0.4864
  164MOL    C2532951   6.021   0.641   2.622  0.2500 -0.1265 -0.4106
  164MOL    H2632952   6.123   0.884   2.587  0.3325  0.0420 -0.2898
  164MOL    H2732953   6.209   0.759   2.504  0.8107  1.1717 -0.0804
  164MOL    H2832954   5.910   0.806   2.535  0.7391  0.5427  1.5191
  164MOL    H2932955   5.975   0.713   2.404  0.4340 -0.9278  0.7813
  164MOL    H3032956   6.073   0.680   2.709 -0.8010 -1.2130  0.7238
  164MOL    H3132957   6.091   0.567   2.582  0.5893  0.2494 -0.5109
  164MOL    O3232958   5.912   0.569   2.678  0.3680 -0.1217 -0.1530
  164MOL    C3332959   5.829   0.493   2.589  0.1504 -0.1989 -0.1772
  164MOL    C3432960   5.831   0.345   2.625 -0.3887  0.2519  0.3837
  164MOL    C3532961   5.789   0.250   2.518 -0.1982 -0.0584  0.0572
  164MOL    H3632962   5.858   0.505   2.485 -0.7171 -1.6207 -0.5985
  164MOL    H3732963   5.723   0.520   2.591  0.4814  1.1303 -0.5886
  164MOL    H3832964   5.936   0.325   2.648  0.1242  3.6181  1.1680
  164MOL    H3932965   5.775   0.324   2.716  1.0285  0.0650  1.2204
  164MOL    H4032966   5.692   0.281   2.477 -0.2430  0.1920  0.3532
  164MOL    H4132967   5.776   0.155   2.571  1.1988 -1.6616 -2.3291
  164MOL    O4232968   5.873   0.233   2.405  0.0731 -0.6052 -0.1624
  164MOL    C4332969   5.839   0.128   2.319  0.1604 -0.3079 -0.1006
  164MOL    C4432970   5.940   0.118   2.210 -1.0427 -0.1108 -0.4031
  164MOL    C4532971   5.883   0.044   2.089 -0.4383  0.2281  0.5185
  164MOL    H4632972   5.746   0.159   2.272  0.8759  2.7409  0.3532
  164MOL    H4732973   5.804   0.040   2.372 -0.3363 -0.4506 -0.6647
  164MOL    H4832974   5.970   0.217   2.174  0.3596 -0.4577 -0.2259
  164MOL    H4932975   6.030   0.067   2.244  0.1160  2.0988 -0.0293
  164MOL    H5032976   5.792   0.085   2.046 -1.0504  0.8370  2.3217
  164MOL    H5132977   5.855   7.730   2.115 -1.3404  0.0508 -1.0649
  164MOL    O5232978   5.978   0.031   1.984  0.2495  0.0002  0.0499
  164MOL    C5332979   5.944   7.724   1.882 -0.1419  0.0698 -0.2088
  164MOL    C5432980   6.037   7.735   1.771 -0.3349 -0.3815 -0.3566
  164MOL    C5532981   6.000   7.654   1.643 -0.0254  0.0189 -0.9418
  164MOL    H5632982   5.842   7.736   1.847 -0.7688 -0.2493  1.4413
  164MOL    H5732983   5.963   7.628   1.929  2.0084  0.9579  0.8023
  164MOL    H5832984   6.040   0.051   1.737  1.7233 -0.2453  0.1941
  164MOL    H5932985   6.140   7.721   1.801  0.2511  0.6073 -1.8380
  164MOL    H6032986   5.900   7.672   1.604 -0.0062  0.2559 -0.8864
  164MOL    H6132987   5.992   7.548   1.666 -0.8823 -0.5604 -3.6967
  164MOL    O6232988   6.101   7.680   1.553 -0.7464 -0.3107  0.0762
  164MOL    C6332989   6.151   7.557   1.501 -0.5733 -0.1957  0.2804
  164MOL    C6432990   6.232   7.591   1.376 -0.1971 -0.2803  1.2202
  164MOL    C6532991   6.288   7.485   1.286  0.0465 -0.1481  0.3919
  164MOL    H6632992   6.069   7.490   1.475  0.9618 -1.7134 -0.6865
  164MOL    H6732993   6.208   7.503   1.576 -0.5130  0.6993  0.8872
  164MOL    H6832994   6.172   7.668   1.328 -0.1233  0.7075  2.6605
  164MOL    H6932995   6.310   7.660   1.408 -0.2790  1.0697 -1.3861
  164MOL    H7032996   6.205   7.420   1.257 -1.5250  1.4224  1.2488
  164MOL    H7132997   6.364   7.427   1.338 -0.5824  0.6168  2.1953
  164MOL    O7232998   6.347   7.552   1.174  0.3371 -0.1092  0.2523
  164MOL    C7332999   6.419   7.464   1.093  0.5461 -0.4442  0.2409
  164MOL    C7433000   6.469   7.536   0.973 -0.1371 -0.5870 -1.4562
  164MOL    C7533001   6.561   7.450   0.892 -0.2678 -0.0649  0.3319
  164MOL    H7633002   6.352   7.385   1.058  1.1859 -1.4198  1.1663
  164MOL    H7733003   6.502   7.414   1.144  1.6980 -0.1939 -1.3717
  164MOL    H7833004   6.385   7.584   0.923 -0.7901 -0.1067  0.0795
  164MOL    H7933005   6.543   7.612   0.998 -0.5039 -0.1246 -1.7764
  164MOL    H8033006   6.506   7.369   0.844 -0.0438  0.9100 -1.6203
  164MOL    H8133007   6.637   7.400   0.952  1.4507  0.8582 -1.0199
  164MOL    O8233008   6.625   7.544   0.803 -0.1776  0.2723  0.3196
  164MOL    C8333009   6.694   7.471   0.698 -0.5544  0.5168 -0.3568
  164MOL    C8433010   6.775   7.573   0.620 -0.7577 -0.1186 -0.0082
  164MOL    C8533011   6.690   7.688   0.572 -0.5241  0.3561 -0.0271
  164MOL    H8633012   6.621   7.430   0.628 -0.7107  0.0268  0.0954
  164MOL    H8733013   6.747   7.385   0.738  0.2323  1.9564  1.8251
  164MOL    H8833014   6.853   7.606   0.689  2.2659 -0.1481 -3.2343
  164MOL    H8933015   6.823   7.526   0.534  0.4298  1.1723 -0.0743
  164MOL    H9033016   6.631   7.738   0.649  0.9525 -0.8753  1.9524
  164MOL    H9133017   6.619   7.639   0.506  1.7297 -0.1974 -2.0923
  164MOL    O9233018   6.771   7.776   0.496  0.3548 -0.0686 -0.1539
  164MOL    C9333019   6.702   0.112   0.460 -0.4829 -0.0264  0.2487
  164MOL    C9433020   6.793   0.210   0.399  0.3321  0.8829 -0.1011
  164MOL    C9533021   6.729   0.347   0.399 -0.6900 -0.5391  0.2644
  164MOL    H9633022   6.670   0.152   0.556 -0.6069  0.2585  0.0884
  164MOL    H9733023   6.611   0.105   0.401 -2.4936  0.0365  3.2228
  164MOL    H9833024   6.874   0.201   0.471  1.3330  0.7273 -1.2313
  164MOL    H9933025   6.818   0.169   0.301 -0.4131 -1.8419  0.7869
  164MOL   H10033026   6.722   0.387   0.500 -1.5049  0.4688 -0.1712
  164MOL   H10133027   6.627   0.356   0.361 -0.2132  0.1359 -0.8822
  164MOL   O10233028   6.812   0.437   0.325 -0.0224 -0.0038 -0.0484
  164MOL   C10333029   6.931   0.480   0.394 -0.3121 -0.4986  0.5608
  164MOL   C10433030   7.008   0.590   0.312  0.9759  0.4688 -0.1333
  164MOL   C10533031   6.962   0.738   0.336 -0.2595  0.1476  0.6323
  164MOL   H10633032   6.996   0.395   0.412 -0.4231 -0.8729 -0.7526
  164MOL   H10733033   6.899   0.513   0.493  2.0422 -2.1643  1.9355
  164MOL   H10833034   7.115   0.574   0.323  1.1187  1.5744  0.2033
  164MOL   H10933035   6.977   0.572   0.210  0.3128  0.2969  0.0956
  164MOL   H11033036   6.994   0.771   0.435  0.6339  0.0977  0.3715
  164MOL   H11133037   6.854   0.745   0.327 -0.2255  0.3152  0.3755
  164MOL   O11233038   7.032   0.824   0.251 -0.0087  0.4226  0.5018
  164MOL   C11333039   6.975   0.845   0.121 -0.5892  0.6841  0.0049
  164MOL   C11433040   7.064   0.932   0.023  0.2858  0.0151 -0.3577
  164MOL   C11533041   6.972   1.024   7.725 -0.2098  0.4417  0.0253
  164MOL   H11633042   6.882   0.899   0.134 -0.7662 -0.1422  2.3307
  164MOL   H11733043   6.949   0.748   0.078  1.8817  0.0764 -0.1739
  164MOL   H11833044   7.132   0.998   0.077 -0.8744  0.3462  0.7142
  164MOL   H11933045   7.129   0.858   7.765  2.3225  0.7034  1.3192
  164MOL   H12033046   6.924   1.087   0.011 -1.1544 -0.9576  0.6234
  164MOL   H12133047   6.880   0.973   7.696  0.4755  0.0686 -1.5597
  164MOL   O12233048   7.052   1.103   7.637  0.1992  0.5472  0.9390
  164MOL   C12333049   7.104   1.027   7.527  0.0279  0.0409  0.2600
  164MOL   C12433050   7.158   1.132   7.432  0.5806 -0.5620 -0.4092
  164MOL   C12533051   7.184   1.071   7.293  0.3690  0.8422 -0.3578
  164MOL   H12633052   7.024   0.972   7.478 -0.7187  1.4848 -0.1741
  164MOL   H12733053   7.182   0.955   7.554  0.6818  0.6079 -0.1015
  164MOL   H12833054   7.084   1.211   7.415  2.9790  1.4346 -1.7704
  164MOL   H12933055   7.247   1.177   7.475 -0.4611 -0.0592  1.3141
  164MOL   H13033056   7.102   1.012   7.253  0.6349  1.7137 -2.2496
  164MOL   H13133057   7.273   1.007   7.297  1.3605  2.1280 -1.3869
  164MOL   O13233058   7.224   1.171   7.198  0.0805  0.4933 -0.2464
  164MOL   C13333059   7.109   1.241   7.149 -0.1235  0.4649  0.3235
  164MOL   C13433060   7.151   1.351   7.050  0.4395  0.1373  0.2477
  164MOL   C13533061   7.183   1.481   7.121  0.6967 -0.4483  0.2267
  164MOL   H13633062   7.050   1.291   7.226 -0.4842 -0.4672  0.6643
  164MOL   H13733063   7.040   1.164   7.114 -0.5265  0.0842  1.9036
  164MOL   H13833064   7.240   1.309   7.001 -0.0500 -0.7584  0.1052
  164MOL   H13933065   7.065   1.376   6.989 -0.7635  0.7150  2.1411
  164MOL   H14033066   7.250   1.472   7.206  1.7253  1.0938 -0.3970
  164MOL   H14133067   7.092   1.536   7.146 -0.0086 -0.3442 -2.4174
  164MOL   O14233068   7.239   1.571   7.024 -0.6612 -0.0444 -0.5728
  164MOL   C14333069   7.262   1.695   7.085 -0.2446  0.3232 -0.0820
  164MOL   C14433070   7.366   1.771   7.006  0.1253 -0.1815  0.1633
  164MOL   C14533071   7.395   1.914   7.042  0.5863  0.5597 -0.1471
  164MOL   H14633072   7.304   1.681   7.184  2.9058  0.2357 -1.3713
  164MOL   H14733073   7.169   1.750   7.094 -0.4093  0.2213 -1.0640
  164MOL   H14833074   7.458   1.716   7.022  0.7944  0.9630  0.3318
  164MOL   H14933075   7.349   1.773   6.899  1.8886 -3.2305 -0.2173
  164MOL   H15033076   7.310   1.982   7.034  0.3633  0.0919 -1.8276
  164MOL   H15133077   7.464   1.956   6.968  1.1929 -0.2786 -0.0674
  164MOL   O15233078   7.445   1.908   7.177 -0.0796  0.7011 -0.3639
  164MOL   C15333079   7.448   2.034   7.235 -0.3203 -0.7014 -0.5640
  164MOL   C15433080   7.517   2.042   7.373  0.3250 -0.7721 -0.3334
  164MOL   C15533081   7.514   2.188   7.430 -0.4903  0.5398  0.8110
  164MOL   H15633082   7.345   2.065   7.252  0.0489 -0.7945  2.1053
  164MOL   H15733083   7.500   2.106   7.172 -0.9576  1.5536  1.4144
  164MOL   H15833084   7.478   1.973   7.447  0.2143  0.7162  1.0150
  164MOL   H15933085   7.621   2.010   7.360  0.7296  0.5521 -0.4145
  164MOL   H16033086   7.573   2.173   7.521 -1.1245  0.1176  1.1572
  164MOL   H16133087   7.418   2.228   7.461  0.0068  1.6887  0.8917
  164MOL   O16233088   7.580   2.277   7.346 -1.2322 -0.2218 -0.1690
  164MOL   C16333089   7.603   2.401   7.407  0.1087 -0.0093  0.3157
  164MOL   C16433090   7.722   2.467   7.334 -0.5717  0.0729  0.1566
  164MOL   C16533091   7.767   2.600   7.399 -0.7109  0.0680 -1.2306
  164MOL   H16633092   7.628   2.397   7.513  0.4296  0.0576  0.2419
  164MOL   H16733093   7.512   2.461   7.401  1.8227  2.3980 -3.1726
  164MOL   H16833094   0.016   2.395   7.335  0.3590  0.9728 -3.9648
  164MOL   H16933095   7.696   2.485   7.230  3.6515  0.3874 -0.9477
  164MOL   H17033096   0.025   2.583   7.496  1.1244  0.3580 -2.0421
  164MOL   H17133097   7.688   2.675   7.406 -1.0695 -0.2794 -1.5099
  164MOL   O17233098   0.080   2.646   7.307 -0.6256  0.4847  0.1990
  164MOL   C17333099   0.133   2.766   7.341 -0.0083 -0.6733  0.8872
  164MOL   C17433100   0.263   2.795   7.254  0.1411  0.2167 -0.1224
  164MOL   C17533101   0.322   2.933   7.277 -0.6619 -0.1388  0.4195
  164MOL   H17633102   0.169   2.768   7.444 -0.2591  0.7614  0.9488
  164MOL   H17733103   0.058   2.844   7.331  0.2397 -0.6284 -0.7922
  164MOL   H17833104   0.336   2.721   7.283 -0.3410  0.5564  2.0164
  164MOL   H17933105   0.246   2.784   7.146 -3.2038 -1.2724  0.4863
  164MOL   H18033106   0.359   2.947   7.378 -2.3921 -0.6932  1.1495
  164MOL   H18133107   0.249   3.012   7.258  0.5351  0.7998 -0.3606
  164MOL   O18233108   0.423   2.954   7.182 -0.1701 -0.7674  0.2593
  164MOL   C18333109   0.487   3.085   7.195 -0.2193  0.1863  0.2505
  164MOL   C18433110   0.454   3.179   7.075 -0.1501 -0.2049 -0.5777
  164MOL   C18533111   0.560   3.291   7.065  0.3240  0.1034 -0.5826
  164MOL   H18633112   0.593   3.061   7.194 -0.5228 -1.2775  1.6462
  164MOL   H18733113   0.475   3.135   7.291  0.2108 -0.1163  0.4616
  164MOL   H18833114   0.437   3.127   6.981 -0.7068 -0.8390 -0.1309
  164MOL   H18933115   0.354   3.220   7.091 -0.0177  0.2837 -1.0138
  164MOL   H19033116   0.574   3.311   6.958 -0.8807 -0.7745 -0.9104
  164MOL   H19133117   0.659   3.267   7.103  0.1374  0.3055  0.0412
  164MOL   O19233118   0.507   3.406   7.132  0.0502  0.1671  0.2508
  164MOL   C19333119   0.596   3.515   7.146  0.2085 -0.7499  0.3172
  164MOL   C19433120   0.607   3.601   7.015 -0.1814  0.8630  0.4978
  164MOL   C19533121   0.477   3.683   6.980 -0.7280  0.2941 -0.2389
  164MOL   H19633122   0.694   3.473   7.168 -0.5876 -0.8018  4.1374
  164MOL   H19733123   0.563   3.584   7.224  2.3184  0.4375  0.1827
  164MOL   H19833124   0.680   3.682   7.022 -0.4174  1.3263 -1.8962
  164MOL   H19933125   0.643   3.545   6.928 -1.1798 -1.3845  1.4938
  164MOL   H20033126   0.383   3.632   7.001 -3.0622  4.1016 -0.9033
  164MOL   H20133127   0.488   3.710   6.875  0.3838 -0.1698 -0.2455
  164MOL   H20233128   0.474   3.779   7.032  0.1273  0.2830 -0.1567
  165MOL     O133129   1.053   7.274   3.686 -0.5862 -0.0210 -0.2671
  165MOL     C233130   1.129   7.298   3.801 -0.4493  0.5286  0.4381
  165MOL     C333131   1.275   7.341   3.763  0.6390  0.1958 -0.4828
  165MOL     C433132   1.371   7.344   3.886  0.2004  0.2691 -0.2579
  165MOL     H533133   1.109   7.216   3.870  1.4851  0.1274  0.5633
  165MOL     H633134   1.078   7.377   3.856  0.6465  1.1911  0.5309
  165MOL     H733135   1.316   7.274   3.687  0.0236 -0.9120  0.1400
  165MOL     H833136   1.283   7.440   3.719  3.9958  1.3273  2.4379
  165MOL     H933137   1.346   7.426   3.953  0.9097  0.6179 -0.4155
  165MOL    H1033138   1.465   7.366   3.836  0.7062  3.5104  1.9961
  165MOL    H1133139   0.964   7.254   3.709  0.3384 -2.2678  1.6388
  165MOL    O1233140   1.385   7.216   3.942  0.1219  0.1178  0.5510
  165MOL    C1333141   1.507   7.197   4.015  0.9488  0.8241  0.5643
  165MOL    C1433142   1.474   7.062   4.089  0.4621 -0.0035  0.6064
  165MOL    C1533143   1.367   7.080   4.197 -0.4248  0.0113 -0.2814
  165MOL    H1633144   1.519   7.283   4.081  0.7106  2.5503 -1.5853
  165MOL    H1733145   1.592   7.193   3.947  1.2628  1.3429  0.9208
  165MOL    H1833146   1.453   6.991   4.009 -1.0809  2.4703 -1.2351
  165MOL    H1933147   1.565   7.039   4.145 -0.6053 -0.5937  2.1040
  165MOL    H2033148   1.274   7.107   4.147 -0.1750  1.6752  0.1113
  165MOL    H2133149   1.404   7.163   4.257 -1.3096  1.2123 -1.3679
  165MOL    O2233150   1.361   6.954   4.270 -0.6717 -0.6427 -0.4482
  165MOL    C2333151   1.265   6.972   4.370 -0.5604  0.1690 -0.3900
  165MOL    C2433152   1.118   6.942   4.316 -1.0417  0.0697  0.1151
  165MOL    C2533153   1.012   6.935   4.423 -0.1171  0.7653 -0.3909
  165MOL    H2633154   1.280   7.063   4.427 -0.1962  1.7106 -2.8724
  165MOL    H2733155   1.288   6.892   4.441 -0.0953  1.4957  0.9731
  165MOL    H2833156   1.090   7.031   4.259  1.2413  0.9898  0.3720
  165MOL    H2933157   1.119   6.858   4.246  2.9365 -0.2474  0.4370
  165MOL    H3033158   1.021   6.837   4.471  1.6519  0.2932 -1.6296
  165MOL    H3133159   0.908   6.943   4.394  0.4783  0.6746 -2.6170
  165MOL    O3233160   1.035   7.055   4.508  0.0809 -0.0618  0.0145
  165MOL    C3333161   0.931   7.052   4.606  0.1254 -0.1142 -0.3415
  165MOL    C3433162   0.979   7.131   4.730 -0.3050  0.3198  0.7418
  165MOL    C3533163   0.859   7.192   4.795 -0.2225  0.7337 -0.5344
  165MOL    H3633164   0.902   6.956   4.648  0.5073 -0.5784 -1.1342
  165MOL    H3733165   0.848   7.107   4.561  2.3005  0.7756 -3.4266
  165MOL    H3833166   1.041   7.066   4.792  0.1389 -1.8180 -1.8604
  165MOL    H3933167   1.036   7.216   4.689 -1.5293 -0.3808 -2.5554
  165MOL    H4033168   0.797   7.110   4.831 -0.3513  1.3356  0.6382
  165MOL    H4133169   0.799   7.260   4.735  0.2465  1.1574 -0.5246
  165MOL    O4233170   0.892   7.253   4.916 -0.3767 -0.1849 -0.5381
  165MOL    C4333171   0.787   7.318   4.976 -0.0756 -0.2506  0.5368
  165MOL    C4433172   0.854   7.371   5.105 -0.1899  0.2381 -0.0868
  165MOL    C4533173   0.772   7.483   5.169 -0.2376 -0.5468  0.0971
  165MOL    H4633174   0.709   7.251   5.012  1.1154 -2.1767 -0.4220
  165MOL    H4733175   0.739   7.390   4.909 -1.2173 -2.8446 -1.5085
  165MOL    H4833176   0.865   7.293   5.180  0.3677 -2.3402 -2.7438
  165MOL    H4933177   0.940   7.426   5.066  0.4470 -0.2270  0.6349
  165MOL    H5033178   0.681   7.437   5.206 -0.3696  0.5357  1.1591
  165MOL    H5133179   0.737   7.563   5.104  1.7669  0.8666  0.7216
  165MOL    O5233180   0.838   7.535   5.281  0.2420  0.8499 -0.2187
  165MOL    C5333181   0.748   7.598   5.371 -0.5290  0.2865  0.2410
  165MOL    C5433182   0.832   7.660   5.484  0.3117  0.0391 -0.0788
  165MOL    C5533183   0.749   7.736   5.590  0.1063 -0.2083  0.4035
  165MOL    H5633184   0.674   7.536   5.420 -1.3355  0.0556 -1.2168
  165MOL    H5733185   0.691   7.668   5.310 -0.1894 -0.4713 -0.9801
  165MOL    H5833186   0.897   7.586   5.532  1.5592  1.0618 -0.1790
  165MOL    H5933187   0.921   7.714   5.453  2.5802 -2.7620  1.2902
  165MOL    H6033188   0.703   7.669   5.662 -0.4257 -1.5234 -1.1398
  165MOL    H6133189   0.672   0.012   5.547 -0.5322 -1.7418 -0.7643
  165MOL    O6233190   0.830   0.031   5.675  0.3184 -0.2424 -0.3164
  165MOL    C6333191   0.887   7.765   5.793  1.0095  0.0189  0.5007
  165MOL    C6433192   0.982   0.085   5.859  0.2700  0.0963  0.2022
  165MOL    C6533193   0.984   0.073   6.014 -0.0895  0.1336  0.1868
  165MOL    H6633194   0.957   7.682   5.779  0.4076 -0.4941  0.4809
  165MOL    H6733195   0.811   7.729   5.862 -0.0506  2.3530  0.5707
  165MOL    H6833196   1.080   0.099   5.814 -0.5626 -0.9527 -2.0557
  165MOL    H6933197   0.928   0.177   5.839 -1.3914 -0.6670  1.0265
  165MOL    H7033198   1.016   7.760   6.039  0.2721 -0.0395 -0.9373
  165MOL    H7133199   0.887   0.090   6.062 -0.2748 -1.1784  0.3074
  165MOL    O7233200   1.058   0.179   6.067  0.6840  0.9708  0.5447
  165MOL    C7333201   1.086   0.159   6.205  0.0731 -0.2110 -0.1407
  165MOL    C7433202   1.140   0.294   6.257  0.0714 -0.4785  0.7430
  165MOL    C7533203   1.154   0.309   6.410  0.6611  0.9063 -0.4339
  165MOL    H7633204   1.161   0.079   6.212  1.2491  0.9535  0.9315
  165MOL    H7733205   0.997   0.122   6.257  0.9338 -2.5987 -0.2665
  165MOL    H7833206   1.231   0.307   6.197 -0.2618 -0.8262  0.1602
  165MOL    H7933207   1.074   0.373   6.221  0.2458 -0.9230 -0.5990
  165MOL    H8033208   1.208   0.226   6.455 -1.2445  0.0686  0.3923
  165MOL    H8133209   1.056   0.304   6.458  1.2671  2.1531  0.9558
  165MOL    O8233210   1.193   0.437   6.446 -0.0609  0.0955  0.1413
  165MOL    C8333211   1.251   0.447   6.574 -0.2408  0.2202 -0.0385
  165MOL    C8433212   1.286   0.593   6.592  0.0877  0.4505 -0.3135
  165MOL    C8533213   1.362   0.615   6.729  0.2521 -0.4483 -0.0758
  165MOL    H8633214   1.337   0.381   6.573  1.2599  2.0902  2.3891
  165MOL    H8733215   1.179   0.416   6.650 -0.5824  1.1985  0.0470
  165MOL    H8833216   1.352   0.629   6.514  0.4486  0.1954 -0.1251
  165MOL    H8933217   1.199   0.659   6.583 -0.4085 -0.1819 -0.2232
  165MOL    H9033218   1.442   0.543   6.746  0.6431 -0.0684 -0.3233
  165MOL    H9133219   1.297   0.614   6.817 -1.5116  1.0675 -1.3219
  165MOL    O9233220   1.419   0.743   6.730 -0.0743 -0.0204  0.3112
  165MOL    C9333221   1.501   0.777   6.845 -0.3386 -0.2676 -0.5598
  165MOL    C9433222   1.565   0.918   6.830  0.2251  0.5354  0.1226
  165MOL    C9533223   1.678   0.939   6.932  0.2454 -0.8323  0.4317
  165MOL    H9633224   1.579   0.702   6.855  1.1102  1.4601  1.7217
  165MOL    H9733225   1.430   0.780   6.929  1.4650  1.2449  0.9544
  165MOL    H9833226   1.598   0.904   6.727  0.5599 -1.0052  0.4320
  165MOL    H9933227   1.487   0.993   6.847  0.3086  0.2058  2.0081
  165MOL   H10033228   1.714   1.042   6.927 -2.4001  0.1670  1.3421
  165MOL   H10133229   1.763   0.873   6.915  0.5425  0.1681 -2.1939
  165MOL   O10233230   1.616   0.905   7.058 -1.2745  0.1729  0.0931
  165MOL   C10333231   1.708   0.938   7.164  0.4566  0.0828 -0.1498
  165MOL   C10433232   1.707   1.091   7.197  0.1207  0.0674  0.2359
  165MOL   C10533233   1.671   1.117   7.349 -0.1898 -0.7928  0.3608
  165MOL   H10633234   1.808   0.897   7.150  1.2134  1.7096  0.4216
  165MOL   H10733235   1.649   0.897   7.246 -2.0867  1.4118 -1.2676
  165MOL   H10833236   1.804   1.137   7.174  0.4448 -1.0362 -0.6233
  165MOL   H10933237   1.636   1.145   7.134 -0.4248  1.6101  2.1249
  165MOL   H11033238   1.755   1.089   7.413 -0.6499 -1.3072  0.7460
  165MOL   H11133239   1.576   1.079   7.386 -0.1832  0.8544  2.1974
  165MOL   O11233240   1.663   1.262   7.358 -0.2998  0.1142  0.2373
  165MOL   C11333241   1.667   1.311   7.483  0.3682 -0.2997 -0.2909
  165MOL   C11433242   1.647   1.469   7.473 -0.2622  0.5627 -0.0165
  165MOL   C11533243   1.770   1.529   7.404 -0.2374 -0.0411  0.5554
  165MOL   H11633244   1.757   1.277   7.534 -0.9781 -1.3478  1.4884
  165MOL   H11733245   1.587   1.264   7.541  1.7914 -2.6420 -0.1621
  165MOL   H11833246   1.562   1.482   7.406 -0.0113  1.5333 -0.1525
  165MOL   H11933247   1.624   1.515   7.568  0.6159  0.1737  0.3895
  165MOL   H12033248   1.771   1.517   7.296  1.2211  2.0640  0.2930
  165MOL   H12133249   1.864   1.489   7.441  0.4797 -0.6828 -1.9086
  165MOL   O12233250   1.786   1.666   7.439 -0.4651  0.1382  0.0863
  165MOL   C12333251   1.892   1.728   7.381 -0.4754 -0.0118 -0.0696
  165MOL   C12433252   1.909   1.878   7.413  0.4634 -0.4431  0.6949
  165MOL   C12533253   1.842   1.970   7.306  0.4801  0.1782  0.4107
  165MOL   H12633254   1.872   1.718   7.274  1.5999  2.1956 -0.7071
  165MOL   H12733255   1.984   1.672   7.393 -2.0866 -2.4259  1.4715
  165MOL   H12833256   1.868   1.903   7.511 -1.1214  0.7936 -0.2648
  165MOL   H12933257   2.013   1.910   7.414  0.5411 -0.6965  0.6233
  165MOL   H13033258   1.859   2.075   7.330 -1.9131  0.8671 -0.7683
  165MOL   H13133259   1.734   1.962   7.309  0.4015  1.4076  2.1291
  165MOL   O13233260   1.921   1.948   7.190 -0.3019  0.0996  0.0434
  165MOL   C13333261   1.864   1.988   7.073  0.3633  0.5207 -0.9530
  165MOL   C13433262   1.928   1.930   6.948 -0.9862 -0.7376 -0.6504
  165MOL   C13533263   1.912   1.777   6.931 -0.0527  0.0386 -0.3819
  165MOL   H13633264   1.890   2.093   7.058  0.8181  0.1548 -2.8604
  165MOL   H13733265   1.755   1.983   7.075  0.3518  0.5308 -1.6029
  165MOL   H13833266   1.884   1.985   6.865  0.0509  0.0982 -0.6584
  165MOL   H13933267   2.031   1.966   6.955 -1.0972 -0.5787  0.1934
  165MOL   H14033268   1.964   1.724   7.010  0.0333  0.2340 -0.3066
  165MOL   H14133269   1.959   1.739   6.840  1.5311 -3.1434  1.6838
  165MOL   O14233270   1.777   1.739   6.941  0.4229  0.1464 -0.2392
  165MOL   C14333271   1.698   1.766   6.827  0.2792  0.6738 -0.2273
  165MOL   C14433272   1.554   1.791   6.879 -0.2522 -0.2398  0.5126
  165MOL   C14533273   1.447   1.797   6.775  0.0009 -0.6355  0.1863
  165MOL   H14633274   1.692   1.685   6.755 -0.7533  0.4439  0.0990
  165MOL   H14733275   1.728   1.854   6.771  1.9452 -0.4966 -1.2149
  165MOL   H14833276   1.527   1.712   6.948 -1.4627 -0.5810 -0.3475
  165MOL   H14933277   1.548   1.883   6.937 -0.7290 -0.1364  0.2976
  165MOL   H15033278   1.357   1.765   6.827  0.1582  0.0075  0.8583
  165MOL   H15133279   1.452   1.712   6.706 -1.8081  0.1189 -0.9159
  165MOL   O15233280   1.434   1.928   6.714 -0.3011 -0.3098  0.0749
  165MOL   C15333281   1.327   1.933   6.622  0.2572 -0.0953 -0.3445
  165MOL   C15433282   1.306   2.077   6.573  0.5623  0.6458  0.2248
  165MOL   C15533283   1.212   2.159   6.669 -0.1639  0.3120  0.2559
  165MOL   H15633284   1.229   1.901   6.659 -0.1071  3.0886  1.6110
  165MOL   H15733285   1.344   1.874   6.532 -0.4287 -0.1734 -0.4244
  165MOL   H15833286   1.401   2.129   6.583  0.0494  1.9565 -1.4876
  165MOL   H15933287   1.268   2.084   6.471  0.4344 -1.4053  0.0970
  165MOL   H16033288   1.261   2.155   6.767  0.2653 -1.9446 -0.0104
  165MOL   H16133289   1.112   2.118   6.681  0.0885  0.3951  3.1297
  165MOL   O16233290   1.205   2.287   6.616 -0.3003  0.1339  0.3155
  165MOL   C16333291   1.110   2.365   6.683  0.4218  0.0801  0.2569
  165MOL   C16433292   1.086   2.498   6.621 -0.0704 -0.3706  0.2235
  165MOL   C16533293   0.965   2.562   6.692  0.2018 -0.2698 -0.2939
  165MOL   H16633294   1.153   2.392   6.779 -2.3408  1.5418  1.1357
  165MOL   H16733295   1.019   2.311   6.707 -0.2495  1.3712  0.7003
  165MOL   H16833296   1.171   2.565   6.634 -0.4672  0.2586 -0.3724
  165MOL   H16933297   1.061   2.493   6.515  0.1046  1.3749  0.0833
  165MOL   H17033298   0.971   2.550   6.800 -0.8886  0.3883 -0.1542
  165MOL   H17133299   0.870   2.512   6.672 -0.9123  1.7787 -0.2704
  165MOL   O17233300   0.967   2.704   6.660  0.1925  0.1020 -0.4477
  165MOL   C17333301   0.900   2.731   6.534  0.7980  0.3817 -0.0411
  165MOL   C17433302   0.912   2.877   6.502 -0.1648  0.6110 -0.1818
  165MOL   C17533303   1.046   2.928   6.502 -0.0452 -0.1844 -0.7710
  165MOL   H17633304   0.793   2.715   6.546  0.1253  1.0070 -4.3734
  165MOL   H17733305   0.917   2.659   6.455 -1.4089  1.5315 -1.6116
  165MOL   H17833306   0.878   2.905   6.402 -0.4237 -0.3402 -0.3644
  165MOL   H17933307   0.860   2.936   6.578  0.9970  1.7004 -0.2100
  165MOL   H18033308   1.095   2.889   6.591 -1.4883 -0.3235 -0.0220
  165MOL   H18133309   1.051   3.036   6.489 -0.9113 -0.0748 -0.2687
  165MOL   O18233310   1.115   2.863   6.399 -0.2124  0.6073  0.7669
  165MOL   C18333311   1.253   2.897   6.381  0.2519 -0.2703  0.2035
  165MOL   C18433312   1.321   2.801   6.281 -0.1431  0.2075 -0.5822
  165MOL   C18533313   1.346   2.666   6.358  0.1842  0.6426 -0.4160
  165MOL   H18633314   1.300   2.905   6.479 -2.8368 -1.0273  1.7924
  165MOL   H18733315   1.243   2.998   6.342 -0.4200  0.0952  1.3219
  165MOL   H18833316   1.259   2.782   6.192  1.7731 -1.0038 -1.6969
  165MOL   H18933317   1.418   2.838   6.247  0.7642 -1.3940  0.2181
  165MOL   H19033318   1.248   2.625   6.386  1.7479 -0.5659  3.5868
  165MOL   H19133319   1.409   2.685   6.444  0.2417  1.3068 -0.6074
  165MOL   O19233320   1.411   2.578   6.267 -0.3469 -0.1723  0.1600
  165MOL   C19333321   1.421   2.447   6.330  0.0902 -0.4671  0.2698
  165MOL   C19433322   1.527   2.360   6.254  0.4377  0.0154 -0.1656
  165MOL   C19533323   1.524   2.203   6.280 -0.2966 -0.5382 -0.1815
  165MOL   H19633324   1.323   2.400   6.331 -0.3963  0.4062 -1.9227
  165MOL   H19733325   1.452   2.450   6.434  0.9336 -0.8316  0.0370
  165MOL   H19833326   1.497   2.372   6.150 -1.1604  0.3096  0.3238
  165MOL   H19933327   1.627   2.404   6.259  0.3286  0.2419  0.0738
  165MOL   H20033328   1.446   2.160   6.218 -1.8154  1.3845  0.3579
  165MOL   H20133329   1.520   2.180   6.387  0.7180 -0.8507 -0.2009
  165MOL   H20233330   1.619   2.168   6.240  0.4026  1.1137 -0.0188
  166MOL     O133331   4.906   7.098   0.918 -0.0994 -0.3480 -0.2575
  166MOL     C233332   4.900   6.965   0.971  0.7384 -0.0210  0.3573
  166MOL     C333333   4.886   6.870   0.846  0.1354  0.4607 -0.3782
  166MOL     C433334   4.747   6.874   0.778 -0.0875  0.2983  0.8309
  166MOL     H533335   4.811   6.954   1.035 -0.7400  3.6295 -0.9516
  166MOL     H633336   4.985   6.939   1.035  1.2596  1.1260  0.1317
  166MOL     H733337   4.964   6.900   0.776 -1.2909  1.2909 -1.6439
  166MOL     H833338   4.898   6.766   0.876  1.4658  1.2317  1.8636
  166MOL     H933339   4.661   6.842   0.837 -1.1828  1.4380 -0.1095
  166MOL    H1033340   4.756   6.802   0.696 -0.3884  1.6663 -0.4325
  166MOL    H1133341   4.832   7.099   0.858  0.4331  0.1009 -0.9123
  166MOL    O1233342   4.730   7.008   0.731  0.3585 -0.2333 -0.2484
  166MOL    C1333343   4.635   7.021   0.628  0.0899 -0.3441 -0.1657
  166MOL    C1433344   4.567   7.163   0.634  0.0312  0.4625 -0.5640
  166MOL    C1533345   4.649   7.287   0.589  0.1035 -0.4939 -0.1465
  166MOL    H1633346   4.571   6.933   0.633 -1.3757  0.6304 -1.3668
  166MOL    H1733347   4.692   7.004   0.537  0.0789  1.8309 -0.6056
  166MOL    H1833348   4.484   7.164   0.564 -2.1621  0.9418  1.9762
  166MOL    H1933349   4.529   7.181   0.735  0.5037 -0.2316 -0.2571
  166MOL    H2033350   4.698   7.280   0.492  0.7325 -2.8866  0.3144
  166MOL    H2133351   4.739   7.283   0.651  0.4203 -1.0161 -0.6271
  166MOL    O2233352   4.576   7.407   0.609  0.0110 -0.2312  0.3722
  166MOL    C2333353   4.624   7.529   0.542  0.1131 -0.3719 -0.5168
  166MOL    C2433354   4.537   7.648   0.595 -0.1142  0.2419 -0.6460
  166MOL    C2533355   4.601   7.774   0.545  0.1648  0.2956 -0.8750
  166MOL    H2633356   4.618   7.521   0.433 -0.6085 -2.3376 -0.3573
  166MOL    H2733357   4.726   7.544   0.575 -0.4821 -0.5234  1.4758
  166MOL    H2833358   4.434   7.630   0.564 -0.2065 -0.2764 -0.0250
  166MOL    H2933359   4.543   7.654   0.703  0.0581 -1.5495 -0.5518
  166MOL    H3033360   4.586   7.764   0.437 -2.3078  0.6120 -0.5759
  166MOL    H3133361   4.709   7.777   0.561  0.1328  2.1572 -0.8861
  166MOL    O3233362   4.537   0.100   0.611 -0.3534  0.1519 -0.9251
  166MOL    C3333363   4.568   0.216   0.532 -0.0756 -0.1884 -0.1105
  166MOL    C3433364   4.502   0.340   0.598  0.1630  0.2925  0.3600
  166MOL    C3533365   4.551   0.469   0.545 -0.3049 -0.2595 -0.5804
  166MOL    H3633366   4.525   0.191   0.435 -0.8302 -5.3383  1.3980
  166MOL    H3733367   4.677   0.228   0.532 -0.0716 -0.2213  0.3234
  166MOL    H3833368   4.393   0.342   0.588  0.2050  0.9561  0.0094
  166MOL    H3933369   4.538   0.323   0.700  0.6229 -0.6466  0.0513
  166MOL    H4033370   4.660   0.467   0.552 -0.1581  1.5594 -2.0059
  166MOL    H4133371   4.516   0.544   0.615 -1.5731 -1.6606  0.2976
  166MOL    O4233372   4.519   0.491   0.408 -0.0396  0.1342 -0.7065
  166MOL    C4333373   4.532   0.629   0.373 -0.2597 -0.3959  0.5164
  166MOL    C4433374   4.401   0.709   0.377  0.4685  0.2891 -0.2282
  166MOL    C4533375   4.421   0.857   0.351  0.5222  0.0035  0.0365
  166MOL    H4633376   4.560   0.624   0.268 -1.2452 -0.7961  0.2644
  166MOL    H4733377   4.604   0.683   0.433  0.4501 -1.1323  0.3295
  166MOL    H4833378   4.321   0.670   0.315 -1.5029 -0.3090  2.5763
  166MOL    H4933379   4.358   0.705   0.477  1.2789 -0.7295  0.0958
  166MOL    H5033380   4.485   0.894   0.430  0.8103 -2.2450  0.9035
  166MOL    H5133381   4.325   0.909   0.343  0.6341  0.6823  2.5949
  166MOL    O5233382   4.499   0.871   0.229 -0.1248 -0.3128  0.0793
  166MOL    C5333383   4.542   1.001   0.184  0.4937  0.0567 -0.0233
  166MOL    C5433384   4.618   0.994   0.051  0.0623 -0.3619  0.5334
  166MOL    C5533385   4.763   0.977   0.076  0.1623  1.0912  0.1332
  166MOL    H5633386   4.593   1.051   0.266  0.0966  1.4033 -0.5771
  166MOL    H5733387   4.454   1.063   0.168  1.1831  0.9509 -0.3938
  166MOL    H5833388   4.581   0.916   7.772 -2.4037  0.9566  0.3000
  166MOL    H5933389   4.607   1.085   7.780 -1.1215  0.0242  1.3491
  166MOL    H6033390   4.778   0.892   0.142  0.5675  1.2743  0.2767
  166MOL    H6133391   4.799   1.058   0.139  2.3907  0.6001 -0.4909
  166MOL    O6233392   4.836   0.972   7.743 -0.1164  0.2363  0.3041
  166MOL    C6333393   4.970   0.939   7.751 -0.0958 -0.2597 -0.2523
  166MOL    C6433394   4.995   0.788   7.755 -0.2374  0.2725 -0.7264
  166MOL    C6533395   5.140   0.766   7.756  0.0163  0.1560  0.1856
  166MOL    H6633396   5.001   0.988   0.055  0.5151 -3.5793  1.4057
  166MOL    H6733397   5.030   0.974   7.667  1.9046  0.8859  1.5961
  166MOL    H6833398   4.959   0.745   0.060  3.2461 -1.8999 -0.2935
  166MOL    H6933399   4.943   0.732   7.678 -0.0296  0.1839 -0.8050
  166MOL    H7033400   5.192   0.817   0.049  3.1077 -2.6182  0.0911
  166MOL    H7133401   5.183   0.792   7.660 -1.1377  0.1175 -0.3422
  166MOL    O7233402   5.156   0.623   7.768  0.3456  0.0466 -0.3203
  166MOL    C7333403   5.281   0.570   0.021  0.3036  0.1416 -0.2673
  166MOL    C7433404   5.273   0.431   0.084 -0.1428 -0.8623 -0.1208
  166MOL    C7533405   5.230   0.332   7.770  0.1580 -0.6194 -0.3295
  166MOL    H7633406   5.329   0.645   0.084  2.1165  1.0491 -2.6548
  166MOL    H7733407   5.345   0.562   7.722  0.1692 -4.0934 -0.0905
  166MOL    H7833408   5.368   0.401   0.128 -1.0349 -0.2548  2.3060
  166MOL    H7933409   5.204   0.433   0.169  1.2643  2.3274  1.0271
  166MOL    H8033410   5.278   0.358   7.675  0.6497 -0.0345  0.0762
  166MOL    H8133411   5.125   0.357   7.759  0.3000 -0.4792 -1.4147
  166MOL    O8233412   5.266   0.193   0.010  0.3051 -0.2345  0.4619
  166MOL    C8333413   5.198   0.100   7.717 -0.0751  0.2121 -0.7517
  166MOL    C8433414   5.293   7.764   7.719  0.1193  0.3876  0.1298
  166MOL    C8533415   5.295   7.690   0.059 -0.3737  0.1988  0.1466
  166MOL    H8633416   5.196   0.130   7.612  0.2664  0.7920 -0.5969
  166MOL    H8733417   5.099   0.073   7.753 -0.1596  2.6621  0.9597
  166MOL    H8833418   5.265   7.695   7.639 -0.4320  0.2584  0.4367
  166MOL    H8933419   5.392   0.009   7.688  1.0405  0.5048  3.0779
  166MOL    H9033420   5.204   7.630   0.061 -0.1617 -0.1392 -0.2328
  166MOL    H9133421   5.294   7.757   0.145 -0.3605 -0.5826  0.7673
  166MOL    O9233422   5.412   7.608   0.061  0.2491 -0.3684 -0.3136
  166MOL    C9333423   5.406   7.517   0.171  0.2626 -0.3435  0.0793
  166MOL    C9433424   5.519   7.422   0.170  0.7182  0.7094 -0.2810
  166MOL    C9533425   5.497   7.290   0.244 -0.0304 -0.2884  0.1279
  166MOL    H9633426   5.307   7.471   0.160  0.8243 -1.6463  0.3597
  166MOL    H9733427   5.419   7.570   0.265  0.8429 -0.3028 -0.0235
  166MOL    H9833428   5.527   7.388   0.067 -0.1392 -3.0152  0.8177
  166MOL    H9933429   5.616   7.468   0.188  0.2312  2.3268 -1.6682
  166MOL   H10033430   5.447   7.314   0.337 -0.0093 -1.0639  0.3403
  166MOL   H10133431   5.588   7.229   0.247  1.2340  1.4145 -1.8687
  166MOL   O10233432   5.397   7.225   0.171 -0.0395 -0.3666  0.0491
  166MOL   C10333433   5.389   7.084   0.186  0.3719 -0.5814 -0.5446
  166MOL   C10433434   5.262   7.025   0.118 -0.4097 -0.6795 -0.3643
  166MOL   C10533435   5.285   7.038   7.755  0.1646 -0.7545 -0.4050
  166MOL   H10633436   5.374   7.066   0.293  1.1696 -1.2226 -0.5372
  166MOL   H10733437   5.483   7.046   0.146  0.7127  1.3278 -1.6016
  166MOL   H10833438   5.251   6.921   0.149 -0.4260 -1.3157 -2.4446
  166MOL   H10933439   5.181   7.095   0.138  1.0609  0.2927  2.6200
  166MOL   H11033440   5.314   7.142   7.736  0.7934 -1.0124 -0.8659
  166MOL   H11133441   5.199   7.022   7.690 -0.4377 -1.9311  0.6580
  166MOL   O11233442   5.384   6.943   7.719 -0.2048  0.5131 -0.4484
  166MOL   C11333443   5.445   6.982   7.596 -0.0283  0.6536 -0.0334
  166MOL   C11433444   5.576   7.047   7.620 -0.4019  0.6386 -0.3286
  166MOL   C11533445   5.691   6.947   7.666 -0.1864 -0.5461  0.2261
  166MOL   H11633446   5.385   7.048   7.533  0.0881  0.7634 -0.0276
  166MOL   H11733447   5.463   6.890   7.539 -0.3435  1.1326 -0.9285
  166MOL   H11833448   5.602   7.113   7.538 -1.7225  2.1766  0.4625
  166MOL   H11933449   5.555   7.128   7.690 -1.5976  0.3235 -0.3076
  166MOL   H12033450   5.728   6.898   7.576  0.5227  2.2797 -1.0613
  166MOL   H12133451   5.651   6.874   7.738  0.4268 -0.7804  0.3300
  166MOL   O12233452   5.797   7.020   7.717  0.1638  0.1419 -0.1964
  166MOL   C12333453   5.780   7.058   0.066 -0.0252 -0.3028 -0.4250
  166MOL   C12433454   5.907   7.130   0.107 -0.1041 -0.0060 -0.0213
  166MOL   C12533455   5.938   7.142   0.255 -0.1345  0.4106  0.1487
  166MOL   H12633456   5.758   6.970   0.125  0.0775  0.9108  1.4536
  166MOL   H12733457   5.704   7.133   0.087 -1.7235 -1.3663 -2.5184
  166MOL   H12833458   5.986   7.078   0.052 -0.2748  0.4990 -0.7534
  166MOL   H12933459   5.905   7.226   0.055 -2.8486 -0.6023 -1.1331
  166MOL   H13033460   6.046   7.151   0.262 -0.1663  0.8357  0.1154
  166MOL   H13133461   5.906   7.061   0.319 -0.9962 -0.8359 -1.8225
  166MOL   O13233462   5.869   7.260   0.305 -0.6714 -0.1807 -0.1131
  166MOL   C13333463   5.890   7.284   0.443  0.0144 -0.2038 -0.3774
  166MOL   C13433464   5.793   7.393   0.488  0.3441  0.2759 -0.0908
  166MOL   C13533465   5.819   7.532   0.432  0.2597 -0.5072  0.8523
  166MOL   H13633466   5.991   7.312   0.471 -1.4212  2.5401  2.3168
  166MOL   H13733467   5.883   7.196   0.508 -1.2076  0.1183 -0.0576
  166MOL   H13833468   5.692   7.364   0.462  0.2856 -0.9093  1.3894
  166MOL   H13933469   5.795   7.400   0.597 -2.4724  0.6279 -0.0229
  166MOL   H14033470   5.837   7.535   0.324  1.4615  1.3162  1.0817
  166MOL   H14133471   5.914   7.560   0.478  1.3218 -1.3525 -0.7572
  166MOL   O14233472   5.722   7.617   0.489  0.1266  0.4691  0.4491
  166MOL   C14333473   5.693   7.727   0.409  0.2404  0.3248  0.7383
  166MOL   C14433474   5.593   0.031   0.468  0.5516 -0.2792  0.4519
  166MOL   C14533475   5.598   0.167   0.391 -0.3583 -1.2927 -0.9159
  166MOL   H14633476   5.658   7.689   0.312  1.7878 -0.8457  0.6059
  166MOL   H14733477   5.779   7.785   0.375 -0.4023  1.2767  0.7149
  166MOL   H14833478   5.500   7.767   0.447  0.5946  0.6857 -2.2793
  166MOL   H14933479   5.595   0.043   0.577  0.5468  0.4172  0.3772
  166MOL   H15033480   5.557   0.154   0.291  0.9972 -0.3426 -1.6072
  166MOL   H15133481   5.698   0.210   0.398 -1.1093  0.3838 -0.0445
  166MOL   O15233482   5.510   0.260   0.454  0.2939  0.0032  0.1565
  166MOL   C15333483   5.503   0.393   0.401  0.2824  0.3479  0.0111
  166MOL   C15433484   5.373   0.474   0.450 -0.7260  0.0820 -0.3162
  166MOL   C15533485   5.372   0.623   0.413  0.3084  0.4415  0.5397
  166MOL   H15633486   5.525   0.410   0.295 -0.9995  1.3688 -0.1008
  166MOL   H15733487   5.592   0.432   0.450  1.0347 -1.9604  0.5717
  166MOL   H15833488   5.284   0.438   0.398  0.8710 -1.4489 -2.0871
  166MOL   H15933489   5.361   0.452   0.556  0.3175 -1.9608 -0.5893
  166MOL   H16033490   5.426   0.639   0.320  0.4905 -0.5466  0.4691
  166MOL   H16133491   5.424   0.685   0.486 -1.6038  1.9137  0.7140
  166MOL   O16233492   5.244   0.675   0.401 -0.3718 -0.3738 -0.8977
  166MOL   C16333493   5.247   0.819   0.376  0.3953  1.0973 -0.2608
  166MOL   C16433494   5.106   0.873   0.369 -0.9617 -0.0554 -0.2767
  166MOL   C16533495   5.049   0.869   0.506  0.0363  0.3398 -0.6651
  166MOL   H16633496   5.306   0.843   0.287  2.0804 -1.7114  0.0310
  166MOL   H16733497   5.299   0.876   0.453 -0.8181  2.7159 -0.6064
  166MOL   H16833498   5.112   0.977   0.335 -0.4144 -0.0570 -0.1823
  166MOL   H16933499   5.049   0.819   0.294  2.7981 -4.8282  0.0952
  166MOL   H17033500   5.120   0.921   0.571  0.7335 -1.6739  0.2293
  166MOL   H17133501   5.023   0.767   0.534  2.6003  0.2954  1.8467
  166MOL   O17233502   4.926   0.951   0.507  0.0450  0.9138  0.0925
  166MOL   C17333503   4.866   0.955   0.632 -0.2716 -0.1235  0.0266
  166MOL   C17433504   4.737   0.871   0.629  0.2528 -0.2847 -0.9627
  166MOL   C17533505   4.698   0.832   0.768  0.4562  0.0616  0.4659
  166MOL   H17633506   4.839   1.058   0.656 -1.1527 -0.3583  0.0882
  166MOL   H17733507   4.942   0.916   0.699 -0.7743 -0.0251  0.6702
  166MOL   H17833508   4.668   0.931   0.570  2.1446  0.9534 -1.9612
  166MOL   H17933509   4.753   0.782   0.568  0.5978  0.0397 -1.3522
  166MOL   H18033510   4.699   0.924   0.827  0.6021  1.5711 -1.8188
  166MOL   H18133511   4.771   0.766   0.816 -1.1640 -1.2528  1.1541
  166MOL   O18233512   4.568   0.773   0.755  0.1338 -0.1921  0.8362
  166MOL   C18333513   4.496   0.758   0.872 -0.0697  0.6951 -1.1459
  166MOL   C18433514   4.560   0.643   0.960  0.5127  0.0515 -0.3159
  166MOL   C18533515   4.478   0.614   1.089 -0.1959  0.2284 -0.5924
  166MOL   H18633516   4.400   0.712   0.848 -0.3383  1.2114 -1.0603
  166MOL   H18733517   4.489   0.857   0.917 -1.0954 -0.0273  0.3348
  166MOL   H18833518   4.565   0.547   0.908  1.6868 -0.4148  0.6353
  166MOL   H18933519   4.664   0.661   0.986  0.1029  3.4483 -0.7940
  166MOL   H19033520   4.376   0.581   1.067  1.0878 -3.2742 -1.5431
  166MOL   H19133521   4.463   0.706   1.146  0.1314  0.0175 -0.1703
  166MOL   O19233522   4.543   0.515   1.168 -0.4719 -0.1346 -0.2450
  166MOL   C19333523   4.463   0.478   1.283 -0.2007  0.3440 -0.2385
  166MOL   C19433524   4.497   0.330   1.335 -0.1341 -0.2221 -0.3500
  166MOL   C19533525   4.406   0.270   1.446  0.2195  0.0269 -1.5484
  166MOL   H19633526   4.357   0.471   1.258 -0.2663 -0.8516  0.3300
  166MOL   H19733527   4.475   0.549   1.365 -1.3873 -2.1865  2.2392
  166MOL   H19833528   4.501   0.277   1.240 -1.0760  1.4605 -1.3580
  166MOL   H19933529   4.600   0.328   1.370 -1.0526 -1.3545  2.4388
  166MOL   H20033530   4.415   0.328   1.539 -0.8152  0.6556 -1.8249
  166MOL   H20133531   4.436   0.170   1.476 -1.4753  0.8208  3.3517
  166MOL   H20233532   4.300   0.285   1.427 -0.4912 -2.9807 -0.0992
  167MOL     O133533   0.021   3.818   5.823 -0.0311  0.1805  0.3429
  167MOL     C233534   0.118   3.718   5.826 -0.1516  0.5659  0.4257
  167MOL     C333535   0.145   3.661   5.686 -0.6283 -0.2680  0.2341
  167MOL     C433536   0.252   3.560   5.683 -0.1742  0.3766  0.6032
  167MOL     H533537   0.098   3.637   5.896 -1.1070  1.3743  1.1063
  167MOL     H633538   0.210   3.768   5.857 -1.3123  1.8467  1.8616
  167MOL     H733539   0.051   3.612   5.661 -1.1333  0.0430  1.4718
  167MOL     H833540   0.159   3.739   5.610  2.7847 -0.3023  0.7681
  167MOL     H933541   0.250   3.504   5.589 -1.3928  0.3196  0.6556
  167MOL    H1033542   0.252   3.485   5.762 -0.4526  0.8448  1.0467
  167MOL    H1133543   0.027   3.867   5.904 -1.4135 -0.3173  0.7645
  167MOL    O1233544   0.383   3.609   5.697  0.0648  0.0477  0.1348
  167MOL    C1333545   0.433   3.684   5.587  0.3912 -0.2287  0.0948
  167MOL    C1433546   0.588   3.690   5.618 -0.9173  0.0924 -0.1849
  167MOL    C1533547   0.656   3.794   5.533 -0.2124 -0.6032 -0.2629
  167MOL    H1633548   0.377   3.777   5.578  3.0639  1.1590 -3.7682
  167MOL    H1733549   0.428   3.622   5.497  0.2596 -0.4701  0.2683
  167MOL    H1833550   0.600   3.711   5.724 -1.3478  1.5279 -0.4119
  167MOL    H1933551   0.631   3.594   5.588  0.8210  0.4042  1.2458
  167MOL    H2033552   0.591   3.881   5.522 -1.9267 -1.9713 -1.3306
  167MOL    H2133553   0.661   3.757   5.430  0.2380 -2.5055  0.4161
  167MOL    O2233554   0.787   3.828   5.570 -0.2246 -0.2402 -0.0807
  167MOL    C2333555   0.850   3.902   5.460 -0.6020  0.2043 -0.1063
  167MOL    C2433556   0.973   3.967   5.541  0.8186  0.0418  0.0153
  167MOL    C2533557   1.065   4.042   5.444 -0.3531 -0.3063  0.5230
  167MOL    H2633558   0.782   3.976   5.418 -0.2276  1.5113  1.5602
  167MOL    H2733559   0.886   3.831   5.385 -0.2053  1.8830 -1.5407
  167MOL    H2833560   0.921   4.031   5.612  0.5943 -0.1323  0.0098
  167MOL    H2933561   1.013   3.887   5.602  0.6966  0.3345  0.4851
  167MOL    H3033562   1.088   3.987   5.353 -0.9707  0.0311  0.1602
  167MOL    H3133563   1.159   4.066   5.494  1.0165 -2.5410 -0.9076
  167MOL    O3233564   0.996   4.154   5.409  0.1610 -0.2419 -0.1494
  167MOL    C3333565   1.061   4.242   5.326  0.9895  0.2144  0.6154
  167MOL    C3433566   0.952   4.345   5.294 -0.2342  0.2422  0.1573
  167MOL    C3533567   0.996   4.435   5.176 -0.0721  0.5500  0.1477
  167MOL    H3633568   1.088   4.193   5.233  2.2650 -0.2060  1.1931
  167MOL    H3733569   1.151   4.280   5.374  2.6057 -1.2523 -1.1737
  167MOL    H3833570   0.863   4.288   5.265  0.4937 -0.7712 -0.1015
  167MOL    H3933571   0.918   4.394   5.385 -0.2850 -1.6145  1.1719
  167MOL    H4033572   1.095   4.478   5.190 -0.7315  1.7522  1.2263
  167MOL    H4133573   0.929   4.516   5.148 -0.3529 -0.0528 -0.9635
  167MOL    O4233574   0.999   4.352   5.054  0.2356 -0.2508  0.0570
  167MOL    C4333575   1.083   4.413   4.963  0.6393  0.4002  0.8669
  167MOL    C4433576   1.053   4.353   4.816  0.7219 -0.3199  0.3214
  167MOL    C4533577   1.129   4.428   4.703 -0.9121 -0.2105  0.1914
  167MOL    H4633578   1.182   4.380   4.994  0.2802 -2.1175 -0.5488
  167MOL    H4733579   1.076   4.522   4.965  0.2538  0.4223 -0.8356
  167MOL    H4833580   1.072   4.246   4.818 -0.4336 -0.5674 -1.3026
  167MOL    H4933581   0.949   4.354   4.786  0.6723 -0.6769  0.4869
  167MOL    H5033582   1.236   4.430   4.722 -0.7676  1.6473 -0.7330
  167MOL    H5133583   1.097   4.532   4.698  1.4717  0.5322 -0.0910
  167MOL    O5233584   1.118   4.361   4.580  0.5433  0.4540  0.6743
  167MOL    C5333585   1.176   4.429   4.470  0.2739 -0.5679  0.4795
  167MOL    C5433586   1.149   4.355   4.338 -0.2684  0.1798 -0.0020
  167MOL    C5533587   0.994   4.354   4.315 -0.0240 -0.5619 -0.4682
  167MOL    H5633588   1.285   4.437   4.467  0.3330 -1.2533  0.6981
  167MOL    H5733589   1.138   4.530   4.458 -0.4611 -0.7269  1.4247
  167MOL    H5833590   1.212   4.401   4.262  0.5812 -1.3976 -0.2578
  167MOL    H5933591   1.168   4.248   4.339 -0.3057  0.1061 -2.9176
  167MOL    H6033592   0.966   4.458   4.297  2.3689  0.3812  1.0325
  167MOL    H6133593   0.928   4.311   4.390  0.4391  0.7347  0.7022
  167MOL    O6233594   0.978   4.286   4.192 -0.1765 -0.1549  0.4204
  167MOL    C6333595   0.857   4.319   4.127  0.3057 -0.1048  0.2288
  167MOL    C6433596   0.837   4.205   4.023  0.1729  0.6692 -0.5804
  167MOL    C6533597   0.954   4.211   3.923 -0.2642  0.0404  1.1552
  167MOL    H6633598   0.875   4.413   4.074  1.6287  0.1598  1.1350
  167MOL    H6733599   0.776   4.325   4.200 -0.1751 -1.2299 -0.2091
  167MOL    H6833600   0.824   4.111   4.076 -1.5812  1.8911  1.2673
  167MOL    H6933601   0.753   4.227   3.958 -0.0299 -0.8157 -0.8340
  167MOL    H7033602   1.037   4.193   3.990 -0.8775  1.7961  2.4263
  167MOL    H7133603   0.957   4.309   3.875  4.1647 -1.1158 -1.2057
  167MOL    O7233604   0.953   4.106   3.827 -0.2193  0.1807 -0.0789
  167MOL    C7333605   1.058   4.110   3.738 -0.3149 -0.1405  0.0446
  167MOL    C7433606   1.154   3.999   3.777  0.5910  0.1922 -0.2883
  167MOL    C7533607   1.283   4.017   3.691  0.4083  0.3731  0.3870
  167MOL    H7633608   1.103   4.208   3.730 -2.1662  0.5872 -1.7219
  167MOL    H7733609   1.010   4.083   3.644 -0.8037  1.2072 -0.1006
  167MOL    H7833610   1.192   4.008   3.878  1.5009 -1.0118 -0.5153
  167MOL    H7933611   1.121   3.899   3.751  1.0611 -0.0888  0.1959
  167MOL    H8033612   1.327   4.109   3.730 -2.1939  1.5350  0.7637
  167MOL    H8133613   1.263   4.041   3.586 -1.4980 -0.5378  0.5168
  167MOL    O8233614   1.366   3.904   3.717  0.0399  0.0059 -0.4766
  167MOL    C8333615   1.488   3.921   3.640  0.4410 -0.4383 -0.6301
  167MOL    C8433616   1.560   3.798   3.601  0.1816  0.3457  0.2592
  167MOL    C8533617   1.703   3.815   3.585  0.2484 -0.0861  0.1646
  167MOL    H8633618   1.549   3.982   3.707 -0.3207  2.0589 -2.1473
  167MOL    H8733619   1.484   3.991   3.557  0.8678  1.3448  0.8195
  167MOL    H8833620   1.548   3.719   3.674  0.1793  1.8385  1.9076
  167MOL    H8933621   1.521   3.765   3.505  0.2751 -2.6907  1.2355
  167MOL    H9033622   1.718   3.888   3.506  1.0185  1.8146  2.0059
  167MOL    H9133623   1.741   3.719   3.549 -0.4531  0.0258 -0.8926
  167MOL    O9233624   1.758   3.862   3.708  0.3656 -0.4515 -0.6395
  167MOL    C9333625   1.897   3.836   3.714  0.4528  0.0357 -0.5766
  167MOL    C9433626   1.955   3.874   3.857  1.0613  0.6188  0.8741
  167MOL    C9533627   1.970   4.019   3.899 -0.0008  0.4773 -0.5137
  167MOL    H9633628   1.950   3.893   3.638  0.4677  1.2451  0.3194
  167MOL    H9733629   1.928   3.732   3.699  0.5737 -0.3637  2.1080
  167MOL    H9833630   1.894   3.815   3.925  1.9505 -2.2561 -0.7207
  167MOL    H9933631   2.048   3.817   3.866 -0.1694 -1.6327 -0.2118
  167MOL   H10033632   2.003   4.086   3.820 -0.2901  0.4111 -0.6917
  167MOL   H10133633   2.047   4.018   3.976 -1.9073  0.5370  1.4117
  167MOL   O10233634   1.854   4.065   3.969 -0.5322 -0.1389 -0.5346
  167MOL   C10333635   1.866   4.200   4.014 -0.8556 -0.5463  0.4305
  167MOL   C10433636   1.744   4.239   4.097 -0.6248  0.6806 -0.1428
  167MOL   C10533637   1.620   4.254   4.011 -0.2185 -0.5924  0.3935
  167MOL   H10633638   1.883   4.260   3.924  1.6241 -1.8455 -0.0120
  167MOL   H10733639   1.957   4.206   4.074  0.9531  2.0125 -2.4067
  167MOL   H10833640   1.729   4.167   4.177 -0.7746 -1.9183 -2.4379
  167MOL   H10933641   1.762   4.340   4.135 -0.5161  0.0574  1.4690
  167MOL   H11033642   1.614   4.164   3.951 -0.0433 -1.9190  2.3281
  167MOL   H11133643   1.628   4.343   3.949 -0.1326 -1.1366 -0.3829
  167MOL   O11233644   1.512   4.274   4.103  0.2478 -0.2979 -0.0303
  167MOL   C11333645   1.384   4.287   4.036 -0.4909  0.0831 -0.0927
  167MOL   C11433646   1.354   4.436   4.010  0.6202 -0.0921 -0.2162
  167MOL   C11533647   1.216   4.459   3.942  0.1726  0.0596 -0.2484
  167MOL   H11633648   1.300   4.260   4.100 -0.2162  1.4968  0.8788
  167MOL   H11733649   1.371   4.233   3.942 -0.4490 -1.6728  0.8931
  167MOL   H11833650   1.351   4.500   4.099 -1.6114  1.8589 -1.6130
  167MOL   H11933651   1.434   4.476   3.948 -0.8602  0.9737 -1.4878
  167MOL   H12033652   1.131   4.471   4.010  1.1050  1.0065  0.7627
  167MOL   H12133653   1.188   4.371   3.885 -0.9375  1.0485 -1.2742
  167MOL   O12233654   1.223   4.574   3.857  0.6019  0.2849  0.1893
  167MOL   C12333655   1.152   4.565   3.736 -0.2751  0.0032 -0.0045
  167MOL   C12433656   1.207   4.679   3.647 -0.5003 -0.0227  0.0809
  167MOL   C12533657   1.130   4.687   3.514  0.0451  0.5109 -0.1529
  167MOL   H12633658   1.043   4.571   3.748 -0.3001  0.0554 -0.2714
  167MOL   H12733659   1.159   4.468   3.687  0.6515 -0.7961  1.6634
  167MOL   H12833660   1.200   4.772   3.705  0.5561 -0.5284  1.0267
  167MOL   H12933661   1.314   4.663   3.632 -0.8461 -0.9627 -1.4855
  167MOL   H13033662   1.024   4.696   3.540  0.8535  1.3006  3.0893
  167MOL   H13133663   1.139   4.603   3.446  1.0263  1.0547 -0.7048
  167MOL   O13233664   1.178   4.799   3.435 -0.6803  0.5063 -0.1936
  167MOL   C13333665   1.115   4.808   3.311  1.6368 -0.0623 -0.7346
  167MOL   C13433666   1.134   4.941   3.237  0.5727  0.5831  0.2646
  167MOL   C13533667   1.079   4.948   3.091 -0.2564 -0.8207  0.3913
  167MOL   H13633668   1.007   4.821   3.325  1.5244 -0.6215 -1.0815
  167MOL   H13733669   1.131   4.721   3.248 -0.6790 -0.1025 -1.3103
  167MOL   H13833670   1.088   5.025   3.289 -2.4500 -0.5125 -0.5685
  167MOL   H13933671   1.240   4.965   3.241  0.6185  0.5664 -0.8369
  167MOL   H14033672   0.972   4.926   3.084 -0.2630 -1.1301  1.4303
  167MOL   H14133673   1.133   4.874   3.032 -0.4293 -0.3323 -0.3920
  167MOL   O14233674   1.099   5.080   3.046  0.0256  0.3771  0.2312
  167MOL   C14333675   1.116   5.115   2.909  0.0226  0.5611  0.3198
  167MOL   C14433676   1.141   5.263   2.896  0.2460 -0.6768 -0.2682
  167MOL   C14533677   1.153   5.310   2.755 -0.8115 -0.0966 -0.2191
  167MOL   H14633678   1.027   5.092   2.852 -0.1475 -0.5422  1.0243
  167MOL   H14733679   1.199   5.060   2.864  1.2458  1.6949  1.1272
  167MOL   H14833680   1.056   5.318   2.936 -0.2183 -2.2643  0.9626
  167MOL   H14933681   1.233   5.271   2.954 -0.2175 -3.2192  0.8649
  167MOL   H15033682   1.170   5.418   2.762  4.3228 -0.7000 -1.0944
  167MOL   H15133683   1.056   5.295   2.707 -0.2342  0.6771 -1.6936
  167MOL   O15233684   1.278   5.259   2.702  0.8754 -0.5393 -0.0278
  167MOL   C15333685   1.295   5.291   2.566 -0.7809  0.4737  1.0477
  167MOL   C15433686   1.423   5.221   2.510 -0.0176 -0.4385  0.8444
  167MOL   C15533687   1.449   5.239   2.359 -0.0046 -0.8486  0.7856
  167MOL   H15633688   1.293   5.399   2.556 -0.5534  0.3935  0.0723
  167MOL   H15733689   1.209   5.246   2.516  2.1522 -1.8016 -2.2508
  167MOL   H15833690   1.503   5.265   2.569 -0.7982 -0.6721  2.0818
  167MOL   H15933691   1.413   5.115   2.533  1.3494 -0.4370  1.5130
  167MOL   H16033692   1.482   5.341   2.341  0.1693 -1.2597 -1.2860
  167MOL   H16133693   1.360   5.221   2.299 -0.3318  3.2002 -0.1381
  167MOL   O16233694   1.544   5.142   2.329 -0.7246  0.0902 -0.1904
  167MOL   C16333695   1.569   5.111   2.191  0.9514 -0.0021  0.4147
  167MOL   C16433696   1.462   5.015   2.134 -0.7825 -0.0850  0.6383
  167MOL   C16533697   1.488   4.875   2.187 -0.1504  0.0349  0.2867
  167MOL   H16633698   1.669   5.069   2.181  1.3756  0.7805  1.3043
  167MOL   H16733699   1.569   5.195   2.122  0.7130 -2.0833 -2.1810
  167MOL   H16833700   1.356   5.036   2.150 -1.3350 -1.5256 -0.9973
  167MOL   H16933701   1.472   5.002   2.027  0.9992  2.4504  0.4724
  167MOL   H17033702   1.485   4.860   2.295  0.4137  0.0972  0.3084
  167MOL   H17133703   1.587   4.848   2.152 -0.5947 -1.1223 -0.1185
  167MOL   O17233704   1.388   4.791   2.133 -0.0958 -0.4194  0.4429
  167MOL   C17333705   1.411   4.655   2.167 -0.9625  0.5660 -0.1684
  167MOL   C17433706   1.312   4.559   2.102 -0.1134 -0.0497  0.2255
  167MOL   C17533707   1.330   4.411   2.144 -0.4375 -0.2305 -0.2276
  167MOL   H17633708   1.404   4.628   2.272 -2.8880 -0.4324 -0.5257
  167MOL   H17733709   1.505   4.619   2.126 -0.1339  1.9469  0.4999
  167MOL   H17833710   1.209   4.592   2.120  0.5753  2.0038  0.4684
  167MOL   H17933711   1.325   4.563   1.994  4.4714  0.1838  0.7137
  167MOL   H18033712   1.314   4.382   2.248  0.3643 -0.5474 -0.1954
  167MOL   H18133713   1.436   4.399   2.122 -0.6023  1.8312 -2.3068
  167MOL   O18233714   1.257   4.323   2.058  0.6904  0.0021  0.5520
  167MOL   C18333715   1.116   4.328   2.079 -0.4629 -0.8830 -0.1802
  167MOL   C18433716   1.062   4.227   1.975  0.1404  0.0649 -0.1574
  167MOL   C18533717   0.916   4.194   1.984 -0.1362  0.1581  0.5127
  167MOL   H18633718   1.074   4.428   2.070  1.8171  0.2443  1.3365
  167MOL   H18733719   1.093   4.304   2.183 -0.5600  1.4937  0.3741
  167MOL   H18833720   1.073   4.266   1.873  0.2024 -1.3420 -0.6909
  167MOL   H18933721   1.118   4.135   1.966 -0.6269 -0.1183 -4.0149
  167MOL   H19033722   0.851   4.278   1.961 -1.7126 -0.9073  1.0281
  167MOL   H19133723   0.883   4.171   2.085 -1.7657  1.4764  0.3002
  167MOL   O19233724   0.880   4.076   1.912 -0.3548 -0.1123 -0.3355
  167MOL   C19333725   0.744   4.050   1.912 -0.8626  0.4993 -0.7711
  167MOL   C19433726   0.710   3.915   1.849  0.5582  0.6070  0.4151
  167MOL   C19533727   0.754   3.898   1.708 -0.1312 -1.3471  0.1269
  167MOL   H19633728   0.686   4.126   1.860 -0.5194 -0.2354 -2.2328
  167MOL   H19733729   0.718   4.035   2.017  1.6345  0.6273 -0.0977
  167MOL   H19833730   0.748   3.833   1.910  0.9042  1.6149  1.5825
  167MOL   H19933731   0.601   3.910   1.844  0.7005 -2.4204 -0.4722
  167MOL   H20033732   0.708   3.970   1.640  2.2082 -0.0007 -0.0952
  167MOL   H20133733   0.745   3.798   1.667 -1.0623 -1.0957 -0.2943
  167MOL   H20233734   0.861   3.921   1.710  0.0384 -2.2215  1.1946
  168MOL     O133735   0.793   2.020   3.830  0.1605 -0.2845 -0.1674
  168MOL     C233736   0.760   2.142   3.896 -0.2082  0.0480 -0.6762
  168MOL     C333737   0.824   2.258   3.802  0.1598  0.2910 -0.1980
  168MOL     C433738   0.788   2.397   3.847  0.2432  0.1136 -0.3335
  168MOL     H533739   0.802   2.149   3.997  0.1444 -0.6451 -0.7744
  168MOL     H633740   0.653   2.146   3.914  0.1772 -0.0398  1.8158
  168MOL     H733741   0.932   2.243   3.802  0.1178 -0.1287 -1.5362
  168MOL     H833742   0.774   2.247   3.705 -0.6761  1.5268  0.0773
  168MOL     H933743   0.839   2.414   3.942  1.0322 -2.2318 -0.2864
  168MOL    H1033744   0.680   2.404   3.863  0.3925 -0.5294  1.0877
  168MOL    H1133745   0.792   1.949   3.892  1.3262  0.0701  0.2842
  168MOL    O1233746   0.841   2.490   3.756  0.1965 -0.2891  0.0834
  168MOL    C1333747   0.764   2.609   3.748  0.3999  0.1528 -0.6824
  168MOL    C1433748   0.829   2.697   3.635 -0.0416  0.0586 -0.0295
  168MOL    C1533749   0.779   2.845   3.651  0.7786  0.0882  0.0052
  168MOL    H1633750   0.784   2.661   3.842 -0.8274 -0.3572 -0.1367
  168MOL    H1733751   0.657   2.604   3.731  0.1544  1.3250  0.4551
  168MOL    H1833752   0.936   2.679   3.644 -0.3644 -1.9578 -0.0696
  168MOL    H1933753   0.806   2.655   3.538 -0.4198  1.5499 -0.6037
  168MOL    H2033754   0.807   2.874   3.752 -2.7472  0.8927  0.8019
  168MOL    H2133755   0.671   2.840   3.659  0.8223  0.3350  0.7659
  168MOL    O2233756   0.822   2.939   3.553 -0.1461  0.0365 -0.4989
  168MOL    C2333757   0.769   3.072   3.576 -0.7059  0.3049 -0.3506
  168MOL    C2433758   0.789   3.149   3.445 -0.9537 -0.0752 -0.2794
  168MOL    C2533759   0.749   3.290   3.463 -0.0351  0.2053 -0.6146
  168MOL    H2633760   0.816   3.108   3.668 -3.6072  0.5011  1.1073
  168MOL    H2733761   0.663   3.063   3.600 -0.0747 -0.9757  2.1723
  168MOL    H2833762   0.892   3.128   3.416 -1.2734  0.0197 -1.5098
  168MOL    H2933763   0.723   3.109   3.369 -0.2829  1.9126 -1.9614
  168MOL    H3033764   0.813   3.326   3.544 -2.6882  2.5974  0.4787
  168MOL    H3133765   0.650   3.301   3.508  1.1688  0.5475  2.0592
  168MOL    O3233766   0.768   3.354   3.335 -0.0695  0.1232 -0.1483
  168MOL    C3333767   0.760   3.490   3.340 -0.4618 -0.2877 -0.6177
  168MOL    C3433768   0.830   3.563   3.224  0.7035  0.2445 -0.2590
  168MOL    C3533769   0.741   3.595   3.102 -0.2464  0.2428 -0.2546
  168MOL    H3633770   0.798   3.524   3.437  1.6455 -1.0656 -1.1442
  168MOL    H3733771   0.654   3.515   3.345 -0.4389 -0.3123  0.1450
  168MOL    H3833772   0.876   3.656   3.255  0.1235  0.0785  1.1173
  168MOL    H3933773   0.911   3.501   3.186 -0.7879 -1.4570 -0.7711
  168MOL    H4033774   0.652   3.652   3.126  0.4226  0.3690  2.0669
  168MOL    H4133775   0.720   3.499   3.054 -1.0559  1.8217 -3.1214
  168MOL    O4233776   0.848   3.662   3.030  0.1758  0.1178 -0.4013
  168MOL    C4333777   0.787   3.730   2.921 -0.0066  0.0812 -0.1132
  168MOL    C4433778   0.887   3.778   2.825  0.3466  1.3154 -1.1520
  168MOL    C4533779   0.836   3.843   2.702 -0.2224 -0.1292 -0.3113
  168MOL    H4633780   0.727   3.807   2.969  1.3357  0.8625  0.3407
  168MOL    H4733781   0.719   3.659   2.874  2.0254 -2.5753  0.7972
  168MOL    H4833782   0.959   3.839   2.880 -0.3576 -0.6155  2.0570
  168MOL    H4933783   0.950   3.694   2.795  2.5276  1.5382  2.4900
  168MOL    H5033784   0.780   3.767   2.647 -0.6389 -0.0507 -0.0053
  168MOL    H5133785   0.922   3.882   2.647  2.1487 -0.7308  2.8560
  168MOL    O5233786   0.727   3.925   2.739 -0.3067 -0.5705  0.0739
  168MOL    C5333787   0.660   3.991   2.630 -0.7241 -0.3412 -0.3907
  168MOL    C5433788   0.539   4.070   2.690 -0.2088  0.4308  0.0415
  168MOL    C5533789   0.461   4.123   2.578 -0.4185 -0.5957  0.2150
  168MOL    H5633790   0.617   3.926   2.554 -1.2883  0.6457 -0.9178
  168MOL    H5733791   0.729   4.060   2.582  0.9299 -1.8034 -0.1887
  168MOL    H5833792   0.468   4.006   2.741 -2.3092  1.9222 -0.9371
  168MOL    H5933793   0.568   4.151   2.757  2.4689  0.9829 -1.6935
  168MOL    H6033794   0.451   4.039   2.509  1.7279  0.3071 -1.2762
  168MOL    H6133795   0.504   4.196   2.510  2.0094 -0.9346  1.3408
  168MOL    O6233796   0.334   4.159   2.627  0.0272  0.4800  0.4156
  168MOL    C6333797   0.243   4.191   2.521  0.2731 -0.6921 -0.1257
  168MOL    C6433798   0.118   4.235   2.606 -0.1338  0.4683 -0.1195
  168MOL    C6533799   7.785   4.272   2.526  0.0909  0.1568 -0.4705
  168MOL    H6633800   0.234   4.091   2.479  2.0574 -1.1295  0.4902
  168MOL    H6733801   0.284   4.268   2.455  1.3337 -1.5728 -0.5107
  168MOL    H6833802   0.087   4.158   2.677 -1.2889  1.2678  0.2632
  168MOL    H6933803   0.145   4.322   2.666  0.1894 -0.2899  0.8450
  168MOL    H7033804   0.023   4.352   2.457  0.2778  2.2701  1.9853
  168MOL    H7133805   7.705   4.309   2.589  0.5068  2.8196 -1.4486
  168MOL    O7233806   7.739   4.164   2.443  0.2063  0.1124 -0.0616
  168MOL    C7333807   7.634   4.084   2.502 -0.1422 -0.6522 -0.8040
  168MOL    C7433808   7.599   3.972   2.406  0.0255 -0.6851 -0.0999
  168MOL    C7533809   7.523   3.867   2.492 -0.6811  0.9084 -0.1449
  168MOL    H7633810   7.546   4.141   2.533  0.4613  0.0245 -0.3282
  168MOL    H7733811   7.661   4.037   2.596 -0.2086  0.4736 -0.2186
  168MOL    H7833812   7.529   4.011   2.332  0.0775  0.3575  0.3962
  168MOL    H7933813   7.692   3.933   2.366  1.1600  1.6463  0.2101
  168MOL    H8033814   7.591   3.842   2.573  1.5076  0.3902 -2.0559
  168MOL    H8133815   7.489   3.787   2.426 -1.5306  0.7087  0.5394
  168MOL    O8233816   7.408   3.916   2.552 -0.1182  0.0263 -0.2084
  168MOL    C8333817   7.308   3.814   2.578 -0.2709 -0.8125  0.8342
  168MOL    C8433818   7.320   3.738   2.711 -0.2343  0.5594  0.0087
  168MOL    C8533819   7.301   3.827   2.834 -0.1056 -0.1261  0.0435
  168MOL    H8633820   7.284   3.745   2.497  2.1834  0.2035 -0.8027
  168MOL    H8733821   7.215   3.870   2.590  0.3155  0.5958 -0.9053
  168MOL    H8833822   7.247   3.656   2.712 -0.0898  0.4066 -1.0087
  168MOL    H8933823   7.413   3.682   2.722 -0.5337  0.3287  1.4166
  168MOL    H9033824   7.202   3.871   2.839 -0.0559 -0.1180  1.2114
  168MOL    H9133825   7.384   3.898   2.843 -0.6680  0.5877 -0.4338
  168MOL    O9233826   7.309   3.741   2.946  0.7507 -0.2290 -0.1465
  168MOL    C9333827   7.273   3.804   3.070  0.4941 -0.8158  0.2799
  168MOL    C9433828   7.308   3.721   3.197 -0.4267  0.0712 -0.1896
  168MOL    C9533829   7.236   3.771   3.323  0.3918  0.6049 -0.0485
  168MOL    H9633830   7.166   3.826   3.066  0.8460  0.7956 -0.4020
  168MOL    H9733831   7.311   3.906   3.078  1.1205 -1.0050 -0.2226
  168MOL    H9833832   7.271   3.621   3.178 -1.1069  0.1883  0.4914
  168MOL    H9933833   7.414   3.717   3.220 -0.5019 -0.8467  0.0187
  168MOL   H10033834   7.256   3.693   3.396 -2.9106  1.0704  1.4817
  168MOL   H10133835   7.130   3.775   3.296  0.2821 -0.6275  0.1520
  168MOL   O10233836   7.279   3.899   3.379  0.4224 -0.6616  0.9285
  168MOL   C10333837   7.193   3.925   3.492  0.4748  0.1408  0.6941
  168MOL   C10433838   7.204   4.075   3.524  0.8114  0.3232 -0.1826
  168MOL   C10533839   7.084   4.132   3.600 -0.4809  0.2898  0.2831
  168MOL   H10633840   7.208   3.866   3.582  0.3742  1.6090  1.7031
  168MOL   H10733841   7.090   3.900   3.464  0.0120  0.7803  1.7938
  168MOL   H10833842   7.296   4.075   3.583  0.8010 -3.6911 -0.0069
  168MOL   H10933843   7.213   4.145   3.441 -0.3532  0.0419 -0.5433
  168MOL   H11033844   7.062   4.074   3.690  0.2760 -1.2054 -0.4770
  168MOL   H11133845   6.986   4.120   3.554 -0.3002 -1.2763  0.2661
  168MOL   O11233846   7.114   4.267   3.640  0.5399  0.1312  0.0068
  168MOL   C11333847   7.010   4.330   3.711 -0.1238 -0.5578 -0.3109
  168MOL   C11433848   7.070   4.463   3.758  0.5945  1.0159 -0.3811
  168MOL   C11533849   6.968   4.555   3.835  0.0279  0.1122 -0.0824
  168MOL   H11633850   6.989   4.277   3.804  0.7914 -1.0514 -0.3802
  168MOL   H11733851   6.918   4.340   3.654  1.1336  1.4608 -2.0357
  168MOL   H11833852   7.155   4.448   3.824  0.1794 -0.8527 -0.2295
  168MOL   H11933853   7.098   4.512   3.665  0.6216  1.0110 -0.3755
  168MOL   H12033854   6.938   4.500   3.924  0.5201  0.4350  0.2876
  168MOL   H12133855   6.875   4.574   3.782 -1.1154  1.4695  2.3020
  168MOL   O12233856   7.032   4.679   3.867  0.0252  0.1326  0.0882
  168MOL   C12333857   6.942   4.784   3.901 -0.1492  0.4397  1.0642
  168MOL   C12433858   7.010   4.909   3.941  0.2149 -0.2177  0.3680
  168MOL   C12533859   6.921   5.031   3.962 -0.5060 -0.3157 -0.1643
  168MOL   H12633860   6.866   4.757   3.974 -2.1815 -1.0142 -1.5189
  168MOL   H12733861   6.884   4.798   3.810 -1.1319  1.5814  1.8415
  168MOL   H12833862   7.061   4.875   4.031  1.0268 -0.1821 -0.0717
  168MOL   H12933863   7.084   4.936   3.866 -0.5441  2.7512  0.6359
  168MOL   H13033864   6.847   5.008   4.039  1.8197  0.8328  2.4635
  168MOL   H13133865   6.865   5.055   3.871  0.0139  0.3914 -0.2987
  168MOL   O13233866   6.994   5.146   3.989  0.3017  0.0983  0.2564
  168MOL   C13333867   6.906   5.259   4.009  0.0962  0.2587  0.3260
  168MOL   C13433868   6.996   5.383   4.021 -0.2818 -0.0303  0.4165
  168MOL   C13533869   6.916   5.507   4.030  0.4612 -0.6406 -0.0593
  168MOL   H13633870   6.836   5.247   4.091  0.1568 -1.7182  0.1216
  168MOL   H13733871   6.824   5.268   3.938 -0.2058 -0.6622  0.5528
  168MOL   H13833872   7.058   5.378   4.111 -1.5344  1.6709  1.3861
  168MOL   H13933873   7.058   5.385   3.931  0.8380  0.9542  1.2049
  168MOL   H14033874   6.854   5.516   4.119  1.4560  0.6253  0.5314
  168MOL   H14133875   6.842   5.507   3.951 -2.5507  0.7518  2.6584
  168MOL   O14233876   7.003   5.616   4.001 -0.5531 -0.2941 -0.0180
  168MOL   C14333877   6.940   5.747   4.017 -0.3776  0.5549  0.2709
  168MOL   C14433878   7.032   5.855   3.957 -0.2179  0.3204 -0.5517
  168MOL   C14533879   7.035   5.867   3.798  0.4441 -0.1945 -0.5165
  168MOL   H14633880   6.922   5.761   4.124  2.6322  1.2582  0.7442
  168MOL   H14733881   6.844   5.753   3.966  0.7503  0.5762 -1.9046
  168MOL   H14833882   7.010   5.952   4.002  1.5879 -0.8512  3.0151
  168MOL   H14933883   7.130   5.823   3.993 -0.1213  1.0819 -0.1233
  168MOL   H15033884   6.951   5.918   3.752  1.2504  2.8655  1.2927
  168MOL   H15133885   7.018   5.765   3.763 -3.0724  0.1553 -0.0164
  168MOL   O15233886   7.161   5.916   3.754 -0.1849 -0.1993  0.3151
  168MOL   C15333887   7.198   5.891   3.621  0.1241  0.6614 -0.3839
  168MOL   C15433888   7.336   5.922   3.596 -0.8994  0.4380 -0.4343
  168MOL   C15533889   7.375   5.886   3.455  0.0067  0.1643 -0.1005
  168MOL   H15633890   7.144   5.946   3.545 -1.3748 -2.1026 -1.4075
  168MOL   H15733891   7.174   5.787   3.597  0.2396 -0.4828  4.0248
  168MOL   H15833892   7.357   6.029   3.601  1.5229 -0.0056 -0.7182
  168MOL   H15933893   7.404   5.866   3.660 -2.2692  0.9365  1.5204
  168MOL   H16033894   7.348   5.967   3.387 -0.1369  1.7143  1.7575
  168MOL   H16133895   7.327   5.795   3.419 -0.0704  0.1297  0.0901
  168MOL   O16233896   7.514   5.869   3.449  0.6233 -0.0298  0.0098
  168MOL   C16333897   7.602   5.971   3.470 -0.4078  0.0892  0.2920
  168MOL   C16433898   7.746   5.944   3.431 -0.3677 -0.6587 -0.4034
  168MOL   C16533899   0.018   5.829   3.515  0.0917 -0.4497 -0.2806
  168MOL   H16633900   7.598   6.001   3.575 -0.7139 -0.9898  0.5924
  168MOL   H16733901   7.564   6.061   3.422  0.9555  1.0535  0.9678
  168MOL   H16833902   7.748   5.914   3.326  1.0803 -2.3753  0.0777
  168MOL   H16933903   0.018   6.034   3.442  1.8962 -1.9403 -1.8256
  168MOL   H17033904   7.753   5.735   3.509 -2.3661  0.8552  0.3925
  168MOL   H17133905   0.005   5.858   3.620 -0.8440  0.4983 -0.6521
  168MOL   O17233906   0.154   5.818   3.477 -0.1538 -0.0347  0.3422
  168MOL   C17333907   0.218   5.717   3.553  0.1327 -0.5195  0.2790
  168MOL   C17433908   0.365   5.709   3.533 -0.9890  0.2143 -0.2042
  168MOL   C17533909   0.437   5.610   3.622  0.8864  0.1853  0.1541
  168MOL   H17633910   0.170   5.620   3.544 -0.8664 -0.1785  1.7764
  168MOL   H17733911   0.197   5.745   3.656  0.8474  2.8673 -0.4511
  168MOL   H17833912   0.389   5.684   3.430  2.1844  0.6280  0.3906
  168MOL   H17933913   0.417   5.804   3.546 -0.6629 -0.0242  0.2011
  168MOL   H18033914   0.402   5.626   3.724  1.8164 -0.2216  0.5494
  168MOL   H18133915   0.545   5.623   3.608  1.0409 -2.3944 -1.4343
  168MOL   O18233916   0.412   5.474   3.579 -0.2395 -0.5351 -0.0055
  168MOL   C18333917   0.498   5.389   3.648 -0.4512 -0.4856  0.1116
  168MOL   C18433918   0.470   5.251   3.596 -0.4050  0.5829 -0.0285
  168MOL   C18533919   0.534   5.143   3.691 -0.2780 -0.0649  0.0443
  168MOL   H18633920   0.485   5.394   3.756  0.6748  0.4130  0.2132
  168MOL   H18733921   0.604   5.407   3.631 -0.2585 -0.7501  1.0264
  168MOL   H18833922   0.364   5.230   3.591 -0.7348  1.4372  2.5290
  168MOL   H18933923   0.501   5.241   3.492  0.5850 -0.9965  0.4071
  168MOL   H19033924   0.505   5.039   3.676 -0.7090 -0.2722  2.1867
  168MOL   H19133925   0.503   5.163   3.794  0.7054  0.0840  0.3234
  168MOL   O19233926   0.671   5.159   3.678 -0.1250 -0.1315  0.2157
  168MOL   C19333927   0.742   5.069   3.761  0.1635 -0.6694  0.3571
  168MOL   C19433928   0.892   5.103   3.751 -0.0646  0.0040  0.1729
  168MOL   C19533929   0.946   5.100   3.608 -0.4379  0.0654 -0.6768
  168MOL   H19633930   0.717   4.970   3.723 -0.4405  0.7617 -3.1384
  168MOL   H19733931   0.702   5.063   3.862 -2.2733  0.4276 -0.5030
  168MOL   H19833932   0.912   5.206   3.781  0.9142 -0.3931  0.9217
  168MOL   H19933933   0.950   5.058   3.832  0.8248 -0.2615 -0.5897
  168MOL   H20033934   1.038   5.157   3.610 -0.8050  0.6724 -1.0872
  168MOL   H20133935   0.888   5.168   3.545 -1.3749  0.5998  0.7478
  168MOL   H20233936   0.963   5.004   3.557 -0.4985 -0.9196  1.1166
  169MOL     O133937   0.100   1.924   5.516  0.0274 -0.0816 -0.0771
  169MOL     C233938   0.226   1.991   5.502  0.2692 -0.1462 -0.5454
  169MOL     C333939   0.329   1.891   5.450  0.4388 -0.0104  0.1079
  169MOL     C433940   0.475   1.926   5.480  0.2895  0.1987  0.2773
  169MOL     H533941   0.256   2.036   5.596 -1.8232  1.0656 -0.4326
  169MOL     H633942   0.207   2.071   5.430  0.5097 -1.3815 -2.0136
  169MOL     H733943   0.304   1.787   5.474 -2.0215  0.6817  0.6463
  169MOL     H833944   0.326   1.874   5.342  1.5772  0.8616 -0.0676
  169MOL     H933945   0.480   1.926   5.589 -1.4309 -1.1417  0.3797
  169MOL    H1033946   0.499   2.025   5.442 -2.6477  1.1332  0.6842
  169MOL    H1133947   0.048   1.978   5.574  0.2579  0.6322 -0.5371
  169MOL    O1233948   0.552   1.811   5.441 -0.3940 -0.2165 -0.1963
  169MOL    C1333949   0.686   1.847   5.427 -0.6528 -0.4407 -0.5845
  169MOL    C1433950   0.774   1.728   5.386 -0.6689  0.1064 -0.9238
  169MOL    C1533951   0.920   1.774   5.354 -0.5081 -0.0135  1.2600
  169MOL    H1633952   0.726   1.882   5.522  1.1182 -1.3585 -0.9733
  169MOL    H1733953   0.705   1.931   5.360 -0.9504 -0.0898 -0.2277
  169MOL    H1833954   0.780   1.657   5.468 -1.8206  0.2826 -0.6774
  169MOL    H1933955   0.724   1.687   5.298 -1.2561  1.9891 -1.5028
  169MOL    H2033956   0.952   1.848   5.427  0.7651 -0.1119  0.8103
  169MOL    H2133957   0.904   1.831   5.262 -1.1723 -0.5309  1.0469
  169MOL    O2233958   1.011   1.668   5.340 -0.2068  0.2274 -0.1373
  169MOL    C2333959   1.137   1.709   5.298  0.0706 -0.0417 -0.9224
  169MOL    C2433960   1.219   1.755   5.417 -0.3507 -0.0480 -0.4980
  169MOL    C2533961   1.357   1.789   5.363  0.1425  0.4765 -0.0761
  169MOL    H2633962   1.129   1.790   5.226  1.0062  0.3516 -0.5970
  169MOL    H2733963   1.192   1.626   5.254  1.0697  0.0138  0.1884
  169MOL    H2833964   1.174   1.838   5.471  1.8275 -0.0238  1.3668
  169MOL    H2933965   1.230   1.682   5.497 -2.9287  1.3113  1.1580
  169MOL    H3033966   1.363   1.863   5.283 -0.3539  0.9669  0.3405
  169MOL    H3133967   1.409   1.701   5.324 -1.6265 -0.3838 -0.5101
  169MOL    O3233968   1.443   1.832   5.473  0.3099 -0.4405 -0.4751
  169MOL    C3333969   1.444   1.978   5.489  0.0503  0.6643  0.0727
  169MOL    C3433970   1.529   2.026   5.605 -0.3846 -0.0088  0.5792
  169MOL    C3533971   1.551   2.175   5.602  0.0625 -1.0385  0.0611
  169MOL    H3633972   1.342   2.018   5.497 -0.8645 -1.0530 -2.3267
  169MOL    H3733973   1.482   2.015   5.394 -0.7303  3.1042  0.6601
  169MOL    H3833974   1.487   1.996   5.701  0.7940 -2.9598  0.2461
  169MOL    H3933975   1.628   1.981   5.615 -0.9546 -1.1623  1.1797
  169MOL    H4033976   1.594   2.211   5.695 -0.8856  1.9636 -0.6073
  169MOL    H4133977   1.450   2.213   5.590 -1.0862 -3.1115  2.6907
  169MOL    O4233978   1.636   2.217   5.497  0.6796  0.2359  0.2121
  169MOL    C4333979   1.629   2.357   5.466 -0.0303  0.4217  0.0955
  169MOL    C4433980   1.728   2.388   5.351 -0.1717 -0.1895 -0.1714
  169MOL    C4533981   1.684   2.354   5.206 -0.5975 -0.0984  0.0840
  169MOL    H4633982   1.651   2.413   5.557  1.1179 -0.4545  0.3690
  169MOL    H4733983   1.524   2.379   5.449 -0.1607  0.3779  0.8257
  169MOL    H4833984   1.751   2.495   5.358  0.3998 -0.3695  0.7354
  169MOL    H4933985   1.821   2.334   5.371 -0.2946 -0.5126 -0.4678
  169MOL    H5033986   1.589   2.402   5.184  0.8389  1.5651 -2.7394
  169MOL    H5133987   1.676   2.245   5.201 -1.0850 -0.0420 -0.4503
  169MOL    O5233988   1.786   2.386   5.114 -0.3010  0.6050  0.1772
  169MOL    C5333989   1.759   2.372   4.975 -0.4242  0.5249  0.0818
  169MOL    C5433990   1.688   2.501   4.923 -0.4573  0.8418 -0.4449
  169MOL    C5533991   1.640   2.478   4.785 -0.1890 -0.3284 -0.3637
  169MOL    H5633992   1.709   2.276   4.965 -0.2909  0.3524  1.0023
  169MOL    H5733993   1.856   2.366   4.926  0.1489  2.6176  0.8948
  169MOL    H5833994   1.614   2.523   4.999 -0.7568 -0.8343 -0.2477
  169MOL    H5933995   1.764   2.579   4.922 -0.0088  0.4564 -3.2794
  169MOL    H6033996   1.568   2.399   4.763 -0.6925 -0.5587  1.9349
  169MOL    H6133997   1.734   2.447   4.740  0.0455  0.9198 -0.7521
  169MOL    O6233998   1.595   2.598   4.724  0.5347 -0.3281 -0.0163
  169MOL    C6333999   1.468   2.648   4.760 -0.3011 -0.2420 -0.1646
  169MOL    C6434000   1.487   2.800   4.779 -0.3813  0.1801 -0.1318
  169MOL    C6534001   1.556   2.840   4.909  0.4280  0.4810  0.1147
  169MOL    H6634002   1.424   2.601   4.848 -0.3745 -1.6135 -0.9220
  169MOL    H6734003   1.405   2.630   4.673  1.2762 -1.7940 -1.0022
  169MOL    H6834004   1.544   2.838   4.694 -0.4375 -1.6225 -0.9981
  169MOL    H6934005   1.389   2.847   4.776 -0.5476  0.1055  2.6131
  169MOL    H7034006   1.650   2.790   4.929  1.1257  1.5082 -0.4869
  169MOL    H7134007   1.498   2.807   4.994  0.0606  1.3772  0.2175
  169MOL    O7234008   1.573   2.976   4.921 -0.5711 -0.2219 -0.2065
  169MOL    C7334009   1.457   3.064   4.934 -0.6249 -0.1610  0.6603
  169MOL    C7434010   1.361   3.031   5.053  0.9971 -0.2250  0.3190
  169MOL    C7534011   1.251   3.137   5.084  0.0836 -0.1044  1.1474
  169MOL    H7634012   1.398   3.064   4.843  0.1389  0.0868  0.1527
  169MOL    H7734013   1.492   3.167   4.939 -0.1859 -0.2887  0.3492
  169MOL    H7834014   1.320   2.931   5.038  1.3379 -0.3123 -0.0295
  169MOL    H7934015   1.418   3.022   5.146 -1.4214  0.4657  1.9150
  169MOL    H8034016   1.193   3.171   4.997  1.2000  0.6124  0.6699
  169MOL    H8134017   1.298   3.229   5.120  1.6529 -0.8541  1.0467
  169MOL    O8234018   1.154   3.086   5.170  0.1927 -0.2598  0.6866
  169MOL    C8334019   1.035   3.158   5.192  0.0238 -0.7390  0.1367
  169MOL    C8434020   0.948   3.105   5.302 -0.3575  0.1938  0.1615
  169MOL    C8534021   0.821   3.180   5.322  0.3100  0.3783 -0.4174
  169MOL    H8634022   0.981   3.159   5.097 -0.4395 -0.8079  0.3945
  169MOL    H8734023   1.060   3.261   5.215 -0.2096 -0.4670 -0.8235
  169MOL    H8834024   0.920   3.001   5.286  0.8644 -0.3493  1.4978
  169MOL    H8934025   1.005   3.106   5.395  0.1761  1.3382 -0.1710
  169MOL    H9034026   0.745   3.137   5.388 -1.9323  0.6805 -2.7066
  169MOL    H9134027   0.769   3.176   5.226  1.7494 -2.3982 -1.1152
  169MOL    O9234028   0.847   3.315   5.360  0.5676  0.6235  0.3212
  169MOL    C9334029   0.741   3.404   5.320 -0.2044  0.1770 -0.5855
  169MOL    C9434030   0.814   3.529   5.266  0.3819  0.6377  0.1333
  169MOL    C9534031   0.863   3.518   5.120 -0.1082  0.1946  0.3091
  169MOL    H9634032   0.684   3.425   5.410 -1.1858 -1.3864 -0.8136
  169MOL    H9734033   0.678   3.366   5.240 -0.8888 -0.1983  0.1223
  169MOL    H9834034   0.745   3.613   5.275 -0.7857 -0.2235 -0.6473
  169MOL    H9934035   0.899   3.543   5.332 -0.2455  1.5724  0.7471
  169MOL   H10034036   0.781   3.503   5.049  0.1875  1.4457 -0.3069
  169MOL   H10134037   0.927   3.430   5.109 -0.1861  0.1996 -0.1816
  169MOL   O10234038   0.937   3.637   5.084 -0.4578  0.5248 -0.3842
  169MOL   C10334039   1.005   3.629   4.961 -0.0831  0.5155  0.1154
  169MOL   C10434040   1.082   3.758   4.928 -0.9294  0.5125  0.2790
  169MOL   C10534041   1.003   3.877   4.891  0.2536  0.3791 -1.1542
  169MOL   H10634042   0.936   3.615   4.878  0.9120  1.7432 -0.9354
  169MOL   H10734043   1.070   3.541   4.957  0.0333  0.4907  1.9160
  169MOL   H10834044   1.134   3.781   5.021 -1.0329  3.1777 -0.2746
  169MOL   H10934045   1.151   3.736   4.847 -1.9562 -2.6570  0.1930
  169MOL   H11034046   0.957   3.854   4.795 -1.1850 -0.0448 -0.3814
  169MOL   H11134047   1.067   3.965   4.881 -0.3370  0.7712 -1.5555
  169MOL   O11234048   0.912   3.906   4.998 -0.4484  0.4892 -0.2949
  169MOL   C11334049   0.849   4.032   4.984  0.2648 -0.0452 -1.2863
  169MOL   C11434050   0.754   4.050   5.101 -0.4732 -0.2840  0.2776
  169MOL   C11534051   0.630   3.961   5.105  0.2919 -1.3392  0.3398
  169MOL   H11634052   0.817   4.054   4.882 -1.5745 -0.4025 -0.8137
  169MOL   H11734053   0.923   4.111   4.983 -0.1741  0.3648 -2.1483
  169MOL   H11834054   0.803   4.058   5.198 -0.7239  0.6242  0.3317
  169MOL   H11934055   0.715   4.152   5.098 -0.2952 -0.1819  1.2111
  169MOL   H12034056   0.601   3.941   5.209  1.0197  2.1173  1.2697
  169MOL   H12134057   0.645   3.859   5.069  0.7025 -1.1329 -0.0749
  169MOL   O12234058   0.524   4.010   5.028  0.1196 -0.2515  0.3456
  169MOL   C12334059   0.422   3.915   5.005 -0.4237  0.1523  0.4145
  169MOL   C12434060   0.298   3.936   5.089 -0.1443 -0.1537  0.6426
  169MOL   C12534061   0.181   3.838   5.062  0.2971  0.2641 -0.5980
  169MOL   H12634062   0.455   3.811   5.006 -0.0127  0.2414 -1.7508
  169MOL   H12734063   0.403   3.925   4.898 -1.1817 -0.2403  0.5122
  169MOL   H12834064   0.323   3.922   5.194 -2.9242 -1.0388  1.2199
  169MOL   H12934065   0.270   4.041   5.089  1.5121  0.3537 -2.5690
  169MOL   H13034066   0.196   3.777   4.973  0.2023 -1.0494  0.2642
  169MOL   H13134067   0.085   3.889   5.061 -0.4250 -0.9635  1.7755
  169MOL   O13234068   0.173   3.749   5.171 -0.0757 -0.7454 -0.5698
  169MOL   C13334069   0.057   3.676   5.177 -0.4422  0.1286 -0.1772
  169MOL   C13434070   0.061   3.602   5.319  0.0720  0.5475  0.1909
  169MOL   C13534071   7.735   3.504   5.333  0.5907 -0.5454  0.0372
  169MOL   H13634072   0.065   3.599   5.100 -0.6551  2.8852 -3.0722
  169MOL   H13734073   7.751   3.729   5.159 -0.2170  0.4645 -0.3655
  169MOL   H13834074   0.152   3.545   5.335 -2.1420 -2.4084  2.6880
  169MOL   H13934075   0.065   3.681   5.395  3.2043 -0.9436  1.6703
  169MOL   H14034076   7.728   3.475   5.438 -0.7237  1.3073  0.4862
  169MOL   H14134077   7.759   3.418   5.269  2.0945  0.6236 -1.0162
  169MOL   O14234078   7.614   3.570   5.291 -0.2785 -0.0042  0.5578
  169MOL   C14334079   7.499   3.479   5.291 -0.1042  0.0769 -0.3114
  169MOL   C14434080   7.370   3.565   5.301  0.1749 -0.6415  0.0477
  169MOL   C14534081   7.237   3.483   5.274 -0.0505  0.3850  0.3143
  169MOL   H14634082   7.507   3.409   5.374 -1.2407  0.0680 -0.1984
  169MOL   H14734083   7.500   3.428   5.195 -2.2821 -0.9259  0.1526
  169MOL   H14834084   7.370   3.614   5.398  2.6731  0.1127 -0.3007
  169MOL   H14934085   7.378   3.653   5.236  0.1414  0.5620  1.6466
  169MOL   H15034086   7.148   3.530   5.315  0.0409  0.5124  0.3652
  169MOL   H15134087   7.250   3.382   5.312 -0.0733  0.8054  1.4458
  169MOL   O15234088   7.212   3.462   5.134  0.0323  0.0144 -0.0685
  169MOL   C15334089   7.074   3.433   5.101  0.2209 -0.4673 -0.6159
  169MOL   C15434090   7.054   3.384   4.961  0.8235  0.1670  0.4215
  169MOL   C15534091   7.055   3.490   4.849 -0.6407 -0.0716 -0.1735
  169MOL   H15634092   7.019   3.527   5.101 -0.8727 -1.1003 -2.2410
  169MOL   H15734093   7.031   3.360   5.170  0.7191  1.2863  1.6347
  169MOL   H15834094   7.130   3.306   4.949 -0.0550 -0.5853 -0.3566
  169MOL   H15934095   6.957   3.333   4.965  1.3265 -0.8436  0.0878
  169MOL   H16034096   7.156   3.529   4.857 -0.8265  0.4985 -0.5806
  169MOL   H16134097   6.982   3.569   4.865  0.6918  1.1003  0.1794
  169MOL   O16234098   7.046   3.434   4.721  0.6417  0.4699  0.5748
  169MOL   C16334099   6.907   3.429   4.682  0.3573  0.0281  0.3360
  169MOL   C16434100   6.905   3.371   4.540 -0.3568 -0.0129 -0.0245
  169MOL   C16534101   6.768   3.392   4.480  0.8964 -0.0627 -0.0425
  169MOL   H16634102   6.874   3.533   4.671 -0.6261 -0.4710 -1.5884
  169MOL   H16734103   6.845   3.363   4.742  1.9506 -1.3271  0.5356
  169MOL   H16834104   6.974   3.435   4.484 -2.3300  1.2443 -1.0601
  169MOL   H16934105   6.942   3.269   4.533 -0.8451 -0.1588 -0.4845
  169MOL   H17034106   6.725   3.490   4.498 -0.7704 -0.3978 -2.0056
  169MOL   H17134107   6.694   3.327   4.527  0.4973  0.2457 -0.2458
  169MOL   O17234108   6.773   3.380   4.341  0.6035  0.0579  0.5449
  169MOL   C17334109   6.646   3.374   4.285 -0.1560  0.0959 -0.7797
  169MOL   C17434110   6.661   3.357   4.131  0.9182  0.3127 -0.4647
  169MOL   C17534111   6.530   3.378   4.057 -0.0697  0.3229 -0.4564
  169MOL   H17634112   6.582   3.459   4.308  1.0688  0.6754  0.6175
  169MOL   H17734113   6.601   3.278   4.311  3.0102 -1.3876 -0.4867
  169MOL   H17834114   6.729   3.432   4.091 -1.4039  1.1698 -2.9777
  169MOL   H17934115   6.709   3.260   4.119 -0.5864 -0.7442  1.7630
  169MOL   H18034116   6.492   3.478   4.081 -1.6020  0.0017 -1.4458
  169MOL   H18134117   6.457   3.310   4.098 -0.2119  1.7802  1.7867
  169MOL   O18234118   6.545   3.372   3.921  0.0356 -0.5808  0.4080
  169MOL   C18334119   6.421   3.338   3.859 -0.6084  0.5858 -0.2378
  169MOL   C18434120   6.419   3.363   3.716 -0.5069  0.8289  0.5238
  169MOL   C18534121   6.287   3.324   3.663  0.0383 -0.1330  0.6855
  169MOL   H18634122   6.333   3.392   3.893  0.0511  2.0769 -0.8660
  169MOL   H18734123   6.404   3.232   3.882  2.2663  0.2633  0.6865
  169MOL   H18834124   6.438   3.469   3.701  1.1955  0.3647 -0.7642
  169MOL   H18934125   6.495   3.312   3.657  0.1162 -0.1834  2.1611
  169MOL   H19034126   6.198   3.376   3.699 -0.7932  0.1155 -1.6282
  169MOL   H19134127   6.283   3.217   3.680  1.0665 -0.2640  0.0969
  169MOL   O19234128   6.298   3.344   3.524  0.3487  0.0677  0.1433
  169MOL   C19334129   6.169   3.339   3.459  0.6081 -0.5986 -0.4987
  169MOL   C19434130   6.113   3.197   3.448  0.1542  0.4941  0.2728
  169MOL   C19534131   6.190   3.111   3.342  0.8791  0.8441  0.0487
  169MOL   H19634132   6.192   3.372   3.358  2.4930  0.8138  0.3500
  169MOL   H19734133   6.094   3.405   3.503  0.3543 -0.6719 -0.8179
  169MOL   H19834134   6.109   3.143   3.542 -0.0579 -0.7049 -0.4082
  169MOL   H19934135   6.008   3.198   3.418  0.0696 -1.9340  0.4229
  169MOL   H20034136   6.296   3.109   3.367  0.7595 -0.2813  0.5131
  169MOL   H20134137   6.191   3.163   3.246  1.9401 -0.0575 -0.4497
  169MOL   H20234138   6.154   3.008   3.337 -0.1719  1.0791  2.2964
  170MOL     O134139   6.560   1.287   0.707  0.2840 -0.0397  0.5512
  170MOL     C234140   6.528   1.324   0.841  0.0897  0.1047 -0.2603
  170MOL     C334141   6.638   1.422   0.902  0.1504  0.7305 -0.1132
  170MOL     C434142   6.611   1.467   1.046 -0.2327  0.4289  0.6017
  170MOL     H534143   6.519   1.236   0.905 -0.5868  1.9376  2.2342
  170MOL     H634144   6.430   1.370   0.845  0.2141  0.2396  1.7434
  170MOL     H734145   6.740   1.384   0.899  0.4150  1.4563 -0.2787
  170MOL     H834146   6.654   1.505   0.833 -1.5509  0.8849 -0.3445
  170MOL     H934147   6.616   1.380   1.111  0.1780  1.7492  2.3854
  170MOL    H1034148   6.507   1.501   1.055  0.1019  1.7405 -0.3915
  170MOL    H1134149   6.541   1.195   0.699  0.5117 -0.0427  0.0516
  170MOL    O1234150   6.699   1.569   1.094  0.2389  0.4324  0.6528
  170MOL    C1334151   6.676   1.598   1.233 -0.4159  0.2751 -0.5496
  170MOL    C1434152   6.749   1.726   1.284  0.1206 -0.1546 -0.0902
  170MOL    C1534153   6.730   1.731   1.436  0.1271  0.4841 -0.3142
  170MOL    H1634154   6.701   1.512   1.294 -0.9814  0.6263  0.1924
  170MOL    H1734155   6.567   1.605   1.237 -0.4210  1.7968 -2.3628
  170MOL    H1834156   6.857   1.721   1.270  0.1615 -0.7249  0.4087
  170MOL    H1934157   6.722   1.809   1.219 -1.6977 -1.4190 -1.0058
  170MOL    H2034158   6.705   1.634   1.478 -0.2432 -0.3285 -2.3818
  170MOL    H2134159   6.643   1.793   1.455  0.2930  0.2666  1.2203
  170MOL    O2234160   6.840   1.791   1.505  0.1540  0.1552 -0.5994
  170MOL    C2334161   6.884   1.711   1.615 -0.4289  0.0371  0.0030
  170MOL    C2434162   6.980   1.799   1.684 -0.0532  0.1079 -0.5235
  170MOL    C2534163   7.048   1.731   1.806 -0.5223 -0.2459  0.6374
  170MOL    H2634164   6.937   1.621   1.583 -1.8691 -0.6963 -0.3590
  170MOL    H2734165   6.810   1.685   1.690 -1.8285  2.6402 -0.4413
  170MOL    H2834166   7.064   1.813   1.616  0.2367 -0.8296 -0.3705
  170MOL    H2934167   6.936   1.894   1.712  1.0363  0.3023  0.6290
  170MOL    H3034168   7.078   1.630   1.777  0.4997 -0.3892  2.1632
  170MOL    H3134169   6.968   1.716   1.878  0.0110  2.7080  1.8988
  170MOL    O3234170   7.150   1.816   1.858 -0.2980  0.5932  0.3361
  170MOL    C3334171   7.225   1.757   1.955 -0.6451  0.1194  0.2361
  170MOL    C3434172   7.333   1.856   2.012 -0.5049  0.1566  0.5909
  170MOL    C3534173   7.433   1.785   2.113  0.3138  0.2445  0.7412
  170MOL    H3634174   7.276   1.667   1.920 -0.1697  0.8116 -0.8885
  170MOL    H3734175   7.156   1.728   2.034 -0.6035  0.5742  0.4410
  170MOL    H3834176   7.395   1.900   1.934 -3.2408  2.1109 -0.5231
  170MOL    H3934177   7.285   1.937   2.065  2.0099  0.5407  2.3333
  170MOL    H4034178   7.395   1.714   2.186  3.0753 -0.8470  1.1883
  170MOL    H4134179   7.482   1.862   2.173  0.5297 -0.6019  1.6639
  170MOL    O4234180   7.539   1.716   2.052 -0.6400 -0.0691  0.4662
  170MOL    C4334181   7.644   1.788   2.001 -0.3759  0.7730  0.3579
  170MOL    C4434182   7.758   1.686   1.973 -0.3262 -0.4613  0.1084
  170MOL    C4534183   0.099   1.751   1.921 -0.0799 -1.0019  0.6887
  170MOL    H4634184   7.680   1.865   2.069  0.1620 -0.3417  1.3574
  170MOL    H4734185   7.606   1.833   1.909 -0.1222 -3.0641 -1.7255
  170MOL    H4834186   7.778   1.619   2.058  0.3411  3.2871  3.0652
  170MOL    H4934187   7.711   1.615   1.905 -0.3825 -1.3964  1.1001
  170MOL    H5034188   0.172   1.671   1.907  1.9375  0.9754 -0.4801
  170MOL    H5134189   0.148   1.821   1.987 -0.4009 -0.1529  0.0404
  170MOL    O5234190   0.077   1.818   1.802 -0.1053 -0.2782 -0.6378
  170MOL    C5334191   0.198   1.837   1.734 -0.1249 -0.6811  0.4544
  170MOL    C5434192   0.181   1.961   1.650 -0.0445  0.1920 -0.7225
  170MOL    C5534193   0.300   2.006   1.562 -0.6988  0.0134  0.1289
  170MOL    H5634194   0.210   1.743   1.679  1.6231  0.9683 -2.0811
  170MOL    H5734195   0.288   1.841   1.796 -0.5940 -0.8623  1.1536
  170MOL    H5834196   0.097   1.943   1.582  0.3411  1.1937 -1.4734
  170MOL    H5934197   0.149   2.051   1.703 -1.1632 -0.4652 -0.2684
  170MOL    H6034198   0.275   2.093   1.502  0.2963  1.4899  1.8452
  170MOL    H6134199   0.320   1.925   1.491  0.7799  0.8085 -0.3739
  170MOL    O6234200   0.413   2.023   1.641 -0.6936  0.0565  0.0300
  170MOL    C6334201   0.428   2.156   1.687  0.1667 -1.1287  0.1216
  170MOL    C6434202   0.509   2.142   1.822  0.1437 -0.4290 -0.2840
  170MOL    C6534203   0.423   2.078   1.940  0.2105  0.4605  0.0970
  170MOL    H6634204   0.335   2.204   1.716  0.9543  0.6803 -0.2307
  170MOL    H6734205   0.479   2.218   1.613 -1.0538 -1.4425 -0.9928
  170MOL    H6834206   0.600   2.081   1.816  0.6031  0.2118  0.1438
  170MOL    H6934207   0.541   2.240   1.857  0.2150  0.0764 -1.7327
  170MOL    H7034208   0.425   1.970   1.926  3.5326  0.4038  0.4354
  170MOL    H7134209   0.319   2.109   1.930  0.0679  0.2263  0.8453
  170MOL    O7234210   0.489   2.116   2.061 -0.4305 -0.0190  0.0502
  170MOL    C7334211   0.450   2.037   2.172 -0.0053 -0.2491  0.5323
  170MOL    C7434212   0.313   2.066   2.230 -0.3213  0.0176  0.1204
  170MOL    C7534213   0.270   1.974   2.342  0.6179 -0.3716  0.0544
  170MOL    H7634214   0.525   2.060   2.247  1.8343  0.7870 -1.5483
  170MOL    H7734215   0.471   1.935   2.139 -0.9678 -0.2144 -0.2099
  170MOL    H7834216   0.309   2.169   2.264  1.2839  0.5247 -1.1659
  170MOL    H7934217   0.233   2.057   2.156 -1.1064 -1.4281  1.1230
  170MOL    H8034218   0.315   2.009   2.435  0.7868 -0.0739 -0.1358
  170MOL    H8134219   0.302   1.872   2.323 -1.0269 -0.8617 -0.1641
  170MOL    O8234220   0.127   1.958   2.343  0.3849 -0.2286  0.1156
  170MOL    C8334221   0.073   1.852   2.424  0.2550  0.2516 -0.2695
  170MOL    C8434222   7.781   1.755   2.324 -0.5452  0.4824  0.1605
  170MOL    C8534223   7.728   1.624   2.383  0.1486  0.2937  0.0607
  170MOL    H8634224   0.005   1.891   2.499 -0.4380  1.1320 -1.3491
  170MOL    H8734225   0.150   1.802   2.482  0.1497  1.4206  0.9002
  170MOL    H8834226   7.695   1.803   2.277 -0.4746  0.0214 -0.4379
  170MOL    H8934227   0.063   1.730   2.245  0.3988 -0.4092  1.2711
  170MOL    H9034228   7.679   1.579   2.296 -0.6187  2.6736 -0.7850
  170MOL    H9134229   7.648   1.630   2.457 -1.1571  1.1909 -1.4043
  170MOL    O9234230   0.049   1.543   2.425 -0.1489  0.0783 -0.3117
  170MOL    C9334231   0.005   1.445   2.515  0.8288  0.3800  0.2795
  170MOL    C9434232   0.120   1.357   2.567 -0.3262 -0.6430  0.1014
  170MOL    C9534233   0.219   1.426   2.663  0.4290  0.1105  0.0431
  170MOL    H9634234   7.717   1.380   2.471 -0.3550  1.4037  0.7637
  170MOL    H9734235   7.752   1.497   2.602 -2.0232  0.7624 -1.2411
  170MOL    H9834236   0.086   1.266   2.615  1.9014 -0.7888  1.4287
  170MOL    H9934237   0.171   1.325   2.476  0.9046  1.0881  0.1613
  170MOL   H10034238   0.155   1.436   2.750 -1.9500  1.4021 -1.8017
  170MOL   H10134239   0.236   1.525   2.621 -1.0927  0.9287  1.3573
  170MOL   O10234240   0.335   1.347   2.689  0.0239  0.3175  0.1707
  170MOL   C10334241   0.431   1.420   2.758 -0.5618  0.0715 -0.4522
  170MOL   C10434242   0.540   1.327   2.813 -0.3773 -0.3525  0.6811
  170MOL   C10534243   0.679   1.398   2.819 -0.0204  0.1755  0.2936
  170MOL   H10634244   0.391   1.484   2.837 -2.3407 -0.7143 -0.6824
  170MOL   H10734245   0.462   1.500   2.690  0.1727 -0.3289 -0.5923
  170MOL   H10834246   0.513   1.286   2.910 -1.6255  1.1578  1.0068
  170MOL   H10934247   0.550   1.250   2.737 -2.5376  0.6115 -0.6327
  170MOL   H11034248   0.678   1.476   2.895 -0.0771 -1.6394  2.2056
  170MOL   H11134249   0.701   1.440   2.721 -1.4854  2.0599  0.7533
  170MOL   O11234250   0.774   1.298   2.858 -0.1735 -0.2764 -0.0873
  170MOL   C11334251   0.902   1.348   2.888 -1.0763 -0.1772 -0.1852
  170MOL   C11434252   1.028   1.252   2.899  0.0603  0.2435  0.1129
  170MOL   C11534253   1.014   1.143   3.006  0.0840 -0.5860 -0.0720
  170MOL   H11634254   0.899   1.408   2.979  1.7196 -2.3177  1.3793
  170MOL   H11734255   0.923   1.425   2.813 -1.3722  0.9806  0.8904
  170MOL   H11834256   1.047   1.214   2.799  2.7671  1.2507  0.2109
  170MOL   H11934257   1.118   1.305   2.929  1.7246 -1.1902 -2.1358
  170MOL   H12034258   0.929   1.080   2.980 -0.4992  0.2758 -0.2823
  170MOL   H12134259   0.987   1.196   3.097  0.8880 -1.1286  0.4817
  170MOL   O12234260   1.125   1.062   3.013  0.0523 -0.4450  0.2583
  170MOL   C12334261   1.121   0.991   3.133 -0.0571  0.4948  0.2152
  170MOL   C12434262   1.242   0.892   3.143  0.0620 -0.8042  0.0796
  170MOL   C12534263   1.234   0.798   3.271  0.0428  0.2923 -0.5131
  170MOL   H12634264   1.026   0.938   3.131  0.5876 -0.6892  0.5607
  170MOL   H12734265   1.118   1.050   3.224  0.5098 -1.6537  1.6649
  170MOL   H12834266   1.250   0.832   3.053 -1.9088 -2.6640  1.1034
  170MOL   H12934267   1.337   0.946   3.151  1.3460 -3.0287  0.1941
  170MOL   H13034268   1.166   0.715   3.255  1.6854 -0.9223 -1.3406
  170MOL   H13134269   1.200   0.860   3.354  0.6761  1.9840 -1.4933
  170MOL   O13234270   1.365   0.754   3.305 -0.1464 -0.4124  0.5175
  170MOL   C13334271   1.371   0.612   3.344 -0.1014 -0.5829  0.5791
  170MOL   C13434272   1.504   0.579   3.415  0.4516  0.1812 -0.2877
  170MOL   C13534273   1.505   0.446   3.479  0.2625  0.0334 -0.9347
  170MOL   H13634274   1.364   0.549   3.256 -0.6288  1.0932 -0.6129
  170MOL   H13734275   1.294   0.582   3.416  0.3416  0.5946  1.5619
  170MOL   H13834276   1.585   0.597   3.344 -0.7363 -2.2323 -2.3699
  170MOL   H13934277   1.527   0.651   3.494  0.3330 -2.1034  1.8792
  170MOL   H14034278   1.425   0.436   3.552  0.3778  1.0428 -0.6753
  170MOL   H14134279   1.595   0.441   3.541 -0.2247  2.4026 -0.0020
  170MOL   O14234280   1.506   0.355   3.379  0.0777 -0.1529  0.2584
  170MOL   C14334281   1.523   0.225   3.429 -0.3652  0.7772 -0.2838
  170MOL   C14434282   1.518   0.115   3.322 -0.5803 -0.6283  0.1760
  170MOL   C14534283   1.538   7.768   3.401 -0.4880 -0.2428  0.0254
  170MOL   H14634284   1.439   0.207   3.496  0.9840 -1.2513  0.9148
  170MOL   H14734285   1.608   0.219   3.497 -0.0597  0.2023 -0.7110
  170MOL   H14834286   1.425   0.124   3.266 -0.7633  2.5178  0.9186
  170MOL   H14934287   1.606   0.123   3.258 -0.0474  0.3417  1.0084
  170MOL   H15034288   1.489   7.770   3.498 -3.1008 -2.6180 -1.1685
  170MOL   H15134289   1.646   7.768   3.415 -0.4264  2.8979 -0.0010
  170MOL   O15234290   1.487   7.662   3.328 -0.6561  0.0525  0.3192
  170MOL   C15334291   1.489   7.537   3.381  0.1309 -0.3647 -0.6406
  170MOL   C15434292   1.430   7.442   3.270  0.1950  0.1116 -0.9450
  170MOL   C15534293   1.449   7.299   3.317 -0.2056  0.2690  0.4765
  170MOL   H15634294   1.425   7.538   3.469 -0.2348  1.0314 -0.9168
  170MOL   H15734295   1.594   7.514   3.403  0.6031  3.2041  1.1404
  170MOL   H15834296   1.322   7.456   3.274  0.0284 -1.1691 -0.7513
  170MOL   H15934297   1.479   7.457   3.174  0.8437 -2.4227 -1.0482
  170MOL   H16034298   1.384   7.270   3.399 -1.3974 -2.4574 -1.3670
  170MOL   H16134299   1.555   7.278   3.335 -0.3508 -0.9414 -0.0765
  170MOL   O16234300   1.409   7.218   3.201 -0.3434 -0.5784 -0.0655
  170MOL   C16334301   1.462   7.083   3.210 -0.1757  0.5295 -0.6366
  170MOL   C16434302   1.413   7.004   3.092 -0.3466  0.2079 -0.2461
  170MOL   C16534303   1.443   6.850   3.103 -0.1028 -0.0433  0.5073
  170MOL   H16634304   1.437   7.038   3.306  0.4682 -0.3026 -0.8509
  170MOL   H16734305   1.570   7.082   3.223  0.0017  1.4692 -1.9543
  170MOL   H16834306   1.306   7.026   3.087  0.4504  3.9114 -3.2026
  170MOL   H16934307   1.453   7.038   2.997  0.2742 -1.7906 -0.7221
  170MOL   H17034308   1.401   6.793   3.020 -1.0308 -1.2551  1.7791
  170MOL   H17134309   1.386   6.815   3.189  1.3982 -0.8630  1.1692
  170MOL   O17234310   1.579   6.814   3.124 -0.2775  0.3556 -0.8501
  170MOL   C17334311   1.598   6.698   3.200 -0.2811 -0.5826 -0.0700
  170MOL   C17434312   1.754   6.679   3.212 -0.2386  1.0719 -0.2426
  170MOL   C17534313   1.826   6.787   3.293  0.3418  0.8316  0.0967
  170MOL   H17634314   1.545   6.609   3.166  1.4103 -1.0129 -1.6701
  170MOL   H17734315   1.550   6.727   3.293 -0.7702  2.8611 -1.3329
  170MOL   H17834316   1.774   6.588   3.270 -1.4562  2.0700  1.7979
  170MOL   H17934317   1.794   6.666   3.112 -0.2416 -1.8842  0.0775
  170MOL   H18034318   1.796   6.796   3.398 -0.3745 -0.4501  0.0073
  170MOL   H18134319   1.808   6.881   3.241  0.0041  1.2600  0.9754
  170MOL   O18234320   1.967   6.766   3.284  0.2602 -0.0112 -0.6274
  170MOL   C18334321   2.023   6.697   3.393  0.1024  0.0264  0.1350
  170MOL   C18434322   2.168   6.654   3.371  0.5529  0.1409 -1.0799
  170MOL   C18534323   2.214   6.544   3.468  0.2703 -0.0786  0.2687
  170MOL   H18634324   1.976   6.602   3.417 -0.8559  0.4772  0.0778
  170MOL   H18734325   2.028   6.772   3.473  0.5350 -0.1578  0.2778
  170MOL   H18834326   2.177   6.617   3.269  5.3564  0.8009 -1.0378
  170MOL   H18934327   2.235   6.740   3.371  1.9969 -0.9236  1.0629
  170MOL   H19034328   2.312   6.516   3.430  0.7654  0.6766  0.9562
  170MOL   H19134329   2.149   6.461   3.442 -0.7633  1.5732 -2.6514
  170MOL   O19234330   2.217   6.591   3.610 -0.3464  0.0361  0.9025
  170MOL   C19334331   2.324   6.679   3.643  0.1224 -0.5857  0.0424
  170MOL   C19434332   2.334   6.709   3.794 -1.1193  0.2069  0.0614
  170MOL   C19534333   2.436   6.813   3.839 -0.0871 -0.4316 -0.8493
  170MOL   H19634334   2.315   6.777   3.595  0.5273 -0.0732  1.0003
  170MOL   H19734335   2.415   6.629   3.610  0.2685 -0.4336  0.2088
  170MOL   H19834336   2.232   6.730   3.828 -0.6383  1.4303  0.7514
  170MOL   H19934337   2.360   6.611   3.835  0.4963 -0.0170 -1.4492
  170MOL   H20034338   2.463   6.804   3.944  1.0507  0.6679 -1.0421
  170MOL   H20134339   2.383   6.907   3.832  1.0370  0.3954  1.4371
  170MOL   H20234340   2.523   6.817   3.773  2.4157 -1.3865  2.2712
  171MOL     O134341   2.939   5.030   0.172  0.1338  0.3025  0.7786
  171MOL     C234342   3.044   5.122   0.189 -0.0590  0.3463 -0.4340
  171MOL     C334343   3.117   5.106   0.323  0.3626 -0.7256 -0.3481
  171MOL     C434344   3.256   5.174   0.328  0.3185  0.1090  0.4593
  171MOL     H534345   3.001   5.222   0.193  0.1440  0.3729  1.5487
  171MOL     H634346   3.114   5.126   0.106  0.6738 -0.8376  0.1116
  171MOL     H734347   3.058   5.138   0.409  0.5622  0.7723 -0.7541
  171MOL     H834348   3.134   5.000   0.343  0.2731 -0.6840 -0.0372
  171MOL     H934349   3.250   5.282   0.311  0.5652  0.1229  0.4643
  171MOL    H1034350   3.307   5.147   0.236 -1.4792 -2.1361  0.0725
  171MOL    H1134351   2.915   5.011   0.083 -0.7258  0.3457  1.0020
  171MOL    O1234352   3.335   5.140   0.444 -0.4451  0.2546 -0.2430
  171MOL    C1334353   3.395   5.249   0.521  0.6858  0.5904  0.7217
  171MOL    C1434354   3.499   5.201   0.622 -0.5391 -0.6059 -0.5585
  171MOL    C1534355   3.564   5.329   0.688  0.6797 -0.1152  0.3011
  171MOL    H1634356   3.311   5.296   0.571  1.4020 -0.0365  2.5391
  171MOL    H1734357   3.427   5.324   0.448 -2.4155  1.4490  0.1786
  171MOL    H1834358   3.449   5.140   0.698 -0.5757  0.3309  0.1741
  171MOL    H1934359   3.572   5.137   0.573  1.5651  2.8707 -2.1613
  171MOL    H2034360   3.591   5.398   0.608 -1.0112  1.1561  0.8017
  171MOL    H2134361   3.659   5.307   0.736  0.9117  0.5672  0.1501
  171MOL    O2234362   3.475   5.394   0.775  0.3863 -0.5932 -0.5271
  171MOL    C2334363   3.508   5.530   0.807  0.2337  0.4568 -0.6298
  171MOL    C2434364   3.385   5.610   0.846 -0.6114 -0.1400 -0.4628
  171MOL    C2534365   3.311   5.658   0.719 -0.5591  0.5523  0.6214
  171MOL    H2634366   3.572   5.578   0.733 -0.3716 -0.9594 -2.1150
  171MOL    H2734367   3.569   5.527   0.897 -0.3126 -0.9258 -0.2917
  171MOL    H2834368   3.328   5.536   0.902 -0.5814 -0.7959 -1.2821
  171MOL    H2934369   3.424   5.690   0.908 -0.5625 -0.4540 -0.0914
  171MOL    H3034370   3.288   5.566   0.664  1.9884 -0.7452  1.6246
  171MOL    H3134371   3.372   5.713   0.647 -1.5887  0.0528 -0.6599
  171MOL    O3234372   3.192   5.730   0.733 -0.1010  0.3277 -0.3980
  171MOL    C3334373   3.090   5.664   0.804 -0.1568 -0.1850  0.1170
  171MOL    C3434374   2.962   5.752   0.821  0.4282 -0.4259  0.0047
  171MOL    C3534375   2.886   5.770   0.691  0.2074 -0.0019 -0.7363
  171MOL    H3634376   3.130   5.648   0.904  0.3156  2.3127  0.3595
  171MOL    H3734377   3.075   5.565   0.760 -0.3080 -0.3195  0.4681
  171MOL    H3834378   2.894   5.696   0.885 -1.2189 -0.3505 -1.6408
  171MOL    H3934379   2.987   5.844   0.873 -0.8036  0.8448 -1.6282
  171MOL    H4034380   2.872   5.676   0.637 -2.2155  0.5768 -1.1948
  171MOL    H4134381   2.937   5.842   0.628  0.4772 -0.2644 -0.8206
  171MOL    O4234382   2.753   5.831   0.719  0.1041  0.1184  0.0640
  171MOL    C4334383   2.695   5.883   0.599 -0.4694  0.1703 -0.3416
  171MOL    C4434384   2.555   5.936   0.637 -0.1050 -0.7023 -0.6485
  171MOL    C4534385   2.483   6.001   0.517 -0.2140  0.2806 -0.1868
  171MOL    H4634386   2.695   5.807   0.520 -1.0377 -0.1049 -0.0824
  171MOL    H4734387   2.757   5.965   0.564 -3.0033  1.6686 -1.4492
  171MOL    H4834388   2.492   5.854   0.671  2.6396 -3.3714 -1.8034
  171MOL    H4934389   2.562   6.014   0.713  2.3669 -2.8334  1.3946
  171MOL    H5034390   2.458   5.931   0.436  2.0619 -1.1971  0.3302
  171MOL    H5134391   2.537   6.078   0.463 -0.1022  0.1730 -0.2310
  171MOL    O5234392   2.361   6.060   0.563  0.2607  0.1350 -0.3714
  171MOL    C5334393   2.280   6.124   0.469 -0.2694  0.2567 -0.2633
  171MOL    C5434394   2.152   6.170   0.535 -0.5068 -0.0199  0.5350
  171MOL    C5534395   2.085   6.263   0.441  1.3933 -0.3179 -0.2707
  171MOL    H5634396   2.252   6.066   0.380  0.0138  0.1922 -0.3097
  171MOL    H5734397   2.329   6.212   0.428 -1.7647  1.2559  0.0316
  171MOL    H5834398   2.079   6.092   0.555 -0.6005  0.7628  3.5529
  171MOL    H5934399   2.184   6.208   0.632 -1.7436  0.6968  0.6748
  171MOL    H6034400   2.083   6.212   0.345 -0.0740 -2.0673  0.6614
  171MOL    H6134401   2.129   6.362   0.429 -1.1983  0.6140 -2.6226
  171MOL    O6234402   1.951   6.281   0.493 -0.1771  0.5455 -0.1345
  171MOL    C6334403   1.945   6.355   0.611  0.1527 -0.0584 -0.5341
  171MOL    C6434404   1.803   6.406   0.639 -0.0155 -0.2929 -0.2713
  171MOL    C6534405   1.787   6.478   0.773 -0.3006  0.7298 -0.4543
  171MOL    H6634406   2.006   6.445   0.604 -1.6608  1.2224 -0.0335
  171MOL    H6734407   1.980   6.294   0.694  1.2437  1.5109  0.1793
  171MOL    H6834408   1.784   6.476   0.557 -0.0025  0.1048  0.0648
  171MOL    H6934409   1.729   6.329   0.618  0.4477 -0.6405 -0.6596
  171MOL    H7034410   1.857   6.561   0.765 -0.7027  1.3288  2.0318
  171MOL    H7134411   1.824   6.414   0.853  0.5400  1.6637 -0.0868
  171MOL    O7234412   1.653   6.511   0.797  0.1482 -0.8404 -0.1931
  171MOL    C7334413   1.636   6.587   0.920  0.1287 -0.3284 -0.5491
  171MOL    C7434414   1.488   6.611   0.968 -1.6242  0.3693 -0.2060
  171MOL    C7534415   1.485   6.690   1.103  0.6043  0.2810  0.0610
  171MOL    H7634416   1.687   6.681   0.899 -0.3875 -0.5215 -2.7467
  171MOL    H7734417   1.691   6.536   1.000  2.2261  0.3029 -1.5450
  171MOL    H7834418   1.431   6.678   0.903 -2.1965 -1.3289 -1.4730
  171MOL    H7934419   1.424   6.524   0.978 -0.6801 -0.3886 -0.7159
  171MOL    H8034420   1.538   6.785   1.097 -0.5358  1.0230  1.3509
  171MOL    H8134421   1.531   6.624   1.177  2.2993  0.8167 -0.4875
  171MOL    O8234422   1.350   6.714   1.145  0.5752 -0.3413  0.5233
  171MOL    C8334423   1.330   6.799   1.254  0.4033 -0.1123 -0.9832
  171MOL    C8434424   1.179   6.800   1.301 -0.7408 -0.0490  0.0487
  171MOL    C8534425   1.138   6.916   1.402  0.4149 -0.2385  0.4271
  171MOL    H8634426   1.341   6.905   1.231 -3.5510  0.1389 -2.2214
  171MOL    H8734427   1.407   6.765   1.323 -0.9987 -1.6056 -0.0906
  171MOL    H8834428   1.119   6.802   1.211  0.2382 -0.3149 -0.6243
  171MOL    H8934429   1.169   6.705   1.354  0.8239  1.5644  3.4674
  171MOL    H9034430   1.136   7.014   1.354  0.1311 -0.6742 -0.4661
  171MOL    H9134431   1.202   6.920   1.490  0.2880  0.5393  0.4896
  171MOL    O9234432   1.008   6.904   1.462 -0.2616  0.4167 -0.2071
  171MOL    C9334433   0.899   6.929   1.377  0.2959  0.1848  0.2310
  171MOL    C9434434   0.768   6.889   1.450  0.0969  0.2440  0.4401
  171MOL    C9534435   0.648   6.929   1.365 -0.0007  0.1896 -0.0381
  171MOL    H9634436   0.906   6.866   1.288  1.1304  2.9784 -1.7230
  171MOL    H9734437   0.907   7.031   1.340 -1.6046  0.2464 -0.0548
  171MOL    H9834438   0.768   6.786   1.486 -0.6243  0.4883  1.1432
  171MOL    H9934439   0.763   6.951   1.539  2.7338  2.0478 -0.6156
  171MOL   H10034440   0.659   6.912   1.258 -1.0173 -1.2473  0.0690
  171MOL   H10134441   0.632   7.036   1.381  2.4081  0.6107 -0.2898
  171MOL   O10234442   0.527   6.872   1.425 -0.5056 -0.1359  0.3462
  171MOL   C10334443   0.417   6.929   1.363  0.0488 -0.7986 -0.7358
  171MOL   C10434444   0.283   6.856   1.404  0.1239 -0.2263 -0.1095
  171MOL   C10534445   0.164   6.921   1.340  0.6108  0.1759  0.3130
  171MOL   H10634446   0.419   6.913   1.255  0.9871  0.5457 -0.9297
  171MOL   H10734447   0.420   7.033   1.397 -0.1946 -1.1140  0.2405
  171MOL   H10834448   0.277   6.752   1.374  1.6733 -0.1519 -0.7031
  171MOL   H10934449   0.268   6.865   1.512  0.0128  0.4498 -0.1801
  171MOL   H11034450   0.168   6.918   1.232  1.5747 -0.8896  0.3613
  171MOL   H11134451   0.167   7.029   1.356 -1.3613  0.0560  1.7005
  171MOL   O11234452   0.040   6.873   1.386  0.5089  0.6751 -0.0929
  171MOL   C11334453   7.714   6.935   1.336  0.7499  0.0501  0.1139
  171MOL   C11434454   7.682   7.070   1.394  0.2224 -0.6198 -0.0223
  171MOL   C11534455   7.564   7.130   1.320  0.3046  0.1113 -0.6501
  171MOL   H11634456   7.625   6.876   1.360  1.7430 -1.6220 -0.2222
  171MOL   H11734457   7.732   6.955   1.230 -1.3771  0.3086 -0.2241
  171MOL   H11834458   7.671   7.068   1.503 -0.1899 -1.2138 -0.0706
  171MOL   H11934459   7.763   7.141   1.378  0.2062 -0.8803 -1.3184
  171MOL   H12034460   7.480   7.060   1.325  0.2890  0.1162 -0.8496
  171MOL   H12134461   7.579   7.130   1.212 -1.0177  0.4861 -0.8513
  171MOL   O12234462   7.551   7.254   1.383  0.1618 -0.0955 -0.1865
  171MOL   C12334463   7.436   7.318   1.324 -0.6343  0.1736 -0.4240
  171MOL   C12434464   7.422   7.461   1.367 -0.1993  0.0133  0.3120
  171MOL   C12534465   7.293   7.529   1.313 -0.1033 -0.2373 -0.1968
  171MOL   H12634466   7.348   7.256   1.341  1.1726 -2.3067  0.1272
  171MOL   H12734467   7.451   7.309   1.216 -0.7960 -1.1083 -0.3463
  171MOL   H12834468   7.418   7.464   1.476  0.4056  1.0374  0.3064
  171MOL   H12934469   7.505   7.518   1.328 -1.1184  0.5884 -0.8407
  171MOL   H13034470   7.201   7.471   1.324 -0.5946  0.5931  0.0734
  171MOL   H13134471   7.327   7.520   1.211  4.4199 -0.2253  1.2237
  171MOL   O13234472   7.269   7.655   1.370 -0.4192 -0.5934 -0.1154
  171MOL   C13334473   7.158   7.723   1.317 -0.5413  0.2753  0.2014
  171MOL   C13434474   7.097   0.013   1.433  0.5459  0.7293 -0.4219
  171MOL   C13534475   7.034   7.712   1.541  0.5137 -0.5586  0.6211
  171MOL   H13634476   7.089   7.646   1.282  1.3123  0.3143 -3.8143
  171MOL   H13734477   7.185   7.783   1.230 -2.8529  0.7893 -0.1870
  171MOL   H13834478   7.171   0.078   1.478  0.7020 -0.6720  1.3758
  171MOL   H13934479   7.024   0.083   1.392 -0.2423 -0.0714 -0.4056
  171MOL   H14034480   7.119   7.660   1.586  2.1532 -0.8208 -2.6484
  171MOL   H14134481   6.957   7.643   1.508  0.0924 -0.9590  2.3863
  171MOL   O14234482   6.982   0.014   1.635  0.0590 -0.1861 -0.3701
  171MOL   C14334483   6.976   7.743   1.765 -0.3048  0.2464  0.1162
  171MOL   C14434484   6.914   0.053   1.873 -0.1752  0.0217  0.8082
  171MOL   C14534485   6.859   7.770   1.995  0.8514 -0.5788  0.5661
  171MOL   H14634486   7.074   7.710   1.800  0.4323  2.3072  0.0761
  171MOL   H14734487   6.908   7.658   1.756  0.2029  0.0190 -1.7992
  171MOL   H14834488   6.991   0.119   1.912  1.5628 -0.2097 -2.0262
  171MOL   H14934489   6.834   0.112   1.829 -0.2389 -0.1625  0.6708
  171MOL   H15034490   6.766   7.716   1.977  0.4089 -0.4246  2.3038
  171MOL   H15134491   6.837   0.057   2.071  0.4899 -0.9061  0.7861
  171MOL   O15234492   6.956   7.678   2.049  0.3352  0.1644 -0.6652
  171MOL   C15334493   6.896   7.607   2.160  0.9472  0.2255  0.5357
  171MOL   C15434494   6.993   7.499   2.216 -0.5410  0.4053  0.2724
  171MOL   C15534495   6.922   7.409   2.317 -0.0727 -0.1107  0.5717
  171MOL   H15634496   6.805   7.555   2.131  1.6355 -1.4705  1.3488
  171MOL   H15734497   6.868   7.684   2.232 -0.5922 -0.0944  0.3020
  171MOL   H15834498   7.033   7.439   2.134  1.6048  0.4849  1.2092
  171MOL   H15934499   7.081   7.547   2.259  0.2241 -0.1215 -0.6819
  171MOL   H16034500   6.992   7.335   2.355  0.1026 -0.7749 -1.0020
  171MOL   H16134501   6.844   7.354   2.264  0.2265 -1.3318  1.3730
  171MOL   O16234502   6.857   7.483   2.421  0.3635 -0.1430  0.0602
  171MOL   C16334503   6.763   7.401   2.490  0.0432  0.2348 -0.1413
  171MOL   C16434504   6.699   7.482   2.610  0.7985 -0.2138  0.0109
  171MOL   C16534505   6.609   7.397   2.708  0.0023 -0.8629  0.0475
  171MOL   H16634506   6.815   7.321   2.542 -1.0848  0.1357  0.8541
  171MOL   H16734507   6.697   7.345   2.424  0.0481 -1.2232  1.0522
  171MOL   H16834508   6.774   7.545   2.657  0.5375  0.4738 -0.4885
  171MOL   H16934509   6.629   7.551   2.563  0.3944 -0.3438  0.4199
  171MOL   H17034510   6.565   7.474   2.772  0.5086  1.5597 -2.3958
  171MOL   H17134511   6.667   7.321   2.760 -2.1017 -0.7251  2.6255
  171MOL   O17234512   6.496   7.352   2.633 -0.0877 -0.0995  0.3470
  171MOL   C17334513   6.400   7.283   2.718 -0.7246  0.4032  0.1316
  171MOL   C17434514   6.287   7.234   2.627 -0.0976 -0.1994  0.6174
  171MOL   C17534515   6.170   7.189   2.699  0.4479  0.5227 -0.0105
  171MOL   H17634516   6.373   7.352   2.798  0.6418 -0.1087  1.0537
  171MOL   H17734517   6.452   7.199   2.763  0.7771  1.0062 -0.4626
  171MOL   H17834518   6.245   7.322   2.578 -2.3273 -0.9886  1.0646
  171MOL   H17934519   6.328   7.169   2.549  1.5766 -0.7304  1.9092
  171MOL   H18034520   6.143   7.280   2.754  0.7178  0.7954 -0.3283
  171MOL   H18134521   6.196   7.103   2.760  1.3686 -0.3603 -1.6239
  171MOL   O18234522   6.067   7.158   2.609 -0.6255  0.4747 -0.9059
  171MOL   C18334523   5.945   7.137   2.683  0.2266  0.7968 -0.3422
  171MOL   C18434524   5.830   7.096   2.591 -0.6719  0.4917  0.5959
  171MOL   C18534525   5.697   7.060   2.666 -0.0318  0.7233 -0.5297
  171MOL   H18634526   5.912   7.226   2.738  0.7848  1.5609 -1.2288
  171MOL   H18734527   5.964   7.051   2.748 -0.2023  0.4792 -0.6349
  171MOL   H18834528   5.819   7.182   2.527  2.8348  1.2696  0.9635
  171MOL   H18934529   5.858   7.011   2.529 -1.6873 -0.9161  2.0076
  171MOL   H19034530   5.655   7.145   2.719  1.9800  0.5161  1.4733
  171MOL   H19134531   5.724   6.985   2.740 -1.7875  1.5805  1.0458
  171MOL   O19234532   5.602   7.011   2.572  0.4296  0.2398 -0.1786
  171MOL   C19334533   5.483   6.964   2.634  0.6335  0.1698 -0.3625
  171MOL   C19434534   5.370   6.957   2.520 -0.2846  0.2200 -0.2772
  171MOL   C19534535   5.376   6.822   2.443 -0.0106 -0.1193 -0.2827
  171MOL   H19634536   5.445   7.025   2.716  0.0552 -1.1162  0.3513
  171MOL   H19734537   5.503   6.863   2.669 -0.3204  0.4959  1.1432
  171MOL   H19834538   5.281   6.950   2.582 -0.2586 -3.5298 -0.5487
  171MOL   H19934539   5.356   7.050   2.464 -2.2066 -0.8263 -1.5740
  171MOL   H20034540   5.376   6.732   2.504  0.8968 -0.4849 -0.8180
  171MOL   H20134541   5.470   6.820   2.390 -0.5190  2.1654 -1.3164
  171MOL   H20234542   5.293   6.823   2.372  0.6721  1.3471 -1.0881
  172MOL     O134543   4.603   0.898   5.581 -0.4285 -0.1060  0.2850
  172MOL     C234544   4.570   0.788   5.496  0.0087 -1.1065  0.1240
  172MOL     C334545   4.575   0.839   5.336 -0.5754 -0.0732 -0.2881
  172MOL     C434546   4.544   0.728   5.232  0.6612  0.1208 -0.1884
  172MOL     H534547   4.474   0.744   5.523 -0.1744 -1.6430 -1.3544
  172MOL     H634548   4.642   0.710   5.520  0.8541 -0.9762 -1.8898
  172MOL     H734549   4.524   0.932   5.311 -0.4247 -0.2508 -1.2800
  172MOL     H834550   4.679   0.867   5.322 -0.0787 -0.6712  2.1284
  172MOL     H934551   4.436   0.719   5.222  1.0125 -2.7572 -1.8410
  172MOL    H1034552   4.588   0.632   5.259 -1.5867 -1.1296 -0.9288
  172MOL    H1134553   4.579   0.875   5.670  0.7686 -0.7305  0.4652
  172MOL    O1234554   4.600   0.750   5.100 -0.3999  0.0607 -0.6691
  172MOL    C1334555   4.569   0.649   5.006  0.2631 -0.2600  0.0676
  172MOL    C1434556   4.616   0.714   4.871 -0.6717 -0.8851 -0.1709
  172MOL    C1534557   4.562   0.853   4.841 -0.1687 -0.3343  0.6725
  172MOL    H1634558   4.467   0.612   5.011  0.9960 -2.3007  0.0761
  172MOL    H1734559   4.637   0.567   5.028  0.4025  0.4702  2.5086
  172MOL    H1834560   4.725   0.719   4.873 -0.4612 -3.3088 -2.5355
  172MOL    H1934561   4.592   0.648   4.788  2.1738 -1.8870 -0.2376
  172MOL    H2034562   4.603   0.919   4.917 -3.2754  1.7606  0.6416
  172MOL    H2134563   4.453   0.863   4.839  0.2429  6.8317 -2.2283
  172MOL    O2234564   4.610   0.908   4.718 -0.4945 -0.0360  0.4735
  172MOL    C2334565   4.597   1.054   4.714  0.8434 -0.2299  0.2217
  172MOL    C2434566   4.573   1.106   4.568 -0.0198  0.7535  0.5467
  172MOL    C2534567   4.431   1.073   4.506  0.2577 -0.1381 -0.4985
  172MOL    H2634568   4.688   1.098   4.754  0.6224  0.4504 -0.0138
  172MOL    H2734569   4.519   1.084   4.783 -0.4410  1.8604 -2.0461
  172MOL    H2834570   4.594   1.213   4.571 -1.3067  0.9859  2.7631
  172MOL    H2934571   4.649   1.060   4.505 -0.9602  2.1493 -1.6413
  172MOL    H3034572   4.410   0.966   4.509 -1.4372  0.1595 -1.7044
  172MOL    H3134573   4.442   1.097   4.400  0.5589 -0.8948 -0.6394
  172MOL    O3234574   4.330   1.161   4.571 -0.1665 -0.2255 -0.4487
  172MOL    C3334575   4.196   1.121   4.542 -0.2223 -0.5143 -0.3831
  172MOL    C3434576   4.096   1.235   4.579 -0.3704 -0.0130 -1.0150
  172MOL    C3534577   3.960   1.194   4.628  0.1747  0.6925  0.2643
  172MOL    H3634578   4.186   1.030   4.602 -1.2427 -0.1670 -0.0104
  172MOL    H3734579   4.199   1.089   4.438  1.3893  0.3358 -0.6188
  172MOL    H3834580   4.145   1.291   4.660 -0.8083 -1.0059 -0.0514
  172MOL    H3934581   4.087   1.304   4.495 -2.8512 -0.2139 -0.9412
  172MOL    H4034582   3.974   1.179   4.735  1.6463  0.5340  0.0636
  172MOL    H4134583   3.919   1.105   4.581 -0.4379  1.1405 -0.0525
  172MOL    O4234584   3.865   1.294   4.591 -0.3279  0.1587  0.3727
  172MOL    C4334585   3.739   1.248   4.630 -0.2028 -0.7289 -0.2513
  172MOL    C4434586   3.630   1.346   4.591  0.2999 -0.2539  0.3733
  172MOL    C4534587   3.645   1.479   4.646  0.3519  0.0980 -0.2719
  172MOL    H4634588   3.740   1.237   4.739 -0.1382 -2.6893 -0.4404
  172MOL    H4734589   3.719   1.148   4.591  0.8317 -1.5074  1.1589
  172MOL    H4834590   3.628   1.369   4.484  2.0084 -0.0892  0.3598
  172MOL    H4934591   3.532   1.310   4.622 -0.7472  2.4724  0.3319
  172MOL    H5034592   3.731   1.533   4.605  1.1314 -2.6193 -2.3733
  172MOL    H5134593   3.646   1.486   4.755 -1.6398  0.0717 -0.2336
  172MOL    O5234594   3.538   1.560   4.604 -0.5277  0.1556 -0.2312
  172MOL    C5334595   3.561   1.701   4.601  0.3426 -0.1240 -0.2899
  172MOL    C5434596   3.424   1.768   4.616  0.1446 -0.7545 -0.5931
  172MOL    C5534597   3.330   1.728   4.505  0.5374  0.3359  0.4974
  172MOL    H5634598   3.607   1.728   4.506  1.3167  0.6394  0.3969
  172MOL    H5734599   3.623   1.741   4.681  0.8134 -0.7630 -0.3313
  172MOL    H5834600   3.361   1.750   4.703 -0.4873 -0.4137 -0.9695
  172MOL    H5934601   3.436   1.876   4.620 -1.4767 -0.6004  0.6345
  172MOL    H6034602   3.235   1.777   4.522 -0.9041 -2.1093 -0.3227
  172MOL    H6134603   3.327   1.620   4.492 -0.7840  0.4064  0.1390
  172MOL    O6234604   3.377   1.784   4.388 -0.3208 -0.1134  0.4045
  172MOL    C6334605   3.286   1.774   4.269  0.1458  0.1643  0.0618
  172MOL    C6434606   3.354   1.847   4.152 -0.4878  0.3334 -0.1633
  172MOL    C6534607   3.473   1.770   4.108  0.2768  0.0397  0.2318
  172MOL    H6634608   3.184   1.806   4.287  0.3136 -0.9844  3.4290
  172MOL    H6734609   3.278   1.668   4.245 -0.1885  1.1062 -4.2270
  172MOL    H6834610   3.297   1.849   4.059 -0.8941  0.3435  0.0849
  172MOL    H6934611   3.379   1.951   4.175  1.2886  0.0723 -0.8064
  172MOL    H7034612   3.435   1.673   4.076  0.8698 -0.9105  2.2925
  172MOL    H7134613   3.547   1.755   4.186  0.3948  1.7724  0.4709
  172MOL    O7234614   3.541   1.825   3.995  0.0927 -0.1292 -0.2755
  172MOL    C7334615   3.615   1.743   3.914 -0.8071 -0.4667 -0.2953
  172MOL    C7434616   3.637   1.837   3.792  0.7532 -0.3921  0.2200
  172MOL    C7534617   3.686   1.760   3.669  0.0519 -0.0851  0.5911
  172MOL    H7634618   3.553   1.661   3.877 -1.3024 -0.0284 -0.4305
  172MOL    H7734619   3.704   1.695   3.955 -0.7517  0.9033  1.2462
  172MOL    H7834620   3.541   1.879   3.761 -0.2908 -0.6727  2.9605
  172MOL    H7934621   3.711   1.916   3.803  1.2064 -0.0595 -4.2792
  172MOL    H8034622   3.600   1.705   3.629 -0.3078  0.3303  0.7844
  172MOL    H8134623   3.782   1.712   3.686  0.2854  0.8844  2.0077
  172MOL    O8234624   3.687   1.864   3.568  0.1996  0.8796  0.1319
  172MOL    C8334625   3.750   1.829   3.447  0.2962  0.3274 -0.1978
  172MOL    C8434626   3.778   1.936   3.346 -0.2943 -0.1059 -0.4408
  172MOL    C8534627   3.798   1.878   3.206  0.8271  0.2941 -0.0382
  172MOL    H8634628   3.684   1.755   3.401  1.7019  1.0611 -3.5315
  172MOL    H8734629   3.844   1.779   3.473  0.7628  0.0279 -2.3487
  172MOL    H8834630   3.686   1.994   3.341  0.0606  0.4183 -0.9541
  172MOL    H8934631   3.866   1.990   3.382 -0.1239 -0.3321 -0.5162
  172MOL    H9034632   3.812   1.961   3.136 -0.1732 -1.2338 -2.1100
  172MOL    H9134633   3.697   1.845   3.183  1.0249 -0.6079  0.3678
  172MOL    O9234634   3.903   1.778   3.201 -0.4346 -0.4968 -0.1399
  172MOL    C9334635   4.035   1.832   3.193  0.3759 -0.0057 -0.9134
  172MOL    C9434636   4.122   1.722   3.135 -0.3249 -0.1755 -0.4123
  172MOL    C9534637   4.271   1.733   3.167  0.1465 -0.3697 -0.0003
  172MOL    H9634638   4.061   1.861   3.295  1.2774  0.6547 -1.3334
  172MOL    H9734639   4.037   1.918   3.126  2.0856 -1.5752 -2.9190
  172MOL    H9834640   4.086   1.623   3.159 -0.1901 -0.1057  0.0704
  172MOL    H9934641   4.101   1.717   3.028 -1.5340 -1.8705 -0.1055
  172MOL   H10034642   4.291   1.725   3.274  0.9175 -0.5185 -0.1536
  172MOL   H10134643   4.301   1.832   3.133 -2.1404  0.5123  0.4904
  172MOL   O10234644   4.333   1.623   3.110  0.0310 -0.1687  0.2854
  172MOL   C10334645   4.350   1.520   3.201  0.6525 -0.4399 -0.6672
  172MOL   C10434646   4.415   1.409   3.119  0.2221 -0.2930 -0.5902
  172MOL   C10534647   4.418   1.292   3.205 -0.0116 -0.1448  0.3679
  172MOL   H10634648   4.261   1.489   3.255 -0.8027  0.9409 -2.1873
  172MOL   H10734649   4.423   1.554   3.275 -1.9033  1.9561  0.8451
  172MOL   H10834650   4.353   1.393   3.031  1.3355  0.2272 -1.4891
  172MOL   H10934651   4.517   1.438   3.092  0.1641  1.3563  0.8415
  172MOL   H11034652   4.461   1.323   3.300 -0.6734  0.5772  0.4379
  172MOL   H11134653   4.465   1.208   3.153  1.0483  1.1913 -0.8701
  172MOL   O11234654   4.287   1.246   3.252 -0.0324  0.0631  0.4577
  172MOL   C11334655   4.214   1.154   3.172  0.5068  0.2758  0.0839
  172MOL   C11434656   4.064   1.165   3.209 -0.1454  0.1240 -0.0334
  172MOL   C11534657   3.995   1.301   3.194  0.0696 -0.3471 -0.4709
  172MOL   H11634658   4.267   1.061   3.194  0.9128  0.2862 -0.7917
  172MOL   H11734659   4.232   1.187   3.069  1.9757 -0.2289  0.1649
  172MOL   H11834660   4.008   1.100   3.142  0.7847  1.1070 -1.8092
  172MOL   H11934661   4.044   1.136   3.313 -1.8661  1.2751 -0.0197
  172MOL   H12034662   4.002   1.349   3.097  0.3345  1.9744  0.6561
  172MOL   H12134663   4.043   1.375   3.259 -0.1173  1.7372 -2.6662
  172MOL   O12234664   3.856   1.297   3.242  0.5220  0.2483  0.1799
  172MOL   C12334665   3.798   1.427   3.248 -0.5710  0.5591  0.2870
  172MOL   C12434666   3.681   1.430   3.347  0.5804  0.0327 -0.2752
  172MOL   C12534667   3.731   1.414   3.489  0.0992 -0.1859 -0.3373
  172MOL   H12634668   3.769   1.455   3.146  1.2840  0.8905 -0.1756
  172MOL   H12734669   3.873   1.500   3.279  0.9439 -1.2704  0.9969
  172MOL   H12834670   3.624   1.523   3.349 -0.9746 -0.9079  0.0267
  172MOL   H12934671   3.606   1.353   3.327 -0.6385  0.5842  2.0658
  172MOL   H13034672   3.808   1.488   3.514 -0.9298  1.5764 -2.2763
  172MOL   H13134673   3.781   1.317   3.483  1.0925  0.4422 -2.9582
  172MOL   O13234674   3.615   1.408   3.576  0.0089 -0.3333  0.0304
  172MOL   C13334675   3.639   1.385   3.716 -0.7619 -0.1577  0.1681
  172MOL   C13434676   3.489   1.368   3.782  0.0237  0.3543 -0.0952
  172MOL   C13534677   3.513   1.341   3.932  1.0184  0.1269  0.5030
  172MOL   H13634678   3.690   1.468   3.765  1.2623 -0.3331 -1.5727
  172MOL   H13734679   3.711   1.304   3.721 -0.4129 -0.0639 -2.7291
  172MOL   H13834680   3.437   1.462   3.766  0.0461  0.4771  0.5453
  172MOL   H13934681   3.424   1.297   3.731  2.3896 -1.7552 -0.3206
  172MOL   H14034682   3.578   1.421   3.965  3.1406 -0.3431 -2.3479
  172MOL   H14134683   3.567   1.246   3.933  3.3393  1.4274  3.2672
  172MOL   O14234684   3.395   1.346   4.012  0.4051  0.2332 -0.0642
  172MOL   C14334685   3.422   1.326   4.150 -1.0270  0.9029 -0.2200
  172MOL   C14434686   3.292   1.334   4.230 -0.5040 -0.1972 -0.0262
  172MOL   C14534687   3.305   1.326   4.380  0.1896  0.0897  1.1080
  172MOL   H14634688   3.497   1.401   4.178  0.3515 -0.2618 -0.7415
  172MOL   H14734689   3.472   1.231   4.170  0.3484  1.2669 -1.7817
  172MOL   H14834690   3.250   1.425   4.186 -1.9694 -1.3656 -1.0880
  172MOL   H14934691   3.232   1.249   4.197 -0.1914  0.1373 -1.5148
  172MOL   H15034692   3.375   1.401   4.418  0.9110 -0.9294  1.8348
  172MOL   H15134693   3.353   1.233   4.409 -0.6233 -0.5939  0.2963
  172MOL   O15234694   3.189   1.326   4.446  0.0431  0.3236  0.1718
  172MOL   C15334695   3.219   1.325   4.585 -0.0133 -0.0886  0.0303
  172MOL   C15434696   3.088   1.308   4.665 -0.4565 -0.1592  1.1396
  172MOL   C15534697   3.016   1.437   4.712 -0.5006  0.5063 -0.6043
  172MOL   H15634698   3.272   1.418   4.604  0.3970 -0.5170  1.0603
  172MOL   H15734699   3.279   1.241   4.621 -2.0260 -2.3457 -1.6995
  172MOL   H15834700   3.009   1.248   4.621 -0.3002 -0.0208  0.6717
  172MOL   H15934701   3.125   1.264   4.758 -1.1003 -0.2009  1.3799
  172MOL   H16034702   2.970   1.482   4.623 -0.0582  2.3772  0.0931
  172MOL   H16134703   3.097   1.500   4.747  0.9299  0.1529 -3.1676
  172MOL   O16234704   2.911   1.403   4.806  0.0865 -0.0342 -0.3521
  172MOL   C16334705   2.872   1.514   4.895  0.0745  0.1737 -0.8193
  172MOL   C16434706   2.741   1.477   4.965 -0.0227 -0.2558  0.5345
  172MOL   C16534707   2.703   1.585   5.071  0.2089 -0.2168  0.4674
  172MOL   H16634708   2.854   1.607   4.841 -2.8395  0.3470  0.4139
  172MOL   H16734709   2.943   1.544   4.972  1.2768  0.9681 -2.1993
  172MOL   H16834710   2.658   1.457   4.898 -0.8867 -0.3598  1.6325
  172MOL   H16934711   2.752   1.385   5.022  0.4240 -0.3289  0.3323
  172MOL   H17034712   2.678   1.674   5.013 -1.0906  0.6046  2.2551
  172MOL   H17134713   2.795   1.604   5.127  0.8011 -0.5939 -0.3478
  172MOL   O17234714   2.604   1.541   5.167  0.6053  0.1018  0.2064
  172MOL   C17334715   2.557   1.657   5.240 -0.9201 -0.3841  0.5863
  172MOL   C17434716   2.433   1.632   5.324 -0.2571 -0.5399  0.3719
  172MOL   C17534717   2.378   1.754   5.401  0.1236 -0.4144 -0.2907
  172MOL   H17634718   2.529   1.733   5.167  1.4812 -1.2673 -1.3415
  172MOL   H17734719   2.644   1.682   5.300  0.3793  2.1972 -2.2026
  172MOL   H17834720   2.350   1.596   5.263  0.2873 -0.5724 -0.3603
  172MOL   H17934721   2.456   1.550   5.392  2.3691  1.4300  1.9533
  172MOL   H18034722   2.357   1.842   5.340 -1.3269  0.4260  1.3523
  172MOL   H18134723   2.450   1.772   5.481 -0.1227 -0.2360 -0.1063
  172MOL   O18234724   2.255   1.712   5.462  0.8727  0.3984  0.1107
  172MOL   C18334725   2.220   1.778   5.584  0.9171 -0.8698 -0.7827
  172MOL   C18434726   2.293   1.726   5.709 -0.7693  0.3758 -0.0115
  172MOL   C18534727   2.294   1.572   5.715 -0.6764 -0.0921 -1.0256
  172MOL   H18634728   2.116   1.750   5.602  0.1521  1.5228 -1.3220
  172MOL   H18734729   2.212   1.886   5.575  0.0187 -0.7650  1.1281
  172MOL   H18834730   2.393   1.766   5.724 -1.3197  1.6036  0.4706
  172MOL   H18934731   2.237   1.768   5.792  0.9834  2.2572  0.2465
  172MOL   H19034732   2.317   1.520   5.622 -0.1492 -2.3569  0.3257
  172MOL   H19134733   2.197   1.530   5.742  0.3662 -2.3205 -0.6153
  172MOL   O19234734   2.382   1.522   5.811 -0.5137  0.2894 -0.1924
  172MOL   C19334735   2.397   1.384   5.811 -0.9128  0.0850  0.3729
  172MOL   C19434736   2.466   1.358   5.944 -0.7778  0.1305 -0.0850
  172MOL   C19534737   2.371   1.378   6.059 -0.2361 -0.5221 -0.4853
  172MOL   H19634738   2.463   1.362   5.727 -3.3129 -0.8362 -1.3333
  172MOL   H19734739   2.301   1.332   5.811 -0.0691 -1.5125  0.0012
  172MOL   H19834740   2.508   1.259   5.963 -2.9523 -0.6573  0.7736
  172MOL   H19934741   2.549   1.430   5.945  0.2512 -1.0335  1.3372
  172MOL   H20034742   2.305   1.292   6.064 -1.8279  0.7456  1.0834
  172MOL   H20134743   2.306   1.465   6.052 -1.2681 -1.1993  0.4676
  172MOL   H20234744   2.441   1.382   6.143  0.1245 -0.7627 -0.7752
  173MOL     O134745   4.214   2.824   5.882 -0.1959  0.2247  0.8162
  173MOL     C234746   4.230   2.886   6.003  0.0259  0.0779  0.3447
  173MOL     C334747   4.181   3.031   6.005 -0.0425 -0.0753 -0.0976
  173MOL     C434748   4.027   3.046   6.012  0.5009 -0.0228  0.7010
  173MOL     H534749   4.334   2.872   6.032 -0.1985 -3.2941 -0.3613
  173MOL     H634750   4.177   2.825   6.076 -1.4708  1.3234  0.3404
  173MOL     H734751   4.220   3.077   6.096  0.2425 -0.6817  0.0849
  173MOL     H834752   4.223   3.083   5.919 -0.8153 -1.2745 -1.2162
  173MOL     H934753   3.996   3.018   6.113 -1.2625 -0.3442  0.0784
  173MOL    H1034754   3.969   2.974   5.955 -1.6373  1.4352  0.9824
  173MOL    H1134755   4.254   2.739   5.889 -0.0210 -0.0163 -2.4206
  173MOL    O1234756   3.983   3.172   5.977 -0.3204 -0.2567 -0.0212
  173MOL    C1334757   3.850   3.192   6.016  0.3629  0.0624  0.3645
  173MOL    C1434758   3.812   3.342   6.020  0.0733  0.4471  0.7848
  173MOL    C1534759   3.667   3.370   6.054 -0.1743 -0.4285 -0.0663
  173MOL    H1634760   3.828   3.154   6.116 -2.4493  0.7682  0.0717
  173MOL    H1734761   3.786   3.141   5.944  0.8349 -1.2618  0.8835
  173MOL    H1834762   3.875   3.394   6.093  2.0309  1.7103 -1.7154
  173MOL    H1934763   3.830   3.384   5.921 -1.8264  0.1022  0.2811
  173MOL    H2034764   3.593   3.342   5.980  0.1132  1.1442 -0.9542
  173MOL    H2134765   3.665   3.479   6.053  0.7464 -0.4021  0.0383
  173MOL    O2234766   3.644   3.353   6.194 -0.1922  0.0753 -0.0667
  173MOL    C2334767   3.511   3.386   6.222 -0.1251 -0.7317 -0.0870
  173MOL    C2434768   3.487   3.342   6.371 -0.1786  0.7460 -0.3446
  173MOL    C2534769   3.538   3.424   6.484  0.1270  0.0565  0.7485
  173MOL    H2634770   3.433   3.342   6.159 -1.1881  0.6602  0.2276
  173MOL    H2734771   3.508   3.494   6.217 -1.3232 -0.5693  2.8818
  173MOL    H2834772   3.378   3.344   6.375 -0.1708  1.5428 -0.3358
  173MOL    H2934773   3.518   3.238   6.377 -0.1172  0.7190 -1.0663
  173MOL    H3034774   3.484   3.519   6.478  2.4431  1.3059 -1.0596
  173MOL    H3134775   3.646   3.427   6.471  0.5069 -0.6728  3.5027
  173MOL    O3234776   3.513   3.354   6.603  0.4098  0.0270  0.5728
  173MOL    C3334777   3.575   3.409   6.720 -0.1785 -0.2309 -0.3112
  173MOL    C3434778   3.539   3.326   6.847  0.9051  0.7786 -0.5741
  173MOL    C3534779   3.603   3.373   6.978 -0.2794 -0.5147 -1.1815
  173MOL    H3634780   3.548   3.514   6.736  1.6265  0.0147  1.4678
  173MOL    H3734781   3.683   3.409   6.704  0.0442 -0.0476  1.0677
  173MOL    H3834782   3.430   3.337   6.853  0.6941 -1.1313 -0.6936
  173MOL    H3934783   3.548   3.219   6.829 -0.7726  0.4122  0.6249
  173MOL    H4034784   3.583   3.315   7.068  1.7004  0.9452  0.2113
  173MOL    H4134785   3.576   3.473   7.010  0.3055 -0.6873 -0.1572
  173MOL    O4234786   3.746   3.368   6.969 -0.1048 -0.4573 -0.7393
  173MOL    C4334787   3.803   3.389   7.106 -0.1833  0.0791 -0.3098
  173MOL    C4434788   3.962   3.374   7.094  0.1763 -0.2491 -0.5049
  173MOL    C4534789   4.029   3.397   7.225  0.2157 -0.3782  0.2834
  173MOL    H4634790   3.776   3.303   7.167  1.0427  0.4600  0.7970
  173MOL    H4734791   3.768   3.487   7.139 -0.9399 -0.1224 -0.5108
  173MOL    H4834792   3.990   3.278   7.052 -2.7939 -0.4855 -2.0538
  173MOL    H4934793   3.999   3.445   7.020  1.7595  0.0655  0.5557
  173MOL    H5034794   4.129   3.363   7.198  0.1628  0.7835 -1.4467
  173MOL    H5134795   3.995   3.318   7.292  1.0572 -1.1718 -0.2034
  173MOL    O5234796   4.012   3.529   7.278 -0.0933  0.0772  0.7132
  173MOL    C5334797   4.121   3.573   7.356 -0.5702  0.5413  0.6537
  173MOL    C5434798   4.074   3.699   7.431  0.8724  0.1298 -0.4403
  173MOL    C5534799   4.186   3.745   7.527  0.5272 -0.2511 -0.7327
  173MOL    H5634800   4.209   3.595   7.295 -0.7720 -0.8023 -0.1560
  173MOL    H5734801   4.165   3.493   7.416 -0.3263 -0.5498 -0.9325
  173MOL    H5834802   4.051   3.776   7.357  0.9275 -2.1668 -2.9267
  173MOL    H5934803   3.982   3.680   7.486  1.0299  0.8748  0.0887
  173MOL    H6034804   4.290   3.738   7.495  0.2304  2.6949 -2.5843
  173MOL    H6134805   4.176   3.674   7.609 -1.3859  1.3914  0.4849
  173MOL    O6234806   4.163   3.877   7.573 -0.8673 -0.7100  0.4217
  173MOL    C6334807   4.236   3.903   7.690  0.4898 -0.4879 -0.1074
  173MOL    C6434808   4.229   4.055   7.706 -0.0716  0.0016 -0.1067
  173MOL    C6534809   4.314   4.146   7.617  0.2625 -0.3780 -0.6391
  173MOL    H6634810   4.337   3.866   7.670  0.6432  0.5141 -1.2487
  173MOL    H6734811   4.199   3.850   7.778 -0.5785 -0.1522 -0.3463
  173MOL    H6834812   4.123   4.076   7.691 -0.3306 -0.9995  0.2891
  173MOL    H6934813   4.246   4.087   0.020 -0.1463 -0.1410 -0.0519
  173MOL    H7034814   4.280   4.249   7.617  0.7896 -0.1973  0.5940
  173MOL    H7134815   4.319   4.112   7.513 -1.1224 -3.1819  0.1704
  173MOL    O7234816   4.449   4.153   7.664 -0.0011  0.1592  0.2486
  173MOL    C7334817   4.537   4.197   7.566  0.5002 -0.0674 -0.8574
  173MOL    C7434818   4.688   4.174   7.590 -0.0257 -0.1020 -0.5295
  173MOL    C7534819   4.771   4.297   7.596  0.3832 -0.0630  0.2798
  173MOL    H7634820   4.512   4.303   7.561 -0.3394 -0.3471 -3.2195
  173MOL    H7734821   4.514   4.151   7.469  1.6010 -1.0224 -0.6753
  173MOL    H7834822   4.704   4.115   7.680 -2.8299 -1.2617 -0.7458
  173MOL    H7934823   4.715   4.107   7.509  0.2509 -1.5253  0.7238
  173MOL    H8034824   4.746   4.360   7.681 -0.0425  0.3369 -0.1401
  173MOL    H8134825   4.754   4.359   7.508  4.0455  0.4481 -0.1849
  173MOL    O8234826   4.911   4.263   7.589  0.3696  0.2925 -0.5480
  173MOL    C8334827   4.996   4.373   7.606 -0.1107 -0.2669 -0.3618
  173MOL    C8434828   5.135   4.319   7.610 -0.1858  0.6530 -0.6778
  173MOL    C8534829   5.161   4.234   7.738  0.1250  0.3449 -0.6852
  173MOL    H8634830   4.976   4.427   7.698  2.5901  0.6221 -0.2647
  173MOL    H8734831   4.967   4.438   7.523 -1.2102 -0.9079 -0.5036
  173MOL    H8834832   5.154   4.256   7.523  2.4161  0.5030 -0.0425
  173MOL    H8934833   5.211   4.397   7.612  1.1898 -0.6782 -0.1095
  173MOL    H9034834   5.264   4.199   7.746  1.0674  3.0695 -0.4291
  173MOL    H9134835   5.090   4.152   7.749  1.6183 -0.9238 -0.3177
  173MOL    O9234836   5.146   4.313   0.073 -0.3255  0.5094  0.4262
  173MOL    C9334837   5.158   4.245   0.193  0.6434  0.8867 -0.0808
  173MOL    C9434838   5.305   4.224   0.228  0.8116  0.4467  0.4837
  173MOL    C9534839   5.324   4.170   0.368 -0.6492 -0.4740  0.0596
  173MOL    H9634840   5.099   4.153   0.189 -1.2409  2.0369  0.5522
  173MOL    H9734841   5.104   4.308   0.263  1.3524  2.2578 -0.7368
  173MOL    H9834842   5.347   4.155   0.155 -2.9616 -0.3254 -1.0833
  173MOL    H9934843   5.358   4.317   0.213  1.1103 -0.1882 -2.6295
  173MOL   H10034844   5.242   4.106   0.402 -1.4547  0.7926  0.5243
  173MOL   H10134845   5.322   4.254   0.437 -0.3118  0.0201 -0.5336
  173MOL   O10234846   5.452   4.113   0.362 -0.2234  0.6331  0.1579
  173MOL   C10334847   5.476   4.026   0.478 -0.2808 -0.1540 -0.0606
  173MOL   C10434848   5.600   3.946   0.452 -0.3746  0.1165  0.0147
  173MOL   C10534849   5.656   3.853   0.562 -0.0859  0.1839  0.6218
  173MOL   H10634850   5.393   3.956   0.484  0.2275 -0.6733  1.0814
  173MOL   H10734851   5.494   4.084   0.569  0.7053  2.4531 -1.8715
  173MOL   H10834852   5.580   3.877   0.370  0.9389  0.3217 -0.4883
  173MOL   H10934853   5.684   4.011   0.426  0.0666  0.7614  2.8426
  173MOL   H11034854   5.609   3.754   0.570 -1.0178  0.5927  0.2512
  173MOL   H11134855   5.642   3.895   0.662 -0.2199  0.2420  0.5781
  173MOL   O11234856   5.788   3.810   0.522  0.9176  0.3021  0.3008
  173MOL   C11334857   5.857   3.731   0.617  0.0903  0.2719  0.4990
  173MOL   C11434858   6.003   3.713   0.575 -0.1389  0.4545  0.1829
  173MOL   C11534859   6.073   3.580   0.615  0.1200  0.1899  1.0241
  173MOL   H11634860   5.800   3.639   0.628  1.4854 -0.6109  0.4861
  173MOL   H11734861   5.851   3.774   0.717  1.8562  1.5932  0.0567
  173MOL   H11834862   6.011   3.749   0.472 -0.9341  2.1446  0.6941
  173MOL   H11934863   6.054   3.789   0.632  1.2041 -1.2218  1.2580
  173MOL   H12034864   6.050   3.563   0.720 -2.2485  0.7078  0.6127
  173MOL   H12134865   6.182   3.585   0.605  0.1065 -0.6016  0.5059
  173MOL   O12234866   6.033   3.469   0.534 -0.2473 -0.0190 -0.1391
  173MOL   C12334867   6.089   3.352   0.578 -0.2849 -0.5645 -0.7619
  173MOL   C12434868   6.101   3.254   0.460 -0.2169 -0.2246  0.0936
  173MOL   C12534869   6.194   3.295   0.343  0.0008 -0.0514 -0.5155
  173MOL   H12634870   6.031   3.324   0.666  0.4520  0.9391  0.2193
  173MOL   H12734871   6.190   3.362   0.618 -0.4855 -0.3590 -0.3099
  173MOL   H12834872   6.144   3.164   0.504  0.7377  0.5168  0.6977
  173MOL   H12934873   6.007   3.221   0.416 -0.0477 -3.6909  2.1239
  173MOL   H13034874   6.296   3.306   0.379  0.2257  0.2126 -1.2367
  173MOL   H13134875   6.168   3.396   0.311 -1.9040 -0.7764 -1.3091
  173MOL   O13234876   6.186   3.211   0.227  0.0050  0.2282 -0.2102
  173MOL   C13334877   6.285   3.252   0.129 -0.6376 -0.0667  0.5706
  173MOL   C13434878   6.294   3.138   0.017 -0.1144 -0.1226 -0.2277
  173MOL   C13534879   6.419   3.147   7.718 -0.0109 -0.5801 -0.2704
  173MOL   H13634880   6.386   3.252   0.169  0.7439 -1.2794 -2.8051
  173MOL   H13734881   6.254   3.351   0.095  0.8027  0.8429  1.8026
  173MOL   H13834882   6.286   3.040   0.064 -0.6889 -0.5922 -1.2942
  173MOL   H13934883   6.205   3.163   7.747 -0.1739  0.0351 -0.0732
  173MOL   H14034884   6.517   3.134   7.764 -0.6858 -2.5692  0.6755
  173MOL   H14134885   6.426   3.244   7.669 -0.2958 -1.6113 -2.4195
  173MOL   O14234886   6.408   3.049   7.623  1.2225  0.6254  0.3068
  173MOL   C14334887   6.509   3.047   7.526 -0.4581 -0.3518 -0.3664
  173MOL   C14434888   6.467   2.957   7.405  0.0316  0.1287  0.1205
  173MOL   C14534889   6.408   2.823   7.452 -0.2179 -0.6432 -0.5263
  173MOL   H14634890   6.599   3.015   7.578  0.2474  1.3644 -0.4823
  173MOL   H14734891   6.535   3.146   7.489 -0.7022 -0.0940  0.1600
  173MOL   H14834892   6.390   3.003   7.344 -1.0694  0.8934  2.0323
  173MOL   H14934893   6.544   2.939   7.330 -1.5323  1.9577 -1.9792
  173MOL   H15034894   6.317   2.846   7.507  0.3064 -2.6223  1.2579
  173MOL   H15134895   6.488   2.777   7.510 -0.9878 -1.4688 -0.1107
  173MOL   O15234896   6.363   2.743   7.348 -0.1322 -0.1003  0.4450
  173MOL   C15334897   6.295   2.630   7.393 -0.8391 -1.0214  0.0216
  173MOL   C15434898   6.263   2.514   7.298 -0.9002 -0.5895  0.1348
  173MOL   C15534899   6.390   2.437   7.256  0.2964 -0.6785 -1.0133
  173MOL   H15634900   6.202   2.676   7.426  0.1798  2.0329 -1.1777
  173MOL   H15734901   6.342   2.583   7.479  1.2560  1.4117  0.2830
  173MOL   H15834902   6.196   2.447   7.352 -1.2078 -1.2930 -1.0892
  173MOL   H15934903   6.206   2.547   7.211  1.6850 -0.4687 -1.5582
  173MOL   H16034904   6.448   2.402   7.341  0.9302  0.9513 -0.7571
  173MOL   H16134905   6.450   2.512   7.203  0.2684 -2.0328 -3.0538
  173MOL   O16234906   6.341   2.322   7.186 -0.1302  0.1098 -0.0011
  173MOL   C16334907   6.454   2.229   7.170 -0.3987 -1.3685 -0.0897
  173MOL   C16434908   6.423   2.123   7.066 -0.0722  0.0447 -0.4682
  173MOL   C16534909   6.549   2.062   7.023  0.3537 -1.0914  1.0166
  173MOL   H16634910   6.503   2.197   7.262 -1.3349 -1.5838  0.3399
  173MOL   H16734911   6.523   2.287   7.108 -1.6121  2.5725  2.0688
  173MOL   H16834912   6.347   2.050   7.096  0.1155 -0.5750 -1.4799
  173MOL   H16934913   6.374   2.168   6.980  1.5176 -1.8599 -2.4253
  173MOL   H17034914   6.585   2.008   7.111  0.0226 -1.9302  0.6394
  173MOL   H17134915   6.622   2.124   6.972 -1.7961  0.9304  0.3137
  173MOL   O17234916   6.511   1.960   6.933 -0.0044  0.0232 -0.5246
  173MOL   C17334917   6.605   1.854   6.927 -0.1611 -0.1039  0.1053
  173MOL   C17434918   6.585   1.776   6.801  0.4160 -0.0230  0.5673
  173MOL   C17534919   6.699   1.681   6.773 -0.5113 -0.1808 -0.0748
  173MOL   H17634920   6.592   1.789   7.013  1.8201  0.3731  0.7874
  173MOL   H17734921   6.711   1.877   6.923  0.4167 -2.8742 -1.9091
  173MOL   H17834922   6.492   1.721   6.817 -0.9038  1.6042 -1.1236
  173MOL   H17934923   6.565   1.847   6.720 -3.4151  0.5268  1.8758
  173MOL   H18034924   6.682   1.641   6.674  2.1880  1.1091 -1.1319
  173MOL   H18134925   6.705   1.598   6.844  0.7795 -0.4580 -0.4873
  173MOL   O18234926   6.829   1.738   6.768 -0.3738 -0.6069 -0.1938
  173MOL   C18334927   6.937   1.665   6.722 -0.2339  0.0067 -0.4823
  173MOL   C18434928   7.061   1.735   6.785 -0.2008  0.5076 -0.4440
  173MOL   C18534929   7.099   1.860   6.700 -0.0112 -0.6568 -0.0475
  173MOL   H18634930   6.934   1.666   6.613  0.2123  0.1001 -0.4932
  173MOL   H18734931   6.929   1.558   6.739 -0.4830  0.0409 -0.3738
  173MOL   H18834932   7.049   1.761   6.890 -0.1740 -0.3114 -0.2331
  173MOL   H18934933   7.145   1.665   6.783 -0.3966  0.3151 -2.5620
  173MOL   H19034934   7.017   1.930   6.682 -0.1083 -1.1367 -1.4806
  173MOL   H19134935   7.128   1.819   6.604 -0.5584  1.0503 -0.9630
  173MOL   O19234936   7.210   1.928   6.744  0.0456 -0.1915 -0.3484
  173MOL   C19334937   7.247   2.031   6.645 -0.5279  0.1297 -0.7252
  173MOL   C19434938   7.353   2.121   6.710  0.1461  0.6381 -0.3856
  173MOL   C19534939   7.408   2.229   6.622 -0.1187 -0.2722 -0.3740
  173MOL   H19634940   7.159   2.091   6.621 -1.2108 -1.2408 -1.7362
  173MOL   H19734941   7.288   1.991   6.552 -0.0491 -0.1239 -0.4070
  173MOL   H19834942   7.299   2.170   6.792 -2.8382  0.5032 -2.1857
  173MOL   H19934943   7.432   2.056   6.747  0.3129  0.1038 -1.6723
  173MOL   H20034944   7.341   2.316   6.625  1.2601  0.7814  0.9535
  173MOL   H20134945   7.410   2.204   6.516  2.3901 -0.9901 -0.1923
  173MOL   H20234946   7.506   2.264   6.654 -0.2402 -0.3059  0.0341
  174MOL     O134947   5.637   7.262   4.387 -0.4694  0.0052  0.5844
  174MOL     C234948   5.743   7.257   4.469 -0.2528 -0.3804 -0.6651
  174MOL     C334949   5.859   7.194   4.393  0.4412 -0.1522  0.6960
  174MOL     C434950   5.984   7.201   4.482  0.3143 -0.8310 -0.2466
  174MOL     H534951   5.725   7.201   4.560  2.0288 -1.8128 -1.0595
  174MOL     H634952   5.763   7.360   4.500  1.1404 -0.9460  0.3607
  174MOL     H734953   5.841   7.087   4.381  0.7602 -0.2105  0.7023
  174MOL     H834954   5.865   7.228   4.289 -0.9326 -0.0783  0.6407
  174MOL     H934955   6.076   7.171   4.431 -0.8787 -1.8392 -1.8533
  174MOL    H1034956   5.974   7.128   4.562 -2.2088  1.7797  1.9043
  174MOL    H1134957   5.656   7.313   4.310 -2.8644  1.2750  0.7938
  174MOL    O1234958   6.003   7.327   4.541  0.0120 -0.2376  0.1775
  174MOL    C1334959   6.061   7.425   4.455  0.8214 -0.3918 -0.6366
  174MOL    C1434960   6.055   7.562   4.522 -0.3369 -0.3342  0.0398
  174MOL    C1534961   5.923   7.617   4.575  0.3244  0.1380  0.8682
  174MOL    H1634962   6.013   7.421   4.358  2.6074  0.0726 -1.5713
  174MOL    H1734963   6.162   7.398   4.424  1.7186 -0.5323  2.2015
  174MOL    H1834964   6.128   7.556   4.603  0.5757 -1.3033 -0.8320
  174MOL    H1934965   6.079   7.642   4.452 -2.3246  0.6983  0.5170
  174MOL    H2034966   5.879   7.555   4.654  0.3184 -0.2866  0.5342
  174MOL    H2134967   5.844   7.621   4.500 -0.9639 -1.5813  2.0926
  174MOL    O2234968   5.943   7.747   4.629 -0.4549 -0.5828  0.6714
  174MOL    C2334969   5.828   0.029   4.668  0.7438 -0.2667  0.2741
  174MOL    C2434970   5.864   0.170   4.682 -0.0451 -0.3023 -0.2574
  174MOL    C2534971   5.756   0.252   4.751 -0.8450 -0.0135  0.9629
  174MOL    H2634972   5.788   7.769   4.757  1.4839 -1.4251 -0.0257
  174MOL    H2734973   5.753   0.018   4.589  0.9338  0.8368 -0.0676
  174MOL    H2834974   5.949   0.177   4.750 -1.4402 -0.0564  1.5337
  174MOL    H2934975   5.901   0.209   4.588  1.2777 -3.4430 -1.0789
  174MOL    H3034976   5.777   0.259   4.857 -0.3526  0.7557  0.8187
  174MOL    H3134977   5.656   0.208   4.741 -1.1569  0.6323  1.1790
  174MOL    O3234978   5.760   0.381   4.691 -0.1309  0.1497 -0.5692
  174MOL    C3334979   5.641   0.461   4.702  0.2521  0.3382 -0.1232
  174MOL    C3434980   5.662   0.599   4.625  0.1290  0.1417  0.3536
  174MOL    C3534981   5.539   0.675   4.613  0.4950  0.2377  0.6410
  174MOL    H3634982   5.619   0.496   4.802  1.9510 -0.9405  0.7235
  174MOL    H3734983   5.556   0.405   4.661 -0.7573  1.2144  0.7489
  174MOL    H3834984   5.747   0.655   4.663  0.1325  0.0159  0.5309
  174MOL    H3934985   5.703   0.576   4.527 -0.2740  0.6610  0.0584
  174MOL    H4034986   5.518   0.710   4.714  0.6566 -0.0699  0.7827
  174MOL    H4134987   5.451   0.615   4.590  1.0303  0.0932 -1.1060
  174MOL    O4234988   5.562   0.782   4.528  0.5912 -0.0265 -0.0879
  174MOL    C4334989   5.436   0.843   4.506  0.0727 -0.1923  0.7623
  174MOL    C4434990   5.467   0.988   4.460  0.0552  0.6969  0.3716
  174MOL    C4534991   5.339   1.062   4.429 -0.4277  0.1106  0.0635
  174MOL    H4634992   5.368   0.843   4.591  0.9344 -1.4508  1.4764
  174MOL    H4734993   5.392   0.776   4.432 -0.8088 -0.1135  1.2041
  174MOL    H4834994   5.523   1.046   4.533  2.1922 -0.1243 -0.5646
  174MOL    H4934995   5.523   0.988   4.366 -0.7952 -0.5735 -0.1448
  174MOL    H5034996   5.286   1.083   4.522 -2.6366  0.5351 -1.2479
  174MOL    H5134997   5.272   1.002   4.367  0.7020 -1.6827  0.5297
  174MOL    O5234998   5.360   1.179   4.350 -0.3825 -0.6444 -0.2368
  174MOL    C5334999   5.238   1.245   4.334  0.7291  0.5523  0.1175
  174MOL    C5435000   5.266   1.378   4.269  0.5545  0.1140 -0.4386
  174MOL    C5535001   5.146   1.449   4.212  0.0957 -0.1987  0.2430
  174MOL    H5635002   5.200   1.264   4.434 -0.0004 -3.9818  0.8171
  174MOL    H5735003   5.169   1.190   4.270  1.9801  0.6837 -1.3764
  174MOL    H5835004   5.291   1.438   4.356  0.9242 -1.0518  0.2635
  174MOL    H5935005   5.350   1.378   4.199 -0.2649  1.4550 -1.4570
  174MOL    H6035006   5.076   1.475   4.291 -1.5434  2.5643 -1.9903
  174MOL    H6135007   5.096   1.379   4.145 -0.6216  1.8839 -1.5024
  174MOL    O6235008   5.187   1.567   4.136 -0.4136  0.5584 -0.5540
  174MOL    C6335009   5.078   1.647   4.094  0.3104  0.7091 -0.0654
  174MOL    C6435010   5.144   1.776   4.046  0.0105  0.0281  0.3480
  174MOL    C6535011   5.043   1.872   3.984 -0.4090 -0.4062  0.6468
  174MOL    H6635012   5.000   1.669   4.167 -0.3306 -0.3602 -0.4189
  174MOL    H6735013   5.035   1.599   4.006 -1.3391  1.2798  0.4022
  174MOL    H6835014   5.200   1.822   4.127 -0.1532 -1.0371  1.0794
  174MOL    H6935015   5.218   1.738   3.975  0.2081 -1.6435  1.4052
  174MOL    H7035016   4.985   1.914   4.066 -0.6245  1.2814 -0.3386
  174MOL    H7135017   4.986   1.821   3.906 -1.7492  1.1072  0.5900
  174MOL    O7235018   5.110   1.979   3.918  0.0954 -0.2494 -0.5600
  174MOL    C7335019   5.019   2.077   3.864  0.5185 -0.6792  0.6014
  174MOL    C7435020   5.088   2.180   3.771  0.1852  0.6936 -0.3851
  174MOL    C7535021   5.190   2.267   3.846  0.3603  0.4180 -0.2301
  174MOL    H7635022   4.967   2.128   3.946  1.6057 -1.0910  1.5630
  174MOL    H7735023   4.945   2.018   3.810  0.8324 -1.8246  1.4049
  174MOL    H7835024   5.140   2.121   3.695 -0.6564  0.0977 -0.4985
  174MOL    H7935025   5.015   2.240   3.718 -1.1144 -0.9647 -0.5321
  174MOL    H8035026   5.267   2.204   3.889 -1.2169 -1.5772 -0.2159
  174MOL    H8135027   5.139   2.326   3.923  1.1409  0.5420  0.1891
  174MOL    O8235028   5.247   2.352   3.747 -0.4048 -0.2580 -0.2492
  174MOL    C8335029   5.368   2.419   3.788  0.2383 -0.6195  0.4180
  174MOL    C8435030   5.367   2.522   3.897  0.4012 -0.3342  0.5351
  174MOL    C8535031   5.498   2.598   3.924 -0.4681 -0.0456 -0.0804
  174MOL    H8635032   5.406   2.466   3.698 -1.1871 -0.3991 -0.0867
  174MOL    H8735033   5.438   2.337   3.805  3.0030  1.5644 -0.0727
  174MOL    H8835034   5.301   2.602   3.863  0.8363  0.8634  2.4549
  174MOL    H8935035   5.326   2.475   3.986  2.3218 -0.6393  1.2772
  174MOL    H9035036   5.539   2.633   3.829 -2.5429 -1.8969 -1.7219
  174MOL    H9135037   5.573   2.535   3.971  0.0736  1.7790  1.5586
  174MOL    O9235038   5.470   2.709   4.005 -0.0290  0.5511 -0.1677
  174MOL    C9335039   5.584   2.795   4.027 -0.3200  0.2629  0.7399
  174MOL    C9435040   5.679   2.740   4.131  0.0664 -0.4024 -0.7329
  174MOL    C9535041   5.604   2.721   4.269  0.0626  0.4340 -0.3090
  174MOL    H9635042   5.550   2.895   4.056  1.2890  0.8932  0.5197
  174MOL    H9735043   5.636   2.806   3.932 -2.2138  0.0587 -0.3582
  174MOL    H9835044   5.714   2.641   4.102 -0.3135 -0.4835 -0.9230
  174MOL    H9935045   5.762   2.808   4.147 -0.3982 -0.2462  1.2083
  174MOL   H10035046   5.518   2.655   4.257 -1.6942  3.0676 -2.9828
  174MOL   H10135047   5.580   2.816   4.318  1.2347  0.0139  1.1355
  174MOL   O10235048   5.685   2.659   4.369  0.6481 -0.2728 -0.4469
  174MOL   C10335049   5.614   2.627   4.484  0.3428 -0.6916  0.2240
  174MOL   C10435050   5.710   2.550   4.569  0.0197 -0.0644  0.6651
  174MOL   C10535051   5.644   2.505   4.708 -0.2941 -0.1091  0.1361
  174MOL   H10635052   5.528   2.559   4.478 -0.7261  0.7433 -0.8895
  174MOL   H10735053   5.589   2.722   4.531  0.2561 -0.7523  0.3020
  174MOL   H10835054   5.757   2.464   4.522 -0.9154 -0.8695  1.1812
  174MOL   H10935055   5.796   2.615   4.588 -0.1219  0.2744  0.1652
  174MOL   H11035056   5.700   2.446   4.781  3.0487  0.1890 -2.1141
  174MOL   H11135057   5.546   2.460   4.691  0.3158 -1.7618  0.8700
  174MOL   O11235058   5.635   2.626   4.796  0.0698  0.4346  0.1096
  174MOL   C11335059   5.533   2.620   4.897  0.0934  0.0095 -0.5524
  174MOL   C11435060   5.564   2.744   4.993 -0.3080  0.1431 -0.6892
  174MOL   C11535061   5.711   2.739   5.046  0.6008  0.1933  0.7642
  174MOL   H11635062   5.540   2.529   4.956  4.2023 -0.4893 -1.6734
  174MOL   H11735063   5.439   2.632   4.844  2.0944  2.0342 -3.8008
  174MOL   H11835064   5.556   2.844   4.951  0.8017  1.3436  1.8656
  174MOL   H11935065   5.506   2.738   5.085  1.5547  0.3984  0.5209
  174MOL   H12035066   5.785   2.741   4.966  0.5595  0.5999  0.7356
  174MOL   H12135067   5.720   2.647   5.104  0.0126 -0.3676 -0.0232
  174MOL   O12235068   5.735   2.834   5.149 -0.2677 -0.7611  0.0215
  174MOL   C12335069   5.862   2.821   5.221 -0.4572  0.3294  0.6805
  174MOL   C12435070   5.873   2.947   5.309  0.2532 -0.7330 -0.4005
  174MOL   C12535071   5.992   2.934   5.405 -0.4956 -0.8441 -0.0729
  174MOL   H12635072   5.940   2.805   5.146 -0.9436  1.0332  0.0140
  174MOL   H12735073   5.867   2.733   5.286 -0.4433 -2.2933 -2.7212
  174MOL   H12835074   5.881   3.031   5.240  0.4770 -0.7534 -0.3995
  174MOL   H12935075   5.780   2.954   5.366  1.0385 -0.6442  0.8842
  174MOL   H13035076   6.089   2.935   5.356  0.1138 -0.2444  1.1442
  174MOL   H13135077   5.982   2.836   5.452 -0.1692 -1.2260 -0.7872
  174MOL   O13235078   5.985   3.039   5.502  0.3952  0.5055 -0.6821
  174MOL   C13335079   6.044   3.169   5.476 -0.2445  0.7889 -0.5570
  174MOL   C13435080   6.055   3.245   5.609  0.4291 -0.1161  0.7325
  174MOL   C13535081   6.121   3.386   5.607  0.9486 -0.2756 -0.3039
  174MOL   H13635082   5.990   3.230   5.403 -0.6311  1.8988  0.6316
  174MOL   H13735083   6.147   3.149   5.448  0.5623  3.0403  0.7161
  174MOL   H13835084   5.953   3.264   5.644 -0.0956  0.3872 -0.9913
  174MOL   H13935085   6.098   3.189   5.691 -2.8615 -0.8323  2.0685
  174MOL   H14035086   6.219   3.369   5.563  1.4564 -0.0054  0.7166
  174MOL   H14135087   6.120   3.422   5.710  1.3512  1.8863 -1.0160
  174MOL   O14235088   6.048   3.475   5.525  0.4006  0.0456 -0.1233
  174MOL   C14335089   6.123   3.586   5.496  0.8778 -0.4224 -0.1855
  174MOL   C14435090   6.043   3.693   5.421 -0.1402 -0.4224  0.4380
  174MOL   C14535091   6.130   3.811   5.386 -0.1655  0.1236  0.1794
  174MOL   H14635092   6.218   3.573   5.445  1.5997  0.2999  0.9539
  174MOL   H14735093   6.151   3.627   5.593 -0.7366 -1.7877  0.8944
  174MOL   H14835094   5.993   3.656   5.332 -0.6611 -2.3336  1.4932
  174MOL   H14935095   5.964   3.724   5.489 -1.6081 -1.9027 -0.5446
  174MOL   H15035096   6.213   3.792   5.318 -0.9117 -0.6921 -0.5194
  174MOL   H15135097   6.190   3.850   5.468  1.1553 -1.4950  0.0158
  174MOL   O15235098   6.045   3.919   5.353  0.8701  0.6571 -0.3465
  174MOL   C15335099   6.123   4.038   5.324 -0.4049  0.4859  0.5475
  174MOL   C15435100   6.051   4.139   5.232  0.1873  0.3720  0.4114
  174MOL   C15535101   6.047   4.102   5.084 -0.0607 -0.0791  1.6624
  174MOL   H15635102   6.227   4.020   5.297 -0.3899  1.7118 -0.2509
  174MOL   H15735103   6.126   4.076   5.427 -0.4771 -1.1891  1.1896
  174MOL   H15835104   5.957   4.150   5.286 -0.4960  1.1614 -0.9274
  174MOL   H15935105   6.088   4.241   5.241  1.2070  0.1013 -0.5693
  174MOL   H16035106   5.981   4.173   5.037 -1.6227 -0.8217  2.6835
  174MOL   H16135107   5.999   4.004   5.083 -2.8078  1.2509 -1.9103
  174MOL   O16235108   6.173   4.118   5.025 -0.3402 -0.2252  0.4565
  174MOL   C16335109   6.169   4.081   4.888  0.3766 -0.0683 -0.5395
  174MOL   C16435110   6.131   4.190   4.787  0.9370 -0.1887 -0.4974
  174MOL   C16535111   6.130   4.158   4.639 -0.5312  0.2726 -0.6643
  174MOL   H16635112   6.103   3.995   4.885 -3.2747  2.6642 -2.5721
  174MOL   H16735113   6.264   4.034   4.865  1.6733  2.0538  0.2708
  174MOL   H16835114   6.029   4.221   4.810  1.5367 -0.6939  3.0994
  174MOL   H16935115   6.187   4.282   4.805 -0.4737  0.6664 -0.4099
  174MOL   H17035116   6.086   4.060   4.622 -1.1554  0.5677 -0.7899
  174MOL   H17135117   6.235   4.147   4.611 -0.4800 -0.5197 -0.1588
  174MOL   O17235118   6.080   4.279   4.577 -0.0499  0.0640  0.3488
  174MOL   C17335119   6.012   4.258   4.450 -0.2127 -0.6306  0.2432
  174MOL   C17435120   5.867   4.223   4.488  0.5741 -0.5486 -0.1364
  174MOL   C17535121   5.774   4.222   4.365 -0.1645 -0.6881 -0.2249
  174MOL   H17635122   6.071   4.183   4.397  0.1278 -0.1527 -0.0517
  174MOL   H17735123   6.030   4.355   4.404  0.8582 -0.5179  0.8752
  174MOL   H17835124   5.852   4.127   4.538 -0.6363  0.0352  0.6502
  174MOL   H17935125   5.825   4.294   4.559  1.6423 -0.5250  0.4812
  174MOL   H18035126   5.790   4.128   4.312  2.5439 -1.5149  1.9113
  174MOL   H18135127   5.791   4.305   4.297 -1.6103  0.6510  0.9949
  174MOL   O18235128   5.639   4.218   4.417  0.0474  0.3426 -0.1492
  174MOL   C18335129   5.547   4.226   4.300  0.4312  0.1142  0.1777
  174MOL   C18435130   5.410   4.271   4.357 -0.1366 -0.3044  0.2360
  174MOL   C18535131   5.291   4.257   4.268  0.2055  0.9751  0.2139
  174MOL   H18635132   5.531   4.126   4.259  0.9622 -0.4772  1.3722
  174MOL   H18735133   5.572   4.288   4.214 -0.1907 -1.2559 -1.0040
  174MOL   H18835134   5.380   4.216   4.447 -1.7854  0.2276  0.0311
  174MOL   H18935135   5.434   4.373   4.387 -1.3891  0.0735  0.0084
  174MOL   H19035136   5.273   4.153   4.241  0.1814  0.9358  0.3794
  174MOL   H19135137   5.317   4.300   4.171 -1.2016  1.5045  0.0523
  174MOL   O19235138   5.178   4.338   4.313 -0.0580 -0.1473  0.7776
  174MOL   C19335139   5.072   4.351   4.215 -0.6534  0.6030  0.4598
  174MOL   C19435140   4.951   4.433   4.261 -0.2400 -0.1946  0.4222
  174MOL   C19535141   4.853   4.485   4.150 -0.3833  0.8307 -0.1487
  174MOL   H19635142   5.047   4.255   4.171  2.6289 -0.5115  0.9252
  174MOL   H19735143   5.117   4.407   4.133  1.1741 -1.0012  0.3362
  174MOL   H19835144   4.889   4.378   4.331 -1.0153  1.7576  1.3144
  174MOL   H19935145   4.990   4.516   4.320 -0.7207  0.1159  0.3048
  174MOL   H20035146   4.912   4.552   4.088  0.2657 -0.4243 -0.9072
  174MOL   H20135147   4.769   4.546   4.183 -0.8178  1.0598 -1.6217
  174MOL   H20235148   4.810   4.401   4.094 -0.6299 -0.9892  2.6498
  175MOL     O135149   0.252   3.047   0.320 -0.4688 -0.0532 -0.1666
  175MOL     C235150   0.139   3.128   0.325 -0.2170 -0.3280 -0.3301
  175MOL     C335151   0.038   3.067   0.419  0.4010  0.1422  0.6473
  175MOL     C435152   7.685   3.133   0.406  0.1580 -0.0829  0.0371
  175MOL     H535153   0.095   3.133   0.225 -0.5638 -0.9711 -0.2132
  175MOL     H635154   0.156   3.230   0.359  0.5002  0.3968 -2.7950
  175MOL     H735155   0.041   2.960   0.398  0.7193  0.2367  0.2095
  175MOL     H835156   0.087   3.076   0.516  1.8187  0.1971 -0.0589
  175MOL     H935157   7.650   3.115   0.304  0.8857 -0.3713 -0.1630
  175MOL    H1035158   7.691   3.242   0.417  1.2954 -0.2088  0.7188
  175MOL    H1135159   0.311   3.088   0.259 -2.0211  0.1595 -1.5574
  175MOL    O1235160   7.607   3.071   0.506  0.5466 -0.4133 -0.2002
  175MOL    C1335161   7.482   3.128   0.508  0.4887 -0.5097  0.3614
  175MOL    C1435162   7.390   3.044   0.600  0.0124  0.7811  0.4807
  175MOL    C1535163   7.428   3.041   0.748 -0.5247  0.0075  0.4165
  175MOL    H1635164   7.439   3.143   0.409  2.2410 -1.4333 -0.5727
  175MOL    H1735165   7.492   3.230   0.545  1.6697 -1.3733  2.4838
  175MOL    H1835166   7.292   3.091   0.590  0.5144  1.6119 -0.6283
  175MOL    H1935167   7.384   2.945   0.555 -1.6342  0.9109  0.3536
  175MOL    H2035168   7.445   3.140   0.789 -0.6663  0.5362 -0.7968
  175MOL    H2135169   7.517   2.977   0.752 -2.2804 -2.4787  0.5611
  175MOL    O2235170   7.315   2.981   0.809  0.1717 -0.4083  0.2548
  175MOL    C2335171   7.334   2.962   0.953  0.1772 -0.9952  0.5845
  175MOL    C2435172   7.204   2.916   1.018  0.7407 -0.6057  0.2343
  175MOL    C2535173   7.229   2.889   1.166  0.1334 -0.1380  0.2656
  175MOL    H2635174   7.364   3.061   0.985  2.1618 -0.9092 -1.4141
  175MOL    H2735175   7.410   2.886   0.973  2.4180  0.9178 -0.4516
  175MOL    H2835176   7.126   2.993   1.016  1.0054 -0.2359  2.9899
  175MOL    H2935177   7.161   2.826   0.974 -0.9725  0.7265 -0.9011
  175MOL    H3035178   7.315   2.823   1.176  0.6008  0.8328  3.2946
  175MOL    H3135179   7.147   2.835   1.214 -0.6383  0.8153  0.0495
  175MOL    O3235180   7.252   3.014   1.221  0.5280 -0.6541 -0.3428
  175MOL    C3335181   7.258   3.025   1.361  0.0161  0.3068 -0.3848
  175MOL    C3435182   7.399   3.003   1.405  0.0326  0.2019  0.7935
  175MOL    C3535183   7.489   3.110   1.337 -0.2836 -0.1285 -0.4190
  175MOL    H3635184   7.193   2.951   1.409 -1.8576  1.0714 -1.6963
  175MOL    H3735185   7.226   3.125   1.391  0.1952  0.3878 -0.4581
  175MOL    H3835186   7.419   3.019   1.511  0.2649 -0.7715  0.8957
  175MOL    H3935187   7.427   2.900   1.385 -2.9186 -0.0452 -2.5445
  175MOL    H4035188   7.493   3.092   1.230 -0.8344  0.8012 -0.5992
  175MOL    H4135189   7.590   3.093   1.376  0.0700  1.9163 -0.4165
  175MOL    O4235190   7.434   3.237   1.359 -0.0991 -0.3307  0.4293
  175MOL    C4335191   7.519   3.342   1.311 -0.2189 -0.4271  0.6985
  175MOL    C4435192   7.530   3.345   1.152  0.1347 -0.0414 -0.5672
  175MOL    C4535193   7.602   3.473   1.093  0.2181  0.1385 -0.4289
  175MOL    H4635194   7.619   3.340   1.354  0.4212  0.8988 -0.6872
  175MOL    H4735195   7.486   3.443   1.338 -0.6099 -0.3446 -0.0566
  175MOL    H4835196   7.578   3.251   1.123 -2.5595 -1.7662  0.2995
  175MOL    H4935197   7.429   3.337   1.110 -0.0115 -2.9178  0.2322
  175MOL    H5035198   7.694   3.477   1.151  0.8894 -0.4588 -1.4371
  175MOL    H5135199   7.541   3.559   1.119  1.5475  0.8275  0.4704
  175MOL    O5235200   7.613   3.461   0.953  0.1458  0.1666  0.1263
  175MOL    C5335201   7.718   3.527   0.901 -1.2179  0.0822  0.3246
  175MOL    C5435202   7.748   3.485   0.751 -1.0436 -0.1738  0.1958
  175MOL    C5535203   0.109   3.460   0.715 -0.0102 -0.0015 -0.1055
  175MOL    H5635204   0.013   3.485   0.959 -1.1243 -0.4193 -0.1729
  175MOL    H5735205   7.717   3.635   0.917  4.5786  0.2039  1.0919
  175MOL    H5835206   7.690   3.394   0.733 -2.5026  0.6238  0.7442
  175MOL    H5935207   7.700   3.547   0.675 -0.8768  2.0478  1.8286
  175MOL    H6035208   0.173   3.547   0.699  1.2475 -1.2908 -2.3514
  175MOL    H6135209   0.106   3.432   0.610 -0.9548 -0.0860 -0.0581
  175MOL    O6235210   0.164   3.358   0.800  0.4625  0.2210 -0.1412
  175MOL    C6335211   0.121   3.223   0.780 -0.1804 -0.5139 -0.2626
  175MOL    C6435212   0.088   3.157   0.913  0.1509  0.2841  0.1673
  175MOL    C6535213   0.060   3.009   0.881  0.0096  0.6392  0.4946
  175MOL    H6635214   0.201   3.169   0.730 -0.4876  0.5258 -1.9297
  175MOL    H6735215   0.043   3.213   0.705 -1.0352  5.2373 -0.3727
  175MOL    H6835216   0.173   3.180   0.976 -0.5220  0.2057  1.1218
  175MOL    H6935217   7.787   3.200   0.960  0.4416  2.1736 -0.9722
  175MOL    H7035218   0.148   2.951   0.854 -1.7996 -1.2673 -1.4297
  175MOL    H7135219   7.777   3.001   0.799  1.3736 -1.3261 -0.5441
  175MOL    O7235220   0.011   2.962   1.007 -0.7496  0.1358  0.4200
  175MOL    C7335221   7.769   2.825   1.006  0.1599 -0.0625  0.2741
  175MOL    C7435222   7.724   2.792   1.150  0.2042  0.1514 -0.1723
  175MOL    C7535223   7.659   2.647   1.164  0.3990 -0.2402  0.1865
  175MOL    H7635224   0.054   2.752   0.972 -0.3204 -0.6321  0.4403
  175MOL    H7735225   7.690   2.794   0.937 -1.6409  2.2818  1.1927
  175MOL    H7835226   0.023   2.806   1.214 -0.2364  2.7438 -0.0789
  175MOL    H7935227   7.664   2.874   1.189  1.3379  0.2512  1.3847
  175MOL    H8035228   7.636   2.629   1.269 -1.8528  0.7128 -0.1327
  175MOL    H8135229   7.737   2.579   1.128  0.6657 -0.5556  1.3309
  175MOL    O8235230   7.547   2.637   1.084 -0.1350 -0.2192  0.2115
  175MOL    C8335231   7.501   2.497   1.078  0.0694  0.4155 -0.0044
  175MOL    C8435232   7.371   2.490   0.997  0.5129  0.1052 -0.6354
  175MOL    C8535233   7.398   2.509   0.843  0.8135 -0.3577 -0.1866
  175MOL    H8635234   7.475   2.461   1.178  0.9058 -1.2160 -0.3570
  175MOL    H8735235   7.577   2.427   1.044  2.0201  1.4641  2.0685
  175MOL    H8835236   7.320   2.395   1.013  1.4914 -0.7178 -2.3409
  175MOL    H8935237   7.299   2.562   1.036 -0.2119 -0.7779 -0.3202
  175MOL    H9035238   7.434   2.413   0.806  3.2018 -0.6058  2.6020
  175MOL    H9135239   7.479   2.581   0.842 -0.9060  1.7315  2.6458
  175MOL    O9235240   7.283   2.548   0.776 -0.3094 -0.0674  0.1972
  175MOL    C9335241   7.312   2.622   0.652 -0.8820  0.0930  0.4470
  175MOL    C9435242   7.177   2.665   0.604 -0.1694 -0.3756 -0.0880
  175MOL    C9535243   7.078   2.553   0.568 -0.5593 -0.3334 -0.5586
  175MOL    H9635244   7.350   2.561   0.571  0.9650 -0.4094  1.6699
  175MOL    H9735245   7.381   2.704   0.673  0.6775 -1.5383  1.9248
  175MOL    H9835246   7.146   2.737   0.679 -0.7134  0.9273 -1.5438
  175MOL    H9935247   7.187   2.718   0.509  0.2435 -2.4806 -1.2565
  175MOL   H10035248   7.067   2.506   0.666  4.4286 -0.1788  0.1924
  175MOL   H10135249   7.128   2.481   0.503  1.0417  1.5670 -1.4715
  175MOL   O10235250   6.949   2.602   0.532 -0.3355  0.0731 -0.3829
  175MOL   C10335251   6.853   2.500   0.502  0.5777  0.3981  0.2525
  175MOL   C10435252   6.725   2.551   0.451  0.6245 -0.7749 -0.6889
  175MOL   C10535253   6.627   2.592   0.563  0.4149 -0.3799  0.2480
  175MOL   H10635254   6.835   2.427   0.581  0.0572  4.7990  4.4340
  175MOL   H10735255   6.891   2.444   0.417 -0.4730 -1.7022  1.1162
  175MOL   H10835256   6.747   2.638   0.389 -0.8431 -0.7886 -1.2540
  175MOL   H10935257   6.675   2.479   0.386 -0.1094 -1.7338  0.9191
  175MOL   H11035258   6.559   2.655   0.505  0.6108 -0.2423  0.1667
  175MOL   H11135259   6.680   2.654   0.635 -1.8961 -0.1218  1.7657
  175MOL   O11235260   6.566   2.486   0.636 -0.4216 -0.1512  0.3340
  175MOL   C11335261   6.458   2.538   0.711  0.1549 -0.2265 -0.4761
  175MOL   C11435262   6.324   2.584   0.645  0.5896 -0.3597 -0.5054
  175MOL   C11535263   6.223   2.650   0.746 -0.0022 -0.5383  0.5255
  175MOL   H11635264   6.483   2.619   0.779  0.6492 -0.3790 -0.4771
  175MOL   H11735265   6.438   2.453   0.776 -1.0591  1.1892  1.0598
  175MOL   H11835266   6.349   2.662   0.573 -0.3691  1.0369  0.6501
  175MOL   H11935267   6.285   2.495   0.596  0.9444 -1.0379  0.4204
  175MOL   H12035268   6.283   2.708   0.816  0.1958  0.1856 -0.2368
  175MOL   H12135269   6.165   2.567   0.788  0.1614 -1.0539 -0.2511
  175MOL   O12235270   6.132   2.730   0.667 -0.3013  0.0504  0.5249
  175MOL   C12335271   6.055   2.823   0.752 -0.1720  0.7105  0.4358
  175MOL   C12435272   5.979   2.918   0.668 -1.0141 -0.4848 -0.0448
  175MOL   C12535273   5.877   2.999   0.752 -0.1254  0.3666  0.3994
  175MOL   H12635274   6.112   2.875   0.828 -1.0236  0.1783  1.4416
  175MOL   H12735275   5.985   2.764   0.810 -0.0284 -0.3124 -0.4140
  175MOL   H12835276   6.055   2.984   0.625 -0.6517 -0.5880  0.4221
  175MOL   H12935277   5.929   2.862   0.589  1.4733 -0.9400 -1.3559
  175MOL   H13035278   5.933   3.053   0.827  0.6088 -0.5044  0.4872
  175MOL   H13135279   5.799   2.939   0.800  0.0646  0.7859  1.2474
  175MOL   O13235280   5.808   3.080   0.660 -0.8864 -0.2396 -0.0990
  175MOL   C13335281   5.714   3.175   0.720  0.1887  1.0289  0.3874
  175MOL   C13435282   5.644   3.245   0.608  0.0572 -0.6409  0.5625
  175MOL   C13535283   5.747   3.320   0.528 -0.2206 -1.2760 -0.0028
  175MOL   H13635284   5.767   3.250   0.779 -0.1278  1.4443  0.1518
  175MOL   H13735285   5.646   3.117   0.782 -0.3696  2.1501  0.8474
  175MOL   H13835286   5.593   3.173   0.544  0.4328 -0.6331  0.2478
  175MOL   H13935287   5.570   3.316   0.644 -0.6130 -0.0996 -1.7818
  175MOL   H14035288   5.795   3.247   0.462  1.0885 -0.6195  0.2096
  175MOL   H14135289   5.828   3.365   0.584 -0.5921  1.2420 -1.4422
  175MOL   O14235290   5.695   3.425   0.445 -0.5500  0.0115 -0.4203
  175MOL   C14335291   5.773   3.476   0.339  0.0579  0.1171  0.1288
  175MOL   C14435292   5.673   3.552   0.252  0.5084  0.5570  0.5158
  175MOL   C14535293   5.555   3.460   0.207  0.5937 -0.4943 -0.7874
  175MOL   H14635294   5.826   3.399   0.281  2.0004  1.1906  0.4420
  175MOL   H14735295   5.849   3.543   0.379 -3.2088  3.8547  0.2963
  175MOL   H14835296   5.628   3.632   0.311 -0.0313 -0.6075  1.7013
  175MOL   H14935297   5.719   3.602   0.167 -0.1196 -0.8889 -0.7154
  175MOL   H15035298   5.479   3.434   0.280  1.8922  2.0038  1.5786
  175MOL   H15135299   5.607   3.369   0.177  0.0900 -1.1689  0.3416
  175MOL   O15235300   5.494   3.527   0.096  0.0466 -0.3201 -0.2949
  175MOL   C15335301   5.416   3.447   0.006  0.1415  0.3256  0.1113
  175MOL   C15435302   5.292   3.378   0.070 -0.4269 -0.5692  1.1627
  175MOL   C15535303   5.198   3.313   7.756 -0.1133  0.9117  0.0518
  175MOL   H15635304   5.477   3.370   7.748  0.3201  2.3039 -3.0964
  175MOL   H15735305   5.391   3.519   7.716 -0.6242  0.6732  0.6633
  175MOL   H15835306   5.338   3.312   0.144 -0.3651  0.0537  1.6905
  175MOL   H15935307   5.239   3.453   0.129  4.0054  2.5661  1.4677
  175MOL   H16035308   5.246   3.224   7.715  1.6262  1.5586  0.6234
  175MOL   H16135309   5.174   3.375   7.670 -0.2098  2.5859  1.2586
  175MOL   O16235310   5.067   3.284   0.031 -0.1048 -0.0735 -0.1266
  175MOL   C16335311   4.957   3.270   7.724  0.1666  0.0839 -0.2733
  175MOL   C16435312   4.821   3.241   0.005 -0.8139 -0.2805 -0.4336
  175MOL   C16535313   4.702   3.212   7.703  0.2274 -0.2932  0.2608
  175MOL   H16635314   4.986   3.182   7.666  0.3283  0.5133 -0.8451
  175MOL   H16735315   4.950   3.362   7.666 -2.4081  1.9333  2.8016
  175MOL   H16835316   4.843   3.170   0.085  1.0056  0.2653 -0.4107
  175MOL   H16935317   4.798   3.335   0.056  0.2940  0.3198 -1.0010
  175MOL   H17035318   4.738   3.142   7.627  0.3709  1.5714 -1.4429
  175MOL   H17135319   4.673   3.301   7.647 -1.3131 -0.6939  0.4065
  175MOL   O17235320   4.597   3.148   7.776 -0.1602 -0.0076 -0.1635
  175MOL   C17335321   4.478   3.145   7.698 -0.2000  0.1509 -0.2506
  175MOL   C17435322   4.363   3.072   7.765  0.6818 -0.0674 -0.4080
  175MOL   C17535323   4.243   3.064   7.673 -0.2984 -0.2377  0.2766
  175MOL   H17635324   4.506   3.102   7.602  0.2301 -2.1629  0.8987
  175MOL   H17735325   4.454   3.249   7.674 -3.2066 -0.1251  1.2473
  175MOL   H17835326   4.398   2.971   7.786 -0.6627 -1.0480 -2.7501
  175MOL   H17935327   4.334   3.108   0.076  0.4651  0.4407 -0.6552
  175MOL   H18035328   4.189   2.985   7.726 -0.1110  0.3875  1.4026
  175MOL   H18135329   4.276   3.016   7.581  1.6471  0.9706  0.3280
  175MOL   O18235330   4.162   3.180   7.664  0.1285  0.2439 -0.5714
  175MOL   C18335331   4.041   3.145   7.595  0.0122 -0.6671 -0.0067
  175MOL   C18435332   3.941   3.261   7.592  0.2984  0.2652 -0.0255
  175MOL   C18535333   3.817   3.236   7.510  0.0695  0.7117 -0.2474
  175MOL   H18635334   3.995   3.053   7.630 -2.9903  0.0130 -2.0487
  175MOL   H18735335   4.084   3.131   7.496 -1.0325  0.5346 -0.6453
  175MOL   H18835336   3.916   3.284   7.696  1.9003  1.9981  0.0009
  175MOL   H18935337   3.991   3.352   7.560 -0.2526  0.5376 -0.1132
  175MOL   H19035338   3.762   3.160   7.566  0.8726  0.2239 -0.1082
  175MOL   H19135339   3.846   3.185   7.418 -0.5550  2.7236 -1.5827
  175MOL   O19235340   3.756   3.362   7.488  0.0635 -0.3885  0.2629
  175MOL   C19335341   3.627   3.363   7.436  0.7956  0.4821  0.2567
  175MOL   C19435342   3.583   3.510   7.402 -0.1315  0.1848  0.3001
  175MOL   C19535343   3.580   3.594   7.531 -0.4507  0.2576 -0.1674
  175MOL   H19635344   3.562   3.321   7.513 -0.1992  0.0245 -0.8174
  175MOL   H19735345   3.617   3.294   7.353 -0.9845  0.0374  0.8213
  175MOL   H19835346   3.656   3.551   7.333 -0.4185  2.2598  1.1891
  175MOL   H19935347   3.490   3.508   7.346 -0.0704  0.2372  0.1960
  175MOL   H20035348   3.556   3.697   7.502  1.7868  0.5278 -1.2388
  175MOL   H20135349   3.679   3.606   7.575 -1.9151  0.8472  3.0682
  175MOL   H20235350   3.505   3.556   7.599 -1.2577 -0.9661 -1.7038
  176MOL     O135351   2.338   5.694   4.438  0.0754  0.0240  0.7157
  176MOL     C235352   2.270   5.627   4.346 -0.6746  0.2959  0.3398
  176MOL     C335353   2.304   5.484   4.377 -0.2985 -0.0733 -0.0481
  176MOL     C435354   2.258   5.382   4.276  0.3486  0.0429 -0.4935
  176MOL     H535355   2.307   5.638   4.244 -0.6197  0.9958  0.4339
  176MOL     H635356   2.161   5.633   4.354 -0.7939 -1.0709 -0.1492
  176MOL     H735357   2.412   5.482   4.393 -0.0272  2.5508 -1.3370
  176MOL     H835358   2.275   5.458   4.479  0.4779 -1.0105 -0.0572
  176MOL     H935359   2.312   5.389   4.181 -1.3984  0.4096 -1.4884
  176MOL    H1035360   2.157   5.404   4.241  1.4519  1.2010 -3.0549
  176MOL    H1135361   2.351   5.786   4.421  2.2799 -0.0460  1.8751
  176MOL    O1235362   2.262   5.250   4.323 -0.2225  0.3476 -0.1222
  176MOL    C1335363   2.221   5.149   4.234 -0.5271 -0.6486  0.3565
  176MOL    C1435364   2.338   5.080   4.168 -0.1408 -0.4070  0.8445
  176MOL    C1535365   2.307   4.938   4.104 -0.1406 -0.1281  0.2247
  176MOL    H1635366   2.149   5.181   4.159 -0.0032 -1.8778 -0.7018
  176MOL    H1735367   2.162   5.086   4.301  0.8020 -0.8914  1.3275
  176MOL    H1835368   2.377   5.144   4.088  0.9176  0.9308  2.4107
  176MOL    H1935369   2.424   5.069   4.234  1.3561 -2.1885 -1.2946
  176MOL    H2035370   2.228   4.943   4.029 -1.4990  0.1180  1.6432
  176MOL    H2135371   2.293   4.860   4.179  1.8247  0.8378  1.6308
  176MOL    O2235372   2.423   4.901   4.033 -0.3662 -0.2129  0.0659
  176MOL    C2335373   2.397   4.805   3.925 -0.3228  0.2139  0.1342
  176MOL    C2435374   2.527   4.787   3.841 -0.1328 -0.5457 -0.0520
  176MOL    C2535375   2.640   4.707   3.908  0.2915  0.1691 -0.0309
  176MOL    H2635376   2.323   4.842   3.855 -2.0648 -1.0515  1.2594
  176MOL    H2735377   2.367   4.713   3.975 -0.7731  0.7952  0.9452
  176MOL    H2835378   2.490   4.739   3.751 -0.4597  0.1142 -0.2686
  176MOL    H2935379   2.569   4.881   3.804  1.4155 -0.7241  1.1598
  176MOL    H3035380   2.622   4.600   3.900 -0.1860  0.2806 -0.4979
  176MOL    H3135381   2.651   4.724   4.015  2.2059  1.6837 -0.4559
  176MOL    O3235382   2.757   4.738   3.839  0.1621  0.0289  0.1225
  176MOL    C3335383   2.870   4.647   3.843 -0.2953  0.5361 -0.1661
  176MOL    C3435384   2.915   4.634   3.992  0.0923  0.0365 -0.5136
  176MOL    C3535385   3.024   4.527   3.994 -0.8092 -0.3587 -0.3991
  176MOL    H3635386   2.954   4.680   3.781  0.3557  1.6140  1.2551
  176MOL    H3735387   2.840   4.545   3.818 -0.0715  0.2024  0.9088
  176MOL    H3835388   2.939   4.726   4.045  1.6647 -1.3937  1.3102
  176MOL    H3935389   2.829   4.598   4.048  1.2919 -1.6407  0.2810
  176MOL    H4035390   3.115   4.549   3.937 -1.1066 -0.1621 -0.7940
  176MOL    H4135391   3.001   4.429   3.952  0.6946 -0.8525 -0.1378
  176MOL    O4235392   3.074   4.514   4.135 -0.4188 -0.1382  0.9710
  176MOL    C4335393   3.158   4.402   4.148 -0.1263 -0.0046  0.2545
  176MOL    C4435394   3.183   4.366   4.296 -0.7303 -0.2500  0.3568
  176MOL    C4535395   3.264   4.235   4.313  0.2768  0.1837 -0.0298
  176MOL    H4635396   3.249   4.433   4.098 -0.0251  3.2163  2.2514
  176MOL    H4735397   3.134   4.315   4.087  1.1194 -0.2991  0.1810
  176MOL    H4835398   3.239   4.442   4.351  0.8153 -0.4666 -0.8913
  176MOL    H4935399   3.090   4.342   4.348 -1.2522 -1.4575 -1.1066
  176MOL    H5035400   3.199   4.153   4.281  0.9105 -1.1183  1.8800
  176MOL    H5135401   3.283   4.219   4.420  1.5216 -0.6694 -0.3537
  176MOL    O5235402   3.390   4.243   4.246  0.5145  0.9068  0.1040
  176MOL    C5335403   3.459   4.121   4.271  0.3493  0.1082 -0.5451
  176MOL    C5435404   3.564   4.106   4.161 -0.0177  0.7747  0.1069
  176MOL    C5535405   3.678   4.001   4.195  0.8346 -0.0603 -0.4552
  176MOL    H5635406   3.390   4.040   4.249  1.8517 -1.4617  0.4229
  176MOL    H5735407   3.491   4.115   4.375  4.0463  1.1499 -1.5402
  176MOL    H5835408   3.501   4.083   4.075  0.8530 -1.9791  0.1625
  176MOL    H5935409   3.624   4.195   4.139  1.9931 -0.0897  2.0077
  176MOL    H6035410   3.628   3.907   4.215  0.5271 -0.1683 -1.6546
  176MOL    H6135411   3.734   4.029   4.284  0.8437 -2.1797  0.2103
  176MOL    O6235412   3.769   3.978   4.091 -0.1970 -0.0472  0.9852
  176MOL    C6335413   3.860   3.880   4.114  0.8851  0.2422  0.0899
  176MOL    C6435414   3.973   3.893   4.017  0.9947  0.1319  0.0823
  176MOL    C6535415   3.915   3.896   3.871  0.0720  0.6197 -0.1501
  176MOL    H6635416   3.811   3.783   4.113  0.8825  0.2411 -1.2313
  176MOL    H6735417   3.908   3.890   4.211 -1.2863  1.8527  1.0415
  176MOL    H6835418   4.021   3.989   4.037 -1.5465  1.6176 -0.6670
  176MOL    H6935419   4.049   3.816   4.032 -0.3747 -1.1798  0.4417
  176MOL    H7035420   3.885   4.000   3.854 -0.3977  0.8944  2.2041
  176MOL    H7135421   3.832   3.827   3.858  2.0370 -1.5205 -1.8074
  176MOL    O7235422   4.022   3.856   3.792 -0.1257  0.0373  0.4349
  176MOL    C7335423   3.972   3.852   3.661 -0.0485 -0.6092 -0.2944
  176MOL    C7435424   4.091   3.811   3.571  0.3458  0.5206 -0.9317
  176MOL    C7535425   4.054   3.828   3.421 -0.0083  0.4166  0.1544
  176MOL    H7635426   3.929   3.951   3.646  0.8131  0.0634  1.4867
  176MOL    H7735427   3.894   3.777   3.658  0.6312 -1.3707  0.6504
  176MOL    H7835428   4.173   3.879   3.591  2.9364 -2.4077 -1.2520
  176MOL    H7935429   4.120   3.707   3.586 -0.1417  0.5501  0.2624
  176MOL    H8035430   3.991   3.914   3.400 -0.6044  0.1062  0.6438
  176MOL    H8135431   3.991   3.747   3.382  1.8475 -1.6060  1.2874
  176MOL    O8235432   4.169   3.837   3.336 -0.2558  0.0177 -0.3718
  176MOL    C8335433   4.130   3.867   3.205  0.4422 -0.4385  0.5265
  176MOL    C8435434   4.246   3.841   3.099  0.0394  0.0661 -0.3569
  176MOL    C8535435   4.348   3.950   3.102 -1.0228  0.2728 -0.0327
  176MOL    H8635436   4.106   3.973   3.202  0.3352 -0.4866 -2.1747
  176MOL    H8735437   4.044   3.805   3.178 -1.6373  2.0212  1.3470
  176MOL    H8835438   4.313   3.756   3.111 -0.6579 -0.6416 -1.3385
  176MOL    H8935439   4.201   3.834   3.000 -0.3227 -0.4401 -0.1539
  176MOL    H9035440   4.353   3.988   3.204  0.2733  2.6648 -0.9453
  176MOL    H9135441   4.313   4.028   3.035  1.2962  1.4005  0.0040
  176MOL    O9235442   4.480   3.905   3.067 -0.2155 -0.2318 -0.7778
  176MOL    C9335443   4.587   3.981   3.121  0.4906 -0.0160 -0.0856
  176MOL    C9435444   4.718   3.910   3.093  0.0818 -0.7469  0.2206
  176MOL    C9535445   4.837   3.997   3.141  0.7794  0.0122  0.2248
  176MOL    H9635446   4.560   4.007   3.224 -3.3657  0.1808 -1.0498
  176MOL    H9735447   4.595   4.080   3.077 -0.7193  0.3872  0.5587
  176MOL    H9835448   4.716   3.815   3.147 -0.1925 -1.3598 -0.8691
  176MOL    H9935449   4.731   3.896   2.986 -0.0528 -1.2733  0.2735
  176MOL   H10035450   4.819   4.023   3.246 -0.2892 -0.4599  0.1610
  176MOL   H10135451   4.838   4.090   3.084 -0.7441  1.9081  3.1566
  176MOL   O10235452   4.961   3.933   3.129  0.1867  0.0836 -0.4515
  176MOL   C10335453   5.066   3.990   3.202 -0.2788 -0.2738 -0.0488
  176MOL   C10435454   5.112   4.110   3.121  0.1376  1.1164 -0.0736
  176MOL   C10535455   5.243   4.174   3.183 -0.1240  0.3867  0.3834
  176MOL   H10635456   5.153   3.926   3.215 -0.9334 -0.7567  2.1858
  176MOL   H10735457   5.049   4.017   3.306  3.3502 -0.8747  0.7649
  176MOL   H10835458   5.121   4.077   3.018  0.8975 -1.8057  0.8940
  176MOL   H10935459   5.030   4.182   3.112 -0.7601  0.0526 -0.4106
  176MOL   H11035460   5.323   4.131   3.122 -0.4236  0.3476  0.0170
  176MOL   H11135461   5.253   4.162   3.291 -2.1641 -2.0359  0.3465
  176MOL   O11235462   5.250   4.317   3.156 -0.6744  0.5750  0.1683
  176MOL   C11335463   5.163   4.385   3.240  0.1357  0.0111  0.3947
  176MOL   C11435464   5.177   4.528   3.188 -0.0234  0.4547 -0.1260
  176MOL   C11535465   5.128   4.635   3.294 -0.5240  0.2992  0.0738
  176MOL   H11635466   5.199   4.380   3.342 -0.7131 -2.3930  0.6005
  176MOL   H11735467   5.060   4.351   3.236 -0.2897  1.3605 -0.6742
  176MOL   H11835468   5.282   4.551   3.169 -0.3992  0.8628 -1.8101
  176MOL   H11935469   5.116   4.528   3.098  0.0451  0.8019 -0.1751
  176MOL   H12035470   5.023   4.616   3.316 -0.1869  0.2883  1.8005
  176MOL   H12135471   5.117   4.732   3.247  1.4310  0.7217  0.4438
  176MOL   O12235472   5.211   4.636   3.411 -0.5032  0.1917  0.4903
  176MOL   C12335473   5.163   4.723   3.510 -0.1870  0.1958  0.2464
  176MOL   C12435474   5.237   4.698   3.640  0.3886 -0.5177  0.3781
  176MOL   C12535475   5.196   4.800   3.743  0.3848 -0.2605 -0.1842
  176MOL   H12635476   5.061   4.689   3.527 -0.5571  0.9679 -0.3900
  176MOL   H12735477   5.160   4.828   3.479 -0.5443  0.2537  0.4775
  176MOL   H12835478   5.226   4.597   3.677  1.5272 -1.2732 -1.2890
  176MOL   H12935479   5.341   4.699   3.607  0.4063  0.5152  0.4374
  176MOL   H13035480   5.092   4.781   3.769  0.7228 -1.3672  0.4030
  176MOL   H13135481   5.203   4.897   3.696 -0.6505  0.7172  1.6187
  176MOL   O13235482   5.288   4.777   3.845  0.1891  0.0062 -0.0416
  176MOL   C13335483   5.268   4.864   3.957  0.0711 -0.3457 -0.1907
  176MOL   C13435484   5.130   4.870   4.029 -0.4183  0.0662  0.0460
  176MOL   C13535485   5.126   4.922   4.167  0.8519 -0.1851 -0.9016
  176MOL   H13635486   5.292   4.963   3.917 -1.1363  0.0571  0.0692
  176MOL   H13735487   5.348   4.835   4.026 -0.6890 -2.2755 -0.0843
  176MOL   H13835488   5.058   4.925   3.969  1.8926  2.3062 -0.7494
  176MOL   H13935489   5.097   4.767   4.043  2.3063 -0.6977  1.2436
  176MOL   H14035490   5.161   5.025   4.161  1.2592 -0.2136  0.5913
  176MOL   H14135491   5.197   4.873   4.234 -0.1676 -0.0099  0.3233
  176MOL   O14235492   4.991   4.919   4.218 -0.5616 -0.2162 -0.0980
  176MOL   C14335493   4.986   4.888   4.357 -0.6567 -0.3517  0.4395
  176MOL   C14435494   4.835   4.874   4.398 -1.0078  1.1104 -0.4948
  176MOL   C14535495   4.827   4.850   4.550  0.3483  0.2617  0.5224
  176MOL   H14635496   5.035   4.962   4.419 -1.2156 -0.2829  0.7957
  176MOL   H14735497   5.039   4.794   4.373 -1.8482 -1.1322 -0.1352
  176MOL   H14835498   4.781   4.968   4.385  0.8629  2.0769 -1.5277
  176MOL   H14935499   4.787   4.790   4.348 -0.3621  0.1737  0.4315
  176MOL   H15035500   4.723   4.830   4.577  0.2833  0.8599  0.7103
  176MOL   H15135501   4.862   4.940   4.599  1.4172  0.4549 -0.5910
  176MOL   O15235502   4.895   4.725   4.566 -0.3292  0.3995  0.2911
  176MOL   C15335503   4.937   4.708   4.697  1.0398  0.0996  0.3476
  176MOL   C15435504   5.089   4.702   4.683 -0.9931 -0.2093 -0.9439
  176MOL   C15535505   5.139   4.572   4.611 -0.1791  0.9914  0.4192
  176MOL   H15635506   4.917   4.609   4.737 -0.6878 -0.2672 -1.3744
  176MOL   H15735507   4.893   4.777   4.769  0.4504  0.4838 -0.3801
  176MOL   H15835508   5.126   4.793   4.636 -0.3723 -0.6758 -1.3617
  176MOL   H15935509   5.128   4.694   4.785 -1.2301 -2.0504 -0.9816
  176MOL   H16035510   5.081   4.546   4.522 -1.1482 -1.8587  1.8188
  176MOL   H16135511   5.124   4.497   4.688  2.0479  0.2564  0.1824
  176MOL   O16235512   5.285   4.579   4.583 -0.2401 -0.1625 -0.3079
  176MOL   C16335513   5.313   4.645   4.459 -0.4122 -0.4459  0.1735
  176MOL   C16435514   5.464   4.675   4.447 -0.0196 -0.1713  0.0819
  176MOL   C16535515   5.515   4.778   4.549  0.2182  0.2401 -0.5491
  176MOL   H16635516   5.262   4.741   4.450 -0.7370 -0.7402 -1.4161
  176MOL   H16735517   5.283   4.590   4.369 -1.0400 -0.5902  0.4633
  176MOL   H16835518   5.521   4.585   4.469 -1.5664 -0.8753  1.2388
  176MOL   H16935519   5.491   4.712   4.348 -0.5878  2.9888  1.0550
  176MOL   H17035520   5.483   4.748   4.649  0.6170 -0.3408 -0.5924
  176MOL   H17135521   5.475   4.879   4.541 -0.1399  0.3488  2.0043
  176MOL   O17235522   5.655   4.765   4.559  0.6072  0.4573  0.7261
  176MOL   C17335523   5.710   4.816   4.675  0.2471 -0.0966  0.1983
  176MOL   C17435524   5.857   4.823   4.655  0.1249  0.5015  0.5070
  176MOL   C17535525   5.930   4.695   4.652 -0.0819 -0.2139  0.1148
  176MOL   H17635526   5.672   4.767   4.765 -1.3247  1.9847  0.7053
  176MOL   H17735527   5.672   4.917   4.687 -0.2496 -0.2047 -0.4146
  176MOL   H17835528   5.882   4.876   4.563 -0.8225 -1.8020 -1.1445
  176MOL   H17935529   5.893   4.885   4.737  0.3458 -0.5337  1.2086
  176MOL   H18035530   5.898   4.632   4.569  0.2100  1.2427 -1.1107
  176MOL   H18135531   5.915   4.638   4.744 -0.4174  1.5891  1.2085
  176MOL   O18235532   6.070   4.704   4.635 -0.5223 -0.6415 -0.0048
  176MOL   C18335533   6.145   4.581   4.636 -0.3190 -0.0682  0.3777
  176MOL   C18435534   6.292   4.619   4.631 -0.2856 -0.4132 -0.7740
  176MOL   C18535535   6.382   4.496   4.646  0.3173 -0.6609 -0.2782
  176MOL   H18635536   6.123   4.525   4.545  2.4256  1.7368 -1.5092
  176MOL   H18735537   6.118   4.523   4.724  1.1735  1.1505  1.6818
  176MOL   H18835538   6.305   4.663   4.532  0.3188  0.3817 -0.3347
  176MOL   H18935539   6.322   4.691   4.706 -1.9699  0.3887 -0.8538
  176MOL   H19035540   6.356   4.424   4.568  3.6432 -0.6885 -1.4675
  176MOL   H19135541   6.375   4.439   4.738  1.5521 -0.3650  0.0081
  176MOL   O19235542   6.517   4.518   4.619  0.0548  0.2255 -0.6528
  176MOL   C19335543   6.583   4.595   4.723 -0.6498 -0.3284  0.6285
  176MOL   C19435544   6.731   4.612   4.687 -0.3080  1.1314  0.1914
  176MOL   C19535545   6.795   4.464   4.664  0.1402  0.3110  0.0297
  176MOL   H19635546   6.579   4.548   4.821  2.9529 -0.2651  0.8940
  176MOL   H19735547   6.545   4.697   4.729  1.4679  0.5288  0.1791
  176MOL   H19835548   6.730   4.666   4.593 -1.2802 -0.1029 -0.5178
  176MOL   H19935549   6.783   4.669   4.764  0.6471 -0.4213  0.7225
  176MOL   H20035550   6.902   4.476   4.652  0.3753 -1.0337  0.6051
  176MOL   H20135551   6.743   4.413   4.582  1.6322  0.4335 -1.0039
  176MOL   H20235552   6.786   4.403   4.754 -1.3444  1.5368  0.7341
  177MOL     O135553   2.780   7.664   7.454  0.0472 -0.0416  0.4846
  177MOL     C235554   2.832   7.545   7.515  0.4242 -0.1731 -0.3034
  177MOL     C335555   2.857   7.427   7.419  0.4835 -0.3025 -0.2859
  177MOL     C435556   2.732   7.346   7.395  0.0814 -0.3977  0.1405
  177MOL     H535557   2.766   7.511   7.595 -0.0654 -1.1515 -1.1195
  177MOL     H635558   2.920   7.582   7.567  0.8913 -0.0252 -1.1920
  177MOL     H735559   2.903   7.452   7.324 -0.6446  0.4729 -0.6431
  177MOL     H835560   2.934   7.365   7.463  1.6510  2.5654  1.8530
  177MOL     H935561   2.675   7.327   7.486  0.8139 -0.9705  0.4777
  177MOL    H1035562   2.745   7.248   7.348 -0.5834 -0.7404  0.6639
  177MOL    H1135563   2.714   7.651   7.388  1.7837 -1.8800 -0.9956
  177MOL    O1235564   2.638   7.424   7.317 -0.0729 -0.1108  0.6448
  177MOL    C1335565   2.502   7.387   7.320 -0.1991 -0.2608  0.1320
  177MOL    C1435566   2.423   7.491   7.243  1.5558  0.8756  0.3584
  177MOL    C1535567   2.295   7.442   7.175 -0.1578 -0.5883  0.5213
  177MOL    H1635568   2.473   7.387   7.425 -0.6696  0.3838  0.0041
  177MOL    H1735569   2.473   7.293   7.273  1.6851 -0.9598  0.3329
  177MOL    H1835570   2.391   7.561   7.321  0.0432  2.1331 -1.3552
  177MOL    H1935571   2.478   7.528   7.157  1.0577 -1.7832 -1.1794
  177MOL    H2035572   2.243   7.536   7.158  0.7495 -0.0495  0.6697
  177MOL    H2135573   2.229   7.389   7.244 -0.5187 -0.9628 -0.1071
  177MOL    O2235574   2.326   7.361   7.059 -0.2231  0.0480 -0.3778
  177MOL    C2335575   2.214   7.292   7.008 -0.6771  0.4547  0.4508
  177MOL    C2435576   2.231   7.207   6.880  0.2148 -0.3658  0.1276
  177MOL    C2535577   2.099   7.167   6.825 -0.1472 -0.4909 -0.7552
  177MOL    H2635578   2.127   7.358   7.001 -0.8742 -0.0387 -2.2408
  177MOL    H2735579   2.177   7.221   7.083  1.7226 -0.0519  1.2087
  177MOL    H2835580   2.286   7.267   6.807 -0.4091  0.8419  0.6281
  177MOL    H2935581   2.289   7.117   6.897  0.2799 -0.1351  1.1951
  177MOL    H3035582   2.065   7.265   6.792 -0.2057 -0.0912  0.4699
  177MOL    H3135583   2.024   7.136   6.898 -1.2750  2.4647 -0.6009
  177MOL    O3235584   2.102   7.076   6.717 -0.6647  0.4297  0.5942
  177MOL    C3335585   1.978   7.070   6.643  0.0528 -0.1143 -0.4628
  177MOL    C3435586   1.990   6.973   6.520 -0.4985  0.4809 -0.7263
  177MOL    C3535587   1.874   6.954   6.426 -0.5027 -0.2030 -0.2708
  177MOL    H3635588   1.955   7.174   6.622 -1.5190 -0.4610 -0.5484
  177MOL    H3735589   1.902   7.032   6.711 -0.2484 -2.2500 -1.9330
  177MOL    H3835590   2.077   6.997   6.459 -1.0300  0.8671 -1.3394
  177MOL    H3935591   2.023   6.879   6.566 -0.2768  0.7507 -0.3291
  177MOL    H4035592   1.785   6.934   6.486  1.4801 -1.5397  2.3148
  177MOL    H4135593   1.898   6.864   6.370 -0.8837 -0.3928 -0.1289
  177MOL    O4235594   1.850   7.069   6.336 -0.0148  0.4498  0.5851
  177MOL    C4335595   1.742   7.055   6.240 -0.8314 -0.1722  0.0296
  177MOL    C4435596   1.723   7.187   6.167  0.0137 -0.1276  0.9233
  177MOL    C4535597   1.617   7.179   6.055  0.0141  0.0069 -1.2907
  177MOL    H4635598   1.651   7.041   6.298  0.8585  0.1367  2.8333
  177MOL    H4735599   1.759   6.980   6.163 -1.3610  0.6952 -0.9443
  177MOL    H4835600   1.706   7.272   6.234  0.4958  0.0877  0.7800
  177MOL    H4935601   1.811   7.226   6.115 -0.9312  0.8756  0.0484
  177MOL    H5035602   1.646   7.095   5.993 -0.7852  0.0063 -1.6784
  177MOL    H5135603   1.621   7.266   5.989  0.7887 -1.2107 -2.8943
  177MOL    O5235604   1.490   7.155   6.116 -0.7716 -0.5559  0.0780
  177MOL    C5335605   1.397   7.113   6.020 -0.1450 -0.1332 -0.2895
  177MOL    C5435606   1.264   7.071   6.096 -0.4732  0.1569 -0.2839
  177MOL    C5535607   1.157   7.029   5.995 -0.0097  0.3159  0.3841
  177MOL    H5635608   1.431   7.037   5.951 -0.5298 -0.3175 -0.2774
  177MOL    H5735609   1.380   7.206   5.965 -0.2117  0.5932  0.9335
  177MOL    H5835610   1.294   6.986   6.159 -3.9731 -0.6949  0.3350
  177MOL    H5935611   1.232   7.147   6.167  0.2331  1.1777 -1.0504
  177MOL    H6035612   1.070   6.982   6.043  0.3047 -0.7012 -0.0364
  177MOL    H6135613   1.193   6.950   5.930 -5.1584 -0.2013 -2.1410
  177MOL    O6235614   1.106   7.142   5.921 -0.5345  0.1707  0.4766
  177MOL    C6335615   0.995   7.207   5.993  0.3311 -0.3950 -0.1251
  177MOL    C6435616   0.937   7.326   5.912 -0.4352 -0.0230 -0.0769
  177MOL    C6535617   0.861   7.426   5.995  0.4795 -0.2324  0.4089
  177MOL    H6635618   1.030   7.240   6.091  1.7234  0.9617 -1.0622
  177MOL    H6735619   0.914   7.135   6.007 -1.1437  1.1898 -0.3622
  177MOL    H6835620   1.025   7.379   5.877  0.3709 -1.2102  0.1113
  177MOL    H6935621   0.883   7.293   5.823  3.0893  0.3426 -2.4433
  177MOL    H7035622   0.775   7.374   6.037  0.5554 -1.1577 -0.5616
  177MOL    H7135623   0.823   7.506   5.932 -0.8879 -0.4797  0.8958
  177MOL    O7235624   0.931   7.495   6.098  0.6080  0.4011  0.6099
  177MOL    C7335625   0.843   7.522   6.209  0.3889  0.0651  0.3425
  177MOL    C7435626   0.919   7.615   6.307  0.3458  0.4852 -0.4815
  177MOL    C7535627   1.042   7.561   6.373 -0.3012 -0.0999  0.6641
  177MOL    H7635628   0.821   7.427   6.258 -0.4181  0.5687  0.9774
  177MOL    H7735629   0.750   7.562   6.171 -0.2472 -0.6165  1.1508
  177MOL    H7835630   0.940   7.699   6.241 -0.8218  0.2350 -1.1872
  177MOL    H7935631   0.851   7.642   6.388  0.0989 -2.5427  0.4093
  177MOL    H8035632   1.099   7.647   6.408  1.6802 -1.6337  1.3249
  177MOL    H8135633   1.103   7.505   6.301  0.6990  0.2883  1.2039
  177MOL    O8235634   1.015   7.484   6.487 -0.3119  0.0005  0.1709
  177MOL    C8335635   1.140   7.439   6.539 -0.3929 -1.2494 -0.2390
  177MOL    C8435636   1.108   7.378   6.678 -0.0678  0.0458  0.0786
  177MOL    C8535637   1.232   7.343   6.761  0.4124 -0.8154 -0.1816
  177MOL    H8635638   1.202   7.527   6.556 -0.7176 -0.8957 -0.8420
  177MOL    H8735639   1.191   7.376   6.466 -0.1353  2.1554 -3.1705
  177MOL    H8835640   1.047   7.448   6.736  1.5535 -0.0655  1.9621
  177MOL    H8935641   1.044   7.290   6.672  0.1630 -0.3067  2.4450
  177MOL    H9035642   1.312   7.416   6.749  0.4484 -0.5394  1.5572
  177MOL    H9135643   1.279   7.248   6.737  1.8797 -0.4002  0.9857
  177MOL    O9235644   1.180   7.326   6.892  0.2490 -0.9192 -0.0623
  177MOL    C9335645   1.287   7.322   6.983 -0.2284  0.2020 -0.4884
  177MOL    C9435646   1.241   7.319   7.122 -0.0253  0.1817  0.5058
  177MOL    C9535647   1.347   7.284   7.231 -0.7837 -0.2112 -0.5560
  177MOL    H9635648   1.358   7.403   6.966 -0.7277  1.0973  1.5127
  177MOL    H9735649   1.342   7.230   6.967 -1.1068 -0.7019  1.4237
  177MOL    H9835650   1.212   7.420   7.149 -0.3926  0.0858  0.4682
  177MOL    H9935651   1.158   7.248   7.123  2.8094 -3.2635  0.8001
  177MOL   H10035652   1.308   7.316   7.327  1.1884  1.0085 -0.1225
  177MOL   H10135653   1.439   7.342   7.219 -0.5144 -0.1616  1.6208
  177MOL   O10235654   1.375   7.147   7.218 -0.2628  0.1319  0.6867
  177MOL   C10335655   1.482   7.099   7.304  0.0821  0.2966 -0.0838
  177MOL   C10435656   1.544   6.982   7.232  0.8953 -0.6280  0.0791
  177MOL   C10535657   1.662   6.917   7.302 -0.0608 -0.7682 -0.1196
  177MOL   H10635658   1.433   7.055   7.391 -0.4643  0.6186 -0.2282
  177MOL   H10735659   1.563   7.172   7.315 -1.8558  2.5571 -0.5480
  177MOL   H10835660   1.470   6.906   7.206  2.9979 -3.3139  1.6574
  177MOL   H10935661   1.586   7.012   7.136  2.0427 -0.3358  0.6652
  177MOL   H11035662   1.648   6.911   7.410  2.1526 -0.5941  0.2050
  177MOL   H11135663   1.754   6.976   7.299 -1.5215  1.7008  1.4700
  177MOL   O11235664   1.691   6.788   7.241 -0.6107 -0.5514  0.1821
  177MOL   C11335665   1.797   6.710   7.299 -0.5069  0.5585 -0.2666
  177MOL   C11435666   1.745   6.564   7.333 -0.1413 -0.0759 -0.2883
  177MOL   C11535667   1.650   6.562   7.451  0.4406 -0.2411  0.3382
  177MOL   H11635668   1.842   6.748   7.391 -1.4054 -0.0329  0.4393
  177MOL   H11735669   1.885   6.713   7.236 -0.5907  1.6141 -0.3404
  177MOL   H11835670   1.694   6.504   7.257 -2.2530  2.3124 -0.8169
  177MOL   H11935671   1.826   6.495   7.355 -0.1487 -0.3596 -1.1206
  177MOL   H12035672   1.556   6.611   7.426  0.1525 -0.7649  0.3969
  177MOL   H12135673   1.693   6.603   7.543  0.8071 -0.9268  0.4748
  177MOL   O12235674   1.603   6.427   7.475  0.4172 -0.2583  0.2982
  177MOL   C12335675   1.567   6.396   7.607  0.2109 -0.8806  0.2473
  177MOL   C12435676   1.499   6.256   7.613  0.2775  0.3604 -0.1077
  177MOL   C12535677   1.467   6.216   7.761  0.5418 -0.2887 -0.0439
  177MOL   H12635678   1.494   6.463   7.654 -0.3303 -1.4489  0.2253
  177MOL   H12735679   1.656   6.414   7.667 -1.3122  2.2149  1.7564
  177MOL   H12835680   1.407   6.262   7.554  0.9977  0.6630 -1.2070
  177MOL   H12935681   1.559   6.175   7.572 -2.1864 -2.2160  1.1904
  177MOL   H13035682   1.403   6.286   0.026  1.3077  1.5904 -1.5442
  177MOL   H13135683   1.559   6.202   0.030 -0.2110 -0.9857  1.0027
  177MOL   O13235684   1.394   6.088   7.761 -0.1398 -0.0485  0.4941
  177MOL   C13335685   1.371   6.035   0.104  0.3677 -0.2357  0.5568
  177MOL   C13435686   1.286   5.912   0.068  0.2109  0.3323  0.1716
  177MOL   C13535687   1.258   5.838   0.199  0.2314 -0.3314  0.4282
  177MOL   H13635688   1.306   6.098   0.164 -0.8656 -0.4786 -0.4958
  177MOL   H13735689   1.466   6.004   0.147  0.6446  0.3906  0.3955
  177MOL   H13835690   1.191   5.942   0.024 -0.7709 -2.2503  0.4168
  177MOL   H13935691   1.337   5.843   0.001 -2.2552 -0.9415 -0.4707
  177MOL   H14035692   1.239   5.906   0.282 -1.5647 -1.1047  0.6643
  177MOL   H14135693   1.345   5.781   0.233 -1.3591 -2.6079  0.8119
  177MOL   O14235694   1.157   5.751   0.166 -0.0512  0.2841 -0.3024
  177MOL   C14335695   1.155   5.622   0.218 -0.0109 -0.1382 -0.2473
  177MOL   C14435696   1.246   5.527   0.138 -0.7993 -0.2193  0.1674
  177MOL   C14535697   1.210   5.502   7.774 -0.3287 -0.0266 -0.5889
  177MOL   H14635698   1.054   5.584   0.201  0.1250 -1.3724  1.5958
  177MOL   H14735699   1.187   5.623   0.322 -1.3995 -0.1200  0.1858
  177MOL   H14835700   1.350   5.557   0.149 -0.2787 -1.4339 -1.2382
  177MOL   H14935701   1.238   5.430   0.187  1.1885 -0.7266 -0.4662
  177MOL   H15035702   1.177   5.597   7.732 -0.9319 -0.6467 -1.5522
  177MOL   H15135703   1.140   5.420   7.758 -0.2099 -0.2167 -0.1287
  177MOL   O15235704   1.323   5.470   7.700  0.2380  0.2842 -0.3512
  177MOL   C15335705   1.301   5.476   7.559 -0.7291 -0.5687 -0.0213
  177MOL   C15435706   1.426   5.452   7.481  0.9825 -0.5638  0.2790
  177MOL   C15535707   1.403   5.414   7.330 -0.8216 -0.1559 -0.1691
  177MOL   H15635708   1.265   5.571   7.519 -1.6137 -1.3787 -1.1782
  177MOL   H15735709   1.232   5.398   7.527  0.1904 -0.8956 -1.2824
  177MOL   H15835710   1.503   5.528   7.492  0.9786 -0.2917 -1.4199
  177MOL   H15935711   1.468   5.362   7.526 -1.0525 -1.7438 -0.1275
  177MOL   H16035712   1.330   5.335   7.315 -2.1833  1.4220 -2.1990
  177MOL   H16135713   1.495   5.383   7.281 -1.0482  1.5354 -1.7073
  177MOL   O16235714   1.366   5.538   7.278 -0.2409  0.0964 -0.2312
  177MOL   C16335715   1.294   5.516   7.163  0.5255  0.1092  0.1751
  177MOL   C16435716   1.272   5.653   7.098  0.2178 -0.3091  0.5570
  177MOL   C16535717   1.160   5.736   7.160  0.0551  0.3906 -1.1054
  177MOL   H16635718   1.199   5.468   7.186  0.8051  0.2946  1.7404
  177MOL   H16735719   1.363   5.453   7.106  2.2441  0.4486  1.8133
  177MOL   H16835720   1.369   5.700   7.110  0.2598 -0.7282  2.0886
  177MOL   H16935721   1.255   5.645   6.991 -0.1775  0.7231  0.5400
  177MOL   H17035722   1.207   5.777   7.249 -2.7603 -0.1981  0.6861
  177MOL   H17135723   1.081   5.666   7.184  2.3277 -1.7534  0.3480
  177MOL   O17235724   1.119   5.838   7.076 -0.2089 -0.2904  0.3650
  177MOL   C17335725   0.991   5.887   7.113 -0.4019  0.7214 -0.3274
  177MOL   C17435726   0.925   5.974   7.007  0.7456 -0.2964  0.7166
  177MOL   C17535727   0.810   6.060   7.052  0.1081  0.4452  0.0640
  177MOL   H17635728   0.996   5.936   7.210 -2.2793  1.2310 -0.4713
  177MOL   H17735729   0.928   5.798   7.118  0.5549  0.0332 -0.2997
  177MOL   H17835730   0.999   6.049   6.979  0.3233  1.0653  3.0761
  177MOL   H17935731   0.887   5.913   6.925  0.2760  0.0249  0.6943
  177MOL   H18035732   0.838   6.143   7.116 -0.8545  1.1722 -0.4467
  177MOL   H18135733   0.735   6.004   7.108 -0.3684  0.1834 -0.8137
  177MOL   O18235734   0.751   6.116   6.934  0.1719 -0.3346  0.2797
  177MOL   C18335735   0.635   6.199   6.950  0.1288  0.0536 -0.0127
  177MOL   C18435736   0.569   6.220   6.814  0.0862 -0.2292 -0.4864
  177MOL   C18535737   0.467   6.333   6.826 -0.1908 -0.4140 -0.0093
  177MOL   H18635738   0.675   6.291   6.992 -1.6575 -0.0622  2.0683
  177MOL   H18735739   0.570   6.156   7.027 -1.5884 -0.6002 -1.8001
  177MOL   H18835740   0.642   6.241   6.736  0.1525 -0.3881 -0.4659
  177MOL   H18935741   0.515   6.133   6.776 -0.7931  1.6728 -3.7803
  177MOL   H19035742   0.424   6.358   6.729 -0.4198  1.5516  0.5797
  177MOL   H19135743   0.518   6.423   6.863  0.7810  0.0077 -2.2439
  177MOL   O19235744   0.354   6.306   6.911  0.2688 -0.6311  0.2580
  177MOL   C19335745   0.251   6.406   6.921  0.0138  0.3951 -0.3261
  177MOL   C19435746   0.299   6.555   6.932 -0.7524  0.1576 -0.4864
  177MOL   C19535747   0.205   6.651   7.012  0.3312 -0.7173 -0.0371
  177MOL   H19635748   0.166   6.385   6.985  0.2847  0.1780 -0.0312
  177MOL   H19735749   0.203   6.397   6.824  0.1724 -0.6656 -0.3175
  177MOL   H19835750   0.392   6.562   6.987  0.6789 -0.2885 -2.7971
  177MOL   H19935751   0.324   6.586   6.830  0.4454  0.7545 -0.0129
  177MOL   H20035752   0.100   6.656   6.984  0.5402  1.2383 -0.5969
  177MOL   H20135753   0.257   6.747   7.002  0.6349 -0.7523  1.1312
  177MOL   H20235754   0.210   6.625   7.118  0.0509  2.2153  0.7357
  178MOL     O135755   7.067   6.630   1.105  0.0318 -0.1249  0.4956
  178MOL     C235756   7.057   6.751   1.178  0.1216 -0.5595  0.4442
  178MOL     C335757   6.931   6.760   1.259 -0.0540  0.1559  0.5630
  178MOL     C435758   6.919   6.886   1.347  0.0384  0.1080 -0.1599
  178MOL     H535759   7.058   6.837   1.111 -2.4343  0.1545  1.2832
  178MOL     H635760   7.144   6.765   1.242  0.9855  2.1744 -1.2463
  178MOL     H735761   6.848   6.751   1.188  0.6656 -0.3168 -0.2236
  178MOL     H835762   6.925   6.675   1.328 -1.9386  1.3210  1.8792
  178MOL     H935763   6.896   6.971   1.284 -1.2370 -0.0271  0.1100
  178MOL    H1035764   7.004   6.917   1.409 -0.3310 -0.6787  0.7597
  178MOL    H1135765   7.153   6.620   1.066  0.2964  0.4949  0.9090
  178MOL    O1235766   6.806   6.884   1.433 -0.4041  0.1472 -0.2588
  178MOL    C1335767   6.755   7.002   1.487 -0.2412  0.2329  0.0776
  178MOL    C1435768   6.647   6.971   1.585 -0.1802 -0.7042  0.2757
  178MOL    C1535769   6.578   7.106   1.620  0.2290  0.1757 -0.3471
  178MOL    H1635770   6.734   7.065   1.401  0.6549 -0.4839 -0.6705
  178MOL    H1735771   6.835   7.054   1.539  0.4621 -1.1495  0.3935
  178MOL    H1835772   6.584   6.897   1.537  2.1479 -0.4982 -3.2900
  178MOL    H1935773   6.691   6.930   1.676 -0.3169 -1.2932  0.0751
  178MOL    H2035774   6.656   7.179   1.643  1.9135 -1.4220 -0.8970
  178MOL    H2135775   6.526   7.103   1.716 -0.6541  2.5316 -0.7218
  178MOL    O2235776   6.477   7.154   1.525 -0.1354  0.5021 -0.1962
  178MOL    C2335777   6.351   7.095   1.547  0.4494 -0.7171 -0.2057
  178MOL    C2435778   6.261   7.181   1.459  0.1732  0.1432  0.1083
  178MOL    C2535779   6.122   7.124   1.430  0.3402  0.6023  0.2171
  178MOL    H2635780   6.325   7.102   1.653 -0.0961  0.1243 -0.3863
  178MOL    H2735781   6.370   6.990   1.525  3.5748 -0.0664 -0.9109
  178MOL    H2835782   6.252   7.275   1.514  1.9856 -0.9385  2.3536
  178MOL    H2935783   6.312   7.206   1.367  1.2844 -0.8603  0.4434
  178MOL    H3035784   6.068   7.121   1.525 -0.5759  1.5988 -0.2551
  178MOL    H3135785   6.145   7.024   1.395 -0.2506  0.5049  0.1005
  178MOL    O3235786   6.050   7.196   1.326 -0.4486  0.1591 -0.5211
  178MOL    C3335787   5.914   7.199   1.334  0.3433  0.0292  0.3563
  178MOL    C3435788   5.865   7.293   1.226 -0.1562  0.8614  0.4969
  178MOL    C3535789   5.713   7.313   1.226  0.8648 -0.1485 -0.5889
  178MOL    H3635790   5.890   7.240   1.432  1.0125  0.6949  0.2437
  178MOL    H3735791   5.873   7.098   1.331 -2.7812  1.1653  2.1178
  178MOL    H3835792   5.920   7.386   1.236  2.0483 -0.6567  2.9099
  178MOL    H3935793   5.897   7.253   1.130  2.4839  1.4398  1.0907
  178MOL    H4035794   5.674   7.233   1.163 -0.1376  0.0713 -0.2602
  178MOL    H4135795   5.680   7.402   1.173  1.6986  0.9234  0.6560
  178MOL    O4235796   5.665   7.316   1.359  0.2623  0.6071  0.3609
  178MOL    C4335797   5.525   7.280   1.370 -0.8629 -0.3234  0.1742
  178MOL    C4435798   5.524   7.134   1.407 -0.4603  0.6547  0.4671
  178MOL    C4535799   5.609   7.099   1.540 -0.0456 -0.4322  0.1077
  178MOL    H4635800   5.472   7.305   1.278  0.4695  1.8559 -0.0408
  178MOL    H4735801   5.484   7.341   1.451 -0.2919  0.6366 -0.2513
  178MOL    H4835802   5.420   7.108   1.425 -0.0109 -0.5584  1.4360
  178MOL    H4935803   5.564   7.071   1.328  1.2301 -1.9312  3.2350
  178MOL    H5035804   5.580   7.155   1.629  0.0249  0.7490 -0.5982
  178MOL    H5135805   5.708   7.136   1.514 -0.0584  0.4623  1.2848
  178MOL    O5235806   5.628   6.960   1.558 -0.1638 -0.2722 -0.0622
  178MOL    C5335807   5.519   6.885   1.598  0.7274 -0.4499  0.1884
  178MOL    C5435808   5.495   6.779   1.493  0.1685 -0.3046 -0.1786
  178MOL    C5535809   5.372   6.690   1.515  0.5218  0.0084 -1.0860
  178MOL    H5635810   5.433   6.940   1.635  0.4635 -0.1633 -0.8449
  178MOL    H5735811   5.543   6.833   1.691  0.9431 -0.9774 -0.1562
  178MOL    H5835812   5.478   6.835   1.401  0.4686  0.6330  0.3319
  178MOL    H5935813   5.586   6.721   1.479  1.0683  0.4382  2.2708
  178MOL    H6035814   5.365   6.606   1.446  1.1530 -1.5973  0.7655
  178MOL    H6135815   5.280   6.748   1.506  1.8096  2.1992 -0.2702
  178MOL    O6235816   5.380   6.634   1.643 -0.3489 -0.6546  0.2103
  178MOL    C6335817   5.281   6.686   1.732 -0.3291 -0.3749  0.1618
  178MOL    C6435818   5.296   6.615   1.873 -0.1773  0.5589  0.3593
  178MOL    C6535819   5.439   6.651   1.935 -0.4341  0.0266 -0.4970
  178MOL    H6635820   5.180   6.672   1.693 -0.0873 -2.5557  0.2494
  178MOL    H6735821   5.294   6.794   1.732  0.4764 -0.4683  1.6912
  178MOL    H6835822   5.220   6.661   1.937  0.1841  0.5243  0.8125
  178MOL    H6935823   5.272   6.509   1.863  0.6971  0.4280 -0.4259
  178MOL    H7035824   5.442   6.756   1.961 -1.0723 -0.2722  0.8258
  178MOL    H7135825   5.526   6.628   1.874 -0.4405  1.8896 -1.2210
  178MOL    O7235826   5.467   6.572   2.057 -0.1101 -0.0237  0.1284
  178MOL    C7335827   5.555   6.641   2.140 -0.5633  0.1054  0.4642
  178MOL    C7435828   5.607   6.537   2.247  0.1549 -0.0541 -0.4780
  178MOL    C7535829   5.703   6.588   2.348  0.4674  0.7271 -0.9200
  178MOL    H7635830   5.517   6.732   2.188  0.1076  1.3598 -1.3170
  178MOL    H7735831   5.636   6.679   2.077  0.0883 -0.0403  1.2140
  178MOL    H7835832   5.517   6.505   2.298  0.7491  2.4059  2.2707
  178MOL    H7935833   5.642   6.441   2.210  0.4960 -0.4957  0.9651
  178MOL    H8035834   5.718   6.516   2.428  1.0670  2.1789  0.3135
  178MOL    H8135835   5.658   6.672   2.402  0.3997  0.1794 -0.1202
  178MOL    O8235836   5.827   6.628   2.296  0.3408 -0.3286  0.1233
  178MOL    C8335837   5.895   6.517   2.253  0.1277  0.2253 -0.1171
  178MOL    C8435838   6.042   6.540   2.283 -0.1723 -0.0333 -0.6003
  178MOL    C8535839   6.136   6.475   2.183 -0.0176  0.7578  0.5688
  178MOL    H8635840   5.866   6.467   2.161 -2.6152  0.4972  0.5447
  178MOL    H8735841   5.882   6.430   2.317 -0.3399 -1.7150 -2.7624
  178MOL    H8835842   6.075   6.644   2.276  1.2632 -0.3606  0.8727
  178MOL    H8935843   6.056   6.507   2.385  2.0377  2.0661 -0.1655
  178MOL    H9035844   6.117   6.510   2.081 -2.1889  0.3966  0.8202
  178MOL    H9135845   6.121   6.368   2.169 -3.3797  1.1823  0.5379
  178MOL    O9235846   6.261   6.515   2.232 -0.3462 -0.0826 -0.1278
  178MOL    C9335847   6.358   6.488   2.131 -0.5453  0.2763  0.2135
  178MOL    C9435848   6.496   6.520   2.189  0.6258  0.6452  0.4509
  178MOL    C9535849   6.621   6.467   2.108  0.1208  0.2582 -0.8550
  178MOL    H9635850   6.326   6.557   2.052 -1.4722  0.5071  0.7764
  178MOL    H9735851   6.343   6.385   2.100 -0.1398  0.3819 -0.3404
  178MOL    H9835852   6.500   6.629   2.189 -2.3272  0.8119 -0.7291
  178MOL    H9935853   6.499   6.490   2.294 -1.1465 -0.2266  0.2741
  178MOL   H10035854   6.704   6.522   2.153  1.9186 -2.5105 -0.6706
  178MOL   H10135855   6.613   6.498   2.004 -0.6454  1.4537 -0.4556
  178MOL   O10235856   6.624   6.325   2.116 -0.3012  0.1071  0.4501
  178MOL   C10335857   6.696   6.266   2.214 -0.2589 -0.1596  0.0648
  178MOL   C10435858   6.670   6.114   2.192 -0.1458  0.2239  0.5074
  178MOL   C10535859   6.722   6.031   2.310  0.2726 -0.6258 -0.0605
  178MOL   H10635860   6.680   6.293   2.319 -0.7947 -1.6339  0.3755
  178MOL   H10735861   6.799   6.300   2.200 -0.4404  0.7905  0.9166
  178MOL   H10835862   6.566   6.086   2.177  0.3128 -0.8798 -0.6737
  178MOL   H10935863   6.708   6.080   2.096 -2.3294  0.1094 -0.3463
  178MOL   H11035864   6.679   6.056   2.407  0.6605  0.7039 -0.2249
  178MOL   H11135865   6.830   6.038   2.322 -0.0893  2.2878  1.8495
  178MOL   O11235866   6.698   5.897   2.288 -0.2267 -0.0735 -0.2215
  178MOL   C11335867   6.773   5.809   2.381 -0.1081 -0.9208  0.2567
  178MOL   C11435868   6.721   5.673   2.349  0.9695 -0.4475 -0.6155
  178MOL   C11535869   6.801   5.568   2.425  0.0211 -0.4125 -0.5117
  178MOL   H11635870   6.757   5.837   2.485  1.9821  0.2526  0.2863
  178MOL   H11735871   6.880   5.803   2.357 -0.8580 -0.2446 -3.5147
  178MOL   H11835872   6.619   5.666   2.388  1.6693 -1.0607  1.1575
  178MOL   H11935873   6.710   5.660   2.242 -1.7092  1.9334 -0.7099
  178MOL   H12035874   6.787   5.589   2.531 -3.7675 -1.1050 -0.7993
  178MOL   H12135875   6.908   5.563   2.403  0.2281 -1.1648  0.5980
  178MOL   O12235876   6.734   5.446   2.386  0.2326  0.2507 -0.3210
  178MOL   C12335877   6.760   5.334   2.479  0.3579  0.4073  1.2527
  178MOL   C12435878   6.682   5.206   2.440 -0.1197  0.1449 -0.2152
  178MOL   C12535879   6.737   5.127   2.326 -0.2336 -0.0562  0.1779
  178MOL   H12635880   6.724   5.362   2.578 -0.9878 -1.2277  1.2540
  178MOL   H12735881   6.868   5.323   2.477  0.6425  2.8842  0.8685
  178MOL   H12835882   6.674   5.132   2.519 -0.8142  0.3641 -0.0784
  178MOL   H12935883   6.581   5.237   2.412  0.4875  0.4652 -2.1803
  178MOL   H13035884   6.751   5.193   2.241  1.1367  2.0960  2.0111
  178MOL   H13135885   6.675   5.042   2.298  0.6353 -0.5642 -0.2397
  178MOL   O13235886   6.865   5.087   2.364 -0.1339  0.2842  0.6340
  178MOL   C13335887   6.929   4.993   2.285 -0.4947 -0.1726 -0.2782
  178MOL   C13435888   7.071   4.966   2.335 -0.3759  0.7276 -0.2850
  178MOL   C13535889   7.148   4.843   2.285 -0.0705 -0.2787  0.4256
  178MOL   H13635890   6.934   5.029   2.182  1.3923  0.3233 -0.0426
  178MOL   H13735891   6.869   4.902   2.289  0.3531 -0.7075  0.7479
  178MOL   H13835892   7.137   5.047   2.305 -0.4493  0.2913 -1.6458
  178MOL   H13935893   7.069   4.970   2.444 -0.4162 -0.4901 -0.2351
  178MOL   H14035894   7.245   4.831   2.334  0.5803  1.0027 -0.5219
  178MOL   H14135895   7.172   4.845   2.179 -0.1882 -0.3668  0.3971
  178MOL   O14235896   7.066   4.724   2.296 -0.2740  0.1586  0.1975
  178MOL   C14335897   7.056   4.661   2.423  0.2239 -0.1853  1.0201
  178MOL   C14435898   7.025   4.514   2.403 -0.5680  0.0887 -0.4992
  178MOL   C14535899   6.990   4.435   2.533  0.3124 -0.9693 -0.4076
  178MOL   H14635900   6.968   4.699   2.474 -1.3702 -1.0112 -1.0795
  178MOL   H14735901   7.143   4.683   2.485  0.9333  0.6265 -0.2393
  178MOL   H14835902   6.953   4.502   2.322  0.1107  0.0502 -1.0999
  178MOL   H14935903   7.112   4.456   2.372 -2.4965 -3.4590  0.3549
  178MOL   H15035904   6.916   4.481   2.599  2.0750  1.0276  0.2414
  178MOL   H15135905   7.082   4.437   2.590  0.4669 -1.7021 -0.6337
  178MOL   O15235906   6.949   4.298   2.518 -0.6480  0.1792  0.1985
  178MOL   C15335907   6.996   4.214   2.622  0.0578  0.2701 -0.0269
  178MOL   C15435908   6.922   4.079   2.602  0.3636  0.3376  0.2316
  178MOL   C15535909   6.935   3.984   2.716  0.8661  0.2314  0.0890
  178MOL   H15635910   6.960   4.246   2.719  3.0598  0.2489  1.1589
  178MOL   H15735911   7.104   4.207   2.637 -0.3975 -3.3773  2.1382
  178MOL   H15835912   6.813   4.075   2.592  0.3758 -3.0919  0.8973
  178MOL   H15935913   6.959   4.028   2.513 -0.6913  0.1527 -0.1126
  178MOL   H16035914   6.916   4.040   2.807  1.6936  0.5953  0.0435
  178MOL   H16135915   7.039   3.954   2.708  0.5175 -0.9576 -0.0936
  178MOL   O16235916   6.848   3.872   2.703  0.2548 -0.2040 -0.6733
  178MOL   C16335917   6.859   3.794   2.821 -0.1557  0.6366 -0.4983
  178MOL   C16435918   6.807   3.648   2.800 -0.0506 -0.0839  0.3882
  178MOL   C16535919   6.912   3.542   2.754  0.2105 -0.0962 -1.0318
  178MOL   H16635920   6.797   3.850   2.891 -0.0340 -1.9705  1.7959
  178MOL   H16735921   6.961   3.787   2.861 -0.6848  1.3119  1.0176
  178MOL   H16835922   6.760   3.615   2.894 -1.1285  1.0173  0.2485
  178MOL   H16935923   6.730   3.658   2.724 -1.6126 -0.3397  1.8882
  178MOL   H17035924   6.979   3.516   2.835 -0.3851 -0.7662 -0.7481
  178MOL   H17135925   6.975   3.594   2.682 -0.6152  0.5697 -1.2891
  178MOL   O17235926   6.848   3.427   2.705  0.2170  0.5186  0.7314
  178MOL   C17335927   6.937   3.323   2.666 -0.6999  0.3234  0.2722
  178MOL   C17435928   6.840   3.222   2.595 -0.6567 -0.6653  0.0702
  178MOL   C17535929   6.738   3.282   2.496  0.3757 -0.1129  0.9902
  178MOL   H17635930   6.974   3.284   2.761  1.1905  2.2425  0.3456
  178MOL   H17735931   7.006   3.374   2.598 -0.5833  1.8358  1.5183
  178MOL   H17835932   6.899   3.142   2.549 -0.3554  0.0752 -0.8508
  178MOL   H17935933   6.777   3.180   2.674 -2.3340  2.4233  0.4686
  178MOL   H18035934   6.791   3.321   2.408  1.4561 -0.4321  1.4855
  178MOL   H18135935   6.676   3.362   2.536  0.1404 -0.1031  0.6107
  178MOL   O18235936   6.664   3.170   2.460  0.8090  0.0756  0.3640
  178MOL   C18335937   6.541   3.205   2.397 -0.0167  0.6098 -0.4490
  178MOL   C18435938   6.469   3.087   2.329 -0.4284 -0.1794 -0.3980
  178MOL   C18535939   6.452   2.974   2.426 -0.3803 -0.1587  0.0113
  178MOL   H18635940   6.547   3.295   2.337  2.3539  0.7785  0.0102
  178MOL   H18735941   6.480   3.240   2.479  2.1136  0.6698  1.1537
  178MOL   H18835942   6.373   3.117   2.286 -1.5185 -0.9881  1.4410
  178MOL   H18935943   6.529   3.064   2.241 -0.0727  1.6977 -0.6682
  178MOL   H19035944   6.422   3.009   2.524 -0.4270 -0.3568  0.0678
  178MOL   H19135945   6.546   2.918   2.432 -1.2287 -1.3352  3.4241
  178MOL   O19235946   6.362   2.879   2.373  0.5363 -0.9519  0.1986
  178MOL   C19335947   6.412   2.743   2.377  0.1946 -0.0563  0.5993
  178MOL   C19435948   6.298   2.640   2.340 -0.0933 -0.6106 -0.4084
  178MOL   C19535949   6.176   2.668   2.427  0.6692 -0.4775 -0.2775
  178MOL   H19635950   6.454   2.719   2.475 -0.6400 -1.8895  0.5192
  178MOL   H19735951   6.489   2.723   2.303 -1.8521 -1.2514 -1.2539
  178MOL   H19835952   6.259   2.662   2.241 -0.9906  0.5183  0.1834
  178MOL   H19935953   6.333   2.537   2.351 -1.5518 -0.8843  2.0622
  178MOL   H20035954   6.151   2.770   2.399  0.4682 -0.7628 -1.1429
  178MOL   H20135955   6.198   2.651   2.533 -0.7080 -0.3216  0.0405
  178MOL   H20235956   6.089   2.612   2.394  0.9584 -1.5284  0.7049
  179MOL     O135957   0.187   4.424   4.841  0.2625  0.3054 -0.4253
  179MOL     C235958   0.327   4.430   4.839 -0.1430 -0.4050 -1.1122
  179MOL     C335959   0.369   4.307   4.748 -0.2341 -0.9967 -0.4098
  179MOL     C435960   0.520   4.316   4.717  0.1164  0.7861 -0.0687
  179MOL     H535961   0.375   4.421   4.936  0.7423  0.8342 -1.4339
  179MOL     H635962   0.345   4.521   4.782 -0.9942  0.1834 -0.4511
  179MOL     H735963   0.350   4.211   4.796 -0.6198  0.1411  1.7921
  179MOL     H835964   0.310   4.310   4.656 -0.8152  0.4613 -0.0097
  179MOL     H935965   0.574   4.299   4.810 -1.8624 -2.1970  0.6182
  179MOL    H1035966   0.542   4.418   4.689  2.7255  0.0880 -0.6546
  179MOL    H1135967   0.149   4.506   4.871 -2.1411 -0.3983 -1.3466
  179MOL    O1235968   0.542   4.241   4.602  0.1730 -0.0345 -0.1772
  179MOL    C1335969   0.673   4.191   4.596 -0.3120  0.0559 -1.0421
  179MOL    C1435970   0.687   4.104   4.473 -0.4690  0.1312 -0.3141
  179MOL    C1535971   0.819   4.027   4.451 -0.5189 -0.0870 -0.0085
  179MOL    H1635972   0.707   4.138   4.685  1.7642 -0.0517 -1.8697
  179MOL    H1735973   0.742   4.275   4.584  0.8596 -0.7993 -0.2980
  179MOL    H1835974   0.605   4.032   4.479  0.7205 -1.3405 -1.4872
  179MOL    H1935975   0.680   4.168   4.385  1.8794  0.4982 -0.2518
  179MOL    H2035976   0.840   3.956   4.531  2.5780  0.5226 -0.2162
  179MOL    H2135977   0.903   4.098   4.450 -0.0394 -0.6454 -2.8532
  179MOL    O2235978   0.814   3.960   4.321 -0.2552  0.0234 -1.3461
  179MOL    C2335979   0.938   3.895   4.297  0.7098 -0.1352  0.2271
  179MOL    C2435980   0.947   3.833   4.160  0.0824  0.2964  0.3576
  179MOL    C2535981   1.085   3.780   4.130 -0.4378  0.4461 -0.2902
  179MOL    H2635982   0.955   3.809   4.363 -3.2328 -1.2159 -0.0568
  179MOL    H2735983   1.015   3.971   4.300  1.2453 -0.5919 -1.2701
  179MOL    H2835984   0.873   3.754   4.151  0.5396 -0.2726  1.4208
  179MOL    H2935985   0.921   3.908   4.085 -1.4101  0.5023  1.0689
  179MOL    H3035986   1.073   3.739   4.029  2.0164  0.4339 -0.5944
  179MOL    H3135987   1.107   3.695   4.193  4.1735  0.0381 -2.2231
  179MOL    O3235988   1.194   3.870   4.139  0.3237  0.2318 -0.2270
  179MOL    C3335989   1.326   3.814   4.109  0.2398  0.3495  0.0944
  179MOL    C3435990   1.438   3.926   4.095  0.9137  0.6385  0.6710
  179MOL    C3535991   1.577   3.858   4.108 -0.1432  0.0176  0.2681
  179MOL    H3635992   1.326   3.752   4.019 -1.6736 -0.0736  0.3757
  179MOL    H3735993   1.351   3.752   4.195 -0.6483 -1.3075 -0.8210
  179MOL    H3835994   1.438   3.987   4.005  0.6966 -0.1332  0.1471
  179MOL    H3935995   1.433   3.999   4.176  2.4410 -0.3720  1.7061
  179MOL    H4035996   1.657   3.932   4.111 -0.4946  0.4061  0.0511
  179MOL    H4135997   1.596   3.789   4.025  0.3867 -0.5659  0.8725
  179MOL    O4235998   1.598   3.794   4.232  0.8500  1.3895  0.7384
  179MOL    C4335999   1.723   3.728   4.241 -0.3953  0.2428  0.4733
  179MOL    C4436000   1.740   3.659   4.379  0.4842  0.3247 -0.4047
  179MOL    C4536001   1.721   3.768   4.491 -0.1136  1.1137 -0.0436
  179MOL    H4636002   1.805   3.800   4.239 -0.4523  0.3029  0.2823
  179MOL    H4736003   1.740   3.669   4.151  1.1503  0.9664  0.2741
  179MOL    H4836004   1.656   3.589   4.385 -1.2313  2.4545  0.9955
  179MOL    H4936005   1.833   3.602   4.386  1.4505  1.9130 -0.2651
  179MOL    H5036006   1.618   3.803   4.493 -0.6414 -0.3130 -1.2662
  179MOL    H5136007   1.776   3.857   4.460  0.0084  1.2545  0.5788
  179MOL    O5236008   1.760   3.718   4.623  0.3113  1.1031  0.2293
  179MOL    C5336009   1.721   3.809   4.729  0.1387  0.3084  0.0925
  179MOL    C5436010   1.779   3.750   4.860 -0.1012 -0.0896 -0.0086
  179MOL    C5536011   1.727   3.831   4.983 -0.1819  0.7342  0.7961
  179MOL    H5636012   1.614   3.824   4.740  0.3560  1.9530  0.1189
  179MOL    H5736013   1.761   3.909   4.709 -1.4009  0.7764 -0.6986
  179MOL    H5836014   1.757   3.645   4.878 -3.5145  0.5099 -0.2404
  179MOL    H5936015   1.887   3.760   4.856 -0.0601  0.1004  1.3092
  179MOL    H6036016   1.619   3.826   4.998 -0.2064 -0.8346  0.1504
  179MOL    H6136017   1.738   3.933   4.945  1.6951  0.2504  0.0208
  179MOL    O6236018   1.796   3.803   5.098  0.6658  0.4519  0.8323
  179MOL    C6336019   1.751   3.895   5.198  0.7378 -0.2740  0.8330
  179MOL    C6436020   1.826   3.863   5.332 -0.1325 -0.4033  0.0219
  179MOL    C6536021   1.820   3.714   5.375  0.0231 -0.4073 -0.2919
  179MOL    H6636022   1.646   3.878   5.218  0.6814 -0.9772 -0.0711
  179MOL    H6736023   1.770   3.996   5.160  1.2148 -0.4132  0.6923
  179MOL    H6836024   1.927   3.900   5.314  0.1233 -1.6987 -1.2838
  179MOL    H6936025   1.783   3.930   5.406 -0.0769  2.5367 -2.5254
  179MOL    H7036026   1.861   3.651   5.295 -1.7912 -3.1838  0.8890
  179MOL    H7136027   1.717   3.683   5.389 -0.3566  0.4800 -1.0323
  179MOL    O7236028   1.893   3.703   5.494  0.0953 -0.9258  0.1026
  179MOL    C7336029   1.893   3.576   5.563 -0.5810 -0.2068 -0.1672
  179MOL    C7436030   1.958   3.628   5.695 -0.8186  0.1685  0.0894
  179MOL    C7536031   2.001   3.523   5.793 -0.5576 -0.2614  0.7745
  179MOL    H7636032   1.963   3.513   5.507  0.6180  0.7267  0.2708
  179MOL    H7736033   1.795   3.530   5.571 -0.6919  0.5072  3.2585
  179MOL    H7836034   2.053   3.678   5.677  0.2181 -0.3673  3.6554
  179MOL    H7936035   1.895   3.697   5.751  0.4331  0.5939  1.0060
  179MOL    H8036036   1.918   3.458   5.823 -2.7506  1.8790 -0.4946
  179MOL    H8136037   2.041   3.569   5.883  0.3685 -1.4557  0.9938
  179MOL    O8236038   2.085   3.438   5.720  0.0220 -0.0207  0.3785
  179MOL    C8336039   2.138   3.332   5.805  0.2814 -0.4877  0.9936
  179MOL    C8436040   2.228   3.240   5.722 -0.0517 -0.4043 -0.1120
  179MOL    C8536041   2.279   3.122   5.799 -0.5564  0.5523 -0.2572
  179MOL    H8636042   2.061   3.260   5.834 -2.3682  0.5449 -3.0620
  179MOL    H8736043   2.186   3.367   5.896  2.2254 -0.9472  0.1833
  179MOL    H8836044   2.168   3.206   5.637  2.2954  0.6375 -2.2628
  179MOL    H8936045   2.305   3.309   5.687 -0.3050  0.7210  1.5263
  179MOL    H9036046   2.192   3.061   5.822  0.3735 -0.0399  1.7785
  179MOL    H9136047   2.323   3.148   5.895  0.0893  0.0869 -0.4286
  179MOL    O9236048   2.354   3.039   5.712 -0.2103  0.2452  0.1542
  179MOL    C9336049   2.383   2.918   5.782 -0.4787 -0.2089 -0.4754
  179MOL    C9436050   2.434   2.827   5.674  0.7918  0.4862  0.0051
  179MOL    C9536051   2.499   2.704   5.735 -0.8873  0.0544 -0.0090
  179MOL    H9636052   2.305   2.865   5.838 -0.1718  0.9100  1.0238
  179MOL    H9736053   2.462   2.937   5.856 -2.6599  0.7742  1.6665
  179MOL    H9836054   2.348   2.798   5.614  0.4679  1.3465  0.0462
  179MOL    H9936055   2.498   2.882   5.606  0.3004  0.4146 -0.5216
  179MOL   H10036056   2.414   2.643   5.768 -1.5034  0.3129 -1.0550
  179MOL   H10136057   2.566   2.738   5.813 -0.7338 -1.4882  0.5500
  179MOL   O10236058   2.572   2.648   5.630 -0.2864  0.2819  0.0017
  179MOL   C10336059   2.624   2.518   5.661  0.1985 -0.2795  0.4472
  179MOL   C10436060   2.679   2.447   5.533  0.0918 -0.4252 -0.2853
  179MOL   C10536061   2.812   2.499   5.473 -0.5111 -1.3163  0.6770
  179MOL   H10636062   2.548   2.454   5.705  0.0021 -0.2514  0.1517
  179MOL   H10736063   2.712   2.530   5.724  1.8751  2.2583 -2.2192
  179MOL   H10836064   2.696   2.341   5.553 -2.2423 -0.4463  1.8419
  179MOL   H10936065   2.602   2.451   5.456 -0.6559  1.5839  0.5269
  179MOL   H11036066   2.898   2.473   5.536 -0.1616  1.3742  1.4077
  179MOL   H11136067   2.826   2.606   5.458  0.2692 -1.1935  2.1261
  179MOL   O11236068   2.807   2.417   5.360 -0.5510  0.4427 -0.0451
  179MOL   C11336069   2.907   2.437   5.262  0.7938  0.6289  0.5033
  179MOL   C11436070   3.030   2.349   5.296 -0.9986  0.1576  0.0799
  179MOL   C11536071   3.149   2.377   5.198  0.3343  0.0697 -0.1299
  179MOL   H11636072   2.939   2.541   5.264 -0.7147  1.1041  0.9199
  179MOL   H11736073   2.863   2.417   5.164  2.0980 -0.5502  0.1457
  179MOL   H11836074   3.056   2.374   5.399  0.4759 -0.3473 -0.1567
  179MOL   H11936075   3.011   2.241   5.293  2.0055 -0.4717  1.7333
  179MOL   H12036076   3.194   2.471   5.231  1.7551 -0.5070 -0.4099
  179MOL   H12136077   3.110   2.393   5.098  0.1584  0.5828  0.0160
  179MOL   O12236078   3.247   2.274   5.213 -0.3528 -0.2314 -0.4524
  179MOL   C12336079   3.382   2.317   5.180  0.4440  0.0866 -1.0127
  179MOL   C12436080   3.467   2.193   5.203  0.2517 -0.3687 -0.0493
  179MOL   C12536081   3.472   2.164   5.355  0.7413  0.2053  0.1611
  179MOL   H12636082   3.410   2.401   5.243 -0.6765  1.2614 -2.0445
  179MOL   H12736083   3.386   2.348   5.075  0.4581  0.0095 -1.0346
  179MOL   H12836084   3.436   2.109   5.140  0.1377  1.2821 -2.2539
  179MOL   H12936085   3.572   2.205   5.176  0.1007  0.3406 -0.3347
  179MOL   H13036086   3.368   2.159   5.388  0.6515  0.3294 -0.1013
  179MOL   H13136087   3.528   2.244   5.403  0.2856  1.7637 -1.8097
  179MOL   O13236088   3.520   2.037   5.365 -0.6234  0.2974  0.1555
  179MOL   C13336089   3.520   2.009   5.508 -0.1678  0.0571  0.0591
  179MOL   C13436090   3.558   1.859   5.532  0.0643 -1.0814  0.0111
  179MOL   C13536091   3.460   1.763   5.467  0.0852 -0.3589 -0.1130
  179MOL   H13636092   3.419   2.023   5.544  0.1194 -0.1532  0.9584
  179MOL   H13736093   3.601   2.072   5.544 -0.3413 -0.8444  2.1020
  179MOL   H13836094   3.658   1.851   5.488 -0.0023  2.3127 -0.8409
  179MOL   H13936095   3.563   1.827   5.637 -2.1504  1.2390  0.8770
  179MOL   H14036096   3.432   1.806   5.371 -0.3148  1.7294  0.9117
  179MOL   H14136097   3.373   1.741   5.530  0.3511  1.6732  1.0098
  179MOL   O14236098   3.533   1.640   5.450  0.3206 -0.5953 -0.6563
  179MOL   C14336099   3.460   1.538   5.385  0.6845  0.7197  0.4453
  179MOL   C14436100   3.390   1.442   5.477 -0.2855  0.4445 -1.0796
  179MOL   C14536101   3.288   1.349   5.402 -0.3993 -0.1817 -0.0583
  179MOL   H14636102   3.534   1.476   5.335 -0.1046 -0.6913  1.0050
  179MOL   H14736103   3.392   1.588   5.316  0.0006  1.5920  1.7194
  179MOL   H14836104   3.459   1.366   5.516 -0.0373  1.1301 -0.1744
  179MOL   H14936105   3.341   1.492   5.561  1.0842 -0.6167  0.3969
  179MOL   H15036106   3.239   1.283   5.473 -2.6807  2.6605  1.1267
  179MOL   H15136107   3.336   1.275   5.339 -0.8295 -0.5904  0.0956
  179MOL   O15236108   3.184   1.409   5.321 -0.4526  0.1249 -0.5654
  179MOL   C15336109   3.108   1.306   5.250  0.1003 -0.9772  0.2030
  179MOL   C15436110   2.964   1.337   5.300 -0.3643  0.0867  0.6003
  179MOL   C15536111   2.850   1.255   5.263  0.6650  0.7609  0.7063
  179MOL   H15636112   3.139   1.206   5.281  1.3149 -0.8341 -0.5186
  179MOL   H15736113   3.108   1.327   5.143 -3.0170 -1.5654  0.0498
  179MOL   H15836114   2.984   1.352   5.406  1.3072  1.1086  0.1571
  179MOL   H15936115   2.945   1.436   5.258 -1.0367 -0.1382  0.3656
  179MOL   H16036116   2.834   1.239   5.156 -1.9001 -1.2435  1.3490
  179MOL   H16136117   2.765   1.306   5.307  0.5311  0.5389  0.7055
  179MOL   O16236118   2.872   1.133   5.319 -0.3639 -0.1152 -0.0857
  179MOL   C16336119   2.756   1.055   5.322 -0.1682  0.4023 -0.4217
  179MOL   C16436120   2.787   0.934   5.406 -0.2408 -0.1178 -0.1895
  179MOL   C16536121   2.685   0.823   5.403  0.3979  0.0933 -0.4071
  179MOL   H16636122   2.731   1.018   5.222 -0.0643  2.7129 -1.3380
  179MOL   H16736123   2.676   1.123   5.349  0.4328  1.2916 -0.8863
  179MOL   H16836124   2.884   0.898   5.372 -0.6601 -0.5914 -0.8901
  179MOL   H16936125   2.804   0.977   5.504  1.8052  0.3375 -0.7239
  179MOL   H17036126   2.689   0.773   5.307  0.6097  1.7781 -1.2967
  179MOL   H17136127   2.591   0.875   5.422  1.2054  1.5291 -0.2652
  179MOL   O17236128   2.723   0.725   5.500 -0.4607  0.4261  0.2474
  179MOL   C17336129   2.631   0.624   5.506 -0.2140 -0.0797 -0.2785
  179MOL   C17436130   2.705   0.509   5.563  0.1737 -0.3120 -0.0251
  179MOL   C17536131   2.639   0.374   5.547  0.2532 -0.1573 -0.5313
  179MOL   H17636132   2.597   0.596   5.406 -2.5462  0.6810  0.2659
  179MOL   H17736133   2.542   0.656   5.561 -2.9907 -0.4828 -4.3204
  179MOL   H17836134   2.798   0.489   5.509 -0.0829 -2.5554  0.3517
  179MOL   H17936135   2.709   0.520   5.671 -1.0272 -3.8696  0.4208
  179MOL   H18036136   2.541   0.362   5.593  0.6109  1.6257  0.7676
  179MOL   H18136137   2.705   0.302   5.597  2.2086  0.7791 -1.6852
  179MOL   O18236138   2.629   0.337   5.407  0.2105  0.2936  0.2162
  179MOL   C18336139   2.579   0.212   5.369  0.0091 -0.4852  0.4079
  179MOL   C18436140   2.564   0.226   5.215  0.7779 -0.3000  0.0882
  179MOL   C18536141   2.491   0.099   5.164  0.0009 -0.1112 -0.3526
  179MOL   H18636142   2.476   0.203   5.400  0.0085 -1.1774  0.2121
  179MOL   H18736143   2.637   0.127   5.406 -0.2729 -0.7969  0.1377
  179MOL   H18836144   2.507   0.314   5.187 -0.2136 -0.5674  1.2244
  179MOL   H18936145   2.660   0.235   5.164 -0.2876 -0.5917 -2.0280
  179MOL   H19036146   2.467   0.123   5.061 -0.1486 -2.1571 -0.8163
  179MOL   H19136147   2.405   0.073   5.224 -1.5655  1.6688 -1.7573
  179MOL   O19236148   2.582   0.001   5.181 -0.3239 -0.0648  0.2666
  179MOL   C19336149   2.532   7.665   5.136  0.6637  0.2139  0.2434
  179MOL   C19436150   2.642   7.566   5.132 -0.1646 -0.2713  0.7479
  179MOL   C19536151   2.596   7.432   5.082 -0.0724  0.0007 -0.3915
  179MOL   H19636152   2.488   7.685   5.038 -1.9628 -0.4889  1.2231
  179MOL   H19736153   2.447   7.636   5.197 -0.1426 -1.6008 -1.6961
  179MOL   H19836154   2.704   7.611   5.054 -0.3371 -2.1177 -0.4764
  179MOL   H19936155   2.692   7.553   5.228  0.3159  2.1694  0.8677
  179MOL   H20036156   2.677   7.360   5.076  1.8220  1.8811  1.5732
  179MOL   H20136157   2.564   7.439   4.978 -2.9635 -1.3541  0.3627
  179MOL   H20236158   2.522   7.378   5.141 -0.5428 -0.9468 -1.8169
  180MOL     O136159   6.307   1.686   1.017 -0.6884 -0.0217  0.2788
  180MOL     C236160   6.288   1.733   1.152  0.2337  0.4334  0.1622
  180MOL     C336161   6.341   1.884   1.182  0.5364 -0.3773  0.7423
  180MOL     C436162   6.263   1.940   1.294 -0.3554 -0.1257 -0.4301
  180MOL     H536163   6.332   1.668   1.227  0.5439  0.0233 -0.3698
  180MOL     H636164   6.179   1.740   1.160  0.3770  1.2925  1.4963
  180MOL     H736165   6.448   1.898   1.198  0.5142  0.6752  0.0074
  180MOL     H836166   6.313   1.944   1.095  0.4552 -1.1163  0.2543
  180MOL     H936167   6.156   1.917   1.293 -0.3184 -0.3019  0.0577
  180MOL    H1036168   6.266   2.048   1.274  0.0966  0.2599  1.6482
  180MOL    H1136169   6.269   1.599   1.015 -0.6917 -0.0084 -0.6216
  180MOL    O1236170   6.334   1.907   1.413  0.0586  0.1382 -0.4427
  180MOL    C1336171   6.259   1.946   1.525  0.0026  0.4794 -0.6101
  180MOL    C1436172   6.334   1.888   1.640 -0.4126  0.6650 -0.1940
  180MOL    C1536173   6.459   1.962   1.686 -0.0335 -0.5646 -0.6885
  180MOL    H1636174   6.155   1.916   1.512  0.8801 -2.1608 -1.9063
  180MOL    H1736175   6.246   2.055   1.526 -0.5480  0.4135 -0.7983
  180MOL    H1836176   6.265   1.870   1.722 -0.4367 -1.8687 -0.7588
  180MOL    H1936177   6.368   1.789   1.611  2.0316  1.4279 -0.0940
  180MOL    H2036178   6.428   2.066   1.696 -0.0392 -0.6406  0.0550
  180MOL    H2136179   6.522   1.958   1.596  0.4478  1.9917 -0.4961
  180MOL    O2236180   6.526   1.910   1.795  0.7223 -0.4100 -0.1718
  180MOL    C2336181   6.600   2.012   1.860  0.7899  0.2950  0.5503
  180MOL    C2436182   6.705   1.948   1.952 -0.3225  0.0574  0.2811
  180MOL    C2536183   6.819   2.033   2.006  0.3441 -0.1170  0.3361
  180MOL    H2636184   6.535   2.084   1.909 -2.6660 -2.7240  0.5459
  180MOL    H2736185   6.653   2.073   1.786  1.1139  1.1313  1.4643
  180MOL    H2836186   6.647   1.903   2.032 -0.2239 -0.8028 -0.1187
  180MOL    H2936187   6.762   1.873   1.896  0.4938  0.8218  0.0812
  180MOL    H3036188   6.781   2.131   2.035  2.2284  0.7256 -0.0009
  180MOL    H3136189   6.895   2.054   1.931 -0.7554 -2.2438 -1.4413
  180MOL    O3236190   6.884   1.962   2.113  0.1105 -0.2984 -0.1717
  180MOL    C3336191   7.005   2.028   2.146  0.2595  0.6618  0.0536
  180MOL    C3436192   7.083   1.949   2.256 -0.4966  0.2582  0.4594
  180MOL    C3536193   7.033   1.968   2.404 -0.6139 -0.4053  0.1760
  180MOL    H3636194   6.981   2.130   2.176  0.1815  0.5202  0.4782
  180MOL    H3736195   7.076   2.032   2.064 -0.7622  1.0619 -0.8140
  180MOL    H3836196   7.099   1.843   2.234  3.5344  0.9831 -0.4512
  180MOL    H3936197   7.184   1.989   2.259 -0.2709 -0.3338  0.7728
  180MOL    H4036198   7.085   1.909   2.479 -0.4160  0.6804  0.9164
  180MOL    H4136199   6.933   1.924   2.403 -0.5769 -0.4622 -1.3647
  180MOL    O4236200   7.023   2.101   2.444  0.0914 -0.4313 -0.1954
  180MOL    C4336201   7.157   2.156   2.458 -0.4658 -0.6712 -0.3630
  180MOL    C4436202   7.146   2.280   2.555 -0.1494  0.1355  0.0391
  180MOL    C4536203   7.050   2.384   2.493  0.4476 -0.4832 -0.4027
  180MOL    H4636204   7.188   2.197   2.362 -2.9985  1.7169 -0.2401
  180MOL    H4736205   7.226   2.082   2.497 -1.4616 -0.9142  0.9787
  180MOL    H4836206   7.104   2.235   2.645  0.6898 -1.6861 -0.4502
  180MOL    H4936207   7.242   2.320   2.587 -0.7619  1.0531  0.7516
  180MOL    H5036208   6.946   2.354   2.485  0.2938  0.1880 -0.9959
  180MOL    H5136209   7.083   2.412   2.393  2.0607 -0.2939  0.1753
  180MOL    O5236210   7.057   2.495   2.577 -1.0080  0.3047 -0.4609
  180MOL    C5336211   6.993   2.601   2.515 -0.3140 -0.2168 -0.7330
  180MOL    C5436212   7.065   2.725   2.570 -0.4448  0.9009  0.2079
  180MOL    C5536213   7.052   2.854   2.495  0.1680  0.3723  0.1258
  180MOL    H5636214   6.890   2.618   2.547  0.0611  1.3650 -0.3024
  180MOL    H5736215   6.994   2.612   2.407  0.3889 -0.0485 -0.7117
  180MOL    H5836216   7.036   2.743   2.673 -1.3517 -2.7545  0.6623
  180MOL    H5936217   7.167   2.687   2.574 -1.0446 -0.9650 -1.2801
  180MOL    H6036218   7.114   2.933   2.536  2.4170 -1.8237  1.0694
  180MOL    H6136219   6.951   2.895   2.485 -0.2709 -0.1016  2.3932
  180MOL    O6236220   7.097   2.825   2.369 -0.1223 -0.7381 -0.0214
  180MOL    C6336221   7.110   2.937   2.281  0.3644  0.6856 -0.5824
  180MOL    C6436222   6.974   2.989   2.224  0.8958 -0.1001 -0.6140
  180MOL    C6536223   7.001   3.104   2.125 -0.1342  0.1271 -0.7418
  180MOL    H6636224   7.162   2.913   2.188  0.5350 -1.8471  0.1485
  180MOL    H6736225   7.169   3.019   2.321  1.0624 -0.7291  1.3641
  180MOL    H6836226   6.928   2.908   2.167 -1.0872 -1.0837  2.2486
  180MOL    H6936227   6.904   3.019   2.302  0.6885  0.6648 -1.0885
  180MOL    H7036228   7.075   3.084   2.047 -0.7839  0.2926 -1.4060
  180MOL    H7136229   7.040   3.186   2.186 -0.0490 -0.5288  0.0954
  180MOL    O7236230   6.868   3.153   2.080 -0.5004  0.3685  0.0512
  180MOL    C7336231   6.875   3.260   1.979  0.1044 -0.2896  0.1935
  180MOL    C7436232   6.736   3.320   1.948  0.5921  0.3238 -0.4267
  180MOL    C7536233   6.673   3.404   2.061  0.9364 -0.1789  0.2313
  180MOL    H7636234   6.919   3.209   1.894  1.8889  0.7713  0.4569
  180MOL    H7736235   6.944   3.340   2.006  1.1842 -1.1632  0.0340
  180MOL    H7836236   6.734   3.388   1.863  0.7382  0.9286  0.0483
  180MOL    H7936237   6.686   3.229   1.916  2.2240 -0.9479  0.5423
  180MOL    H8036238   6.748   3.477   2.094  1.6806 -0.9231  0.2178
  180MOL    H8136239   6.642   3.339   2.143 -1.1396 -0.5104 -0.7869
  180MOL    O8236240   6.571   3.493   2.012  0.1841 -0.4630 -0.2907
  180MOL    C8336241   6.442   3.437   2.011 -0.0370 -0.1477 -0.3412
  180MOL    C8436242   6.344   3.547   1.982 -0.3267  0.1589  0.2118
  180MOL    C8536243   6.197   3.506   1.985  0.1376 -0.3605  0.3826
  180MOL    H8636244   6.422   3.396   2.110  2.0543 -0.5820 -0.0793
  180MOL    H8736245   6.440   3.359   1.935 -0.5547 -0.9631  0.5075
  180MOL    H8836246   6.381   3.625   2.048 -0.1123  2.2761 -2.3053
  180MOL    H8936247   6.373   3.585   1.884  0.9375 -0.8941  0.1614
  180MOL    H9036248   6.133   3.582   1.940  1.0533  1.9959  2.9413
  180MOL    H9136249   6.177   3.483   2.090  1.0094 -1.6563  0.2765
  180MOL    O9236250   6.184   3.381   1.919  0.0333 -0.4482  0.2627
  180MOL    C9336251   6.051   3.351   1.877  1.3470 -0.4770  0.5310
  180MOL    C9436252   6.021   3.203   1.838 -0.5577 -0.4612 -0.6429
  180MOL    C9536253   6.117   3.149   1.724  0.6276  0.4851 -0.5608
  180MOL    H9636254   6.027   3.418   1.795 -0.4712 -1.7588 -0.0080
  180MOL    H9736255   5.987   3.380   1.960  0.2500 -2.2491  0.3355
  180MOL    H9836256   6.012   3.132   1.920  1.1195  0.8234  0.6768
  180MOL    H9936257   5.926   3.208   1.785 -0.9648  0.2254  0.1523
  180MOL   H10036258   6.210   3.155   1.782  1.6907 -1.2431 -2.0298
  180MOL   H10136259   6.112   3.230   1.651  0.3686  0.5707 -0.4475
  180MOL   O10236260   6.082   3.010   1.676 -0.0263 -0.5958  0.5544
  180MOL   C10336261   6.175   2.936   1.605 -0.6313 -0.6045  0.4266
  180MOL   C10436262   6.089   2.829   1.536 -0.4798  0.7036 -0.6504
  180MOL   C10536263   5.979   2.756   1.623 -0.2067  0.0315 -0.0266
  180MOL   H10636264   6.253   2.880   1.657  1.6941  0.0798 -2.1726
  180MOL   H10736265   6.221   3.001   1.530  0.6511 -1.7198  0.2156
  180MOL   H10836266   6.043   2.871   1.447 -2.5348  1.8698  0.9407
  180MOL   H10936267   6.158   2.748   1.510 -0.6746  0.8213 -1.5499
  180MOL   H11036268   5.903   2.818   1.672  0.5371  2.3012 -1.6410
  180MOL   H11136269   6.035   2.708   1.703  1.8050  2.8308  0.3288
  180MOL   O11236270   5.909   2.663   1.540 -0.1186 -0.3300  0.2176
  180MOL   C11336271   5.822   2.584   1.619  0.3401  0.1000  0.1213
  180MOL   C11436272   5.722   2.514   1.524 -0.5343 -0.0702  0.3675
  180MOL   C11536273   5.625   2.418   1.594  0.2468  0.8930  0.2361
  180MOL   H11636274   5.764   2.646   1.688 -0.6837  1.6573 -2.0618
  180MOL   H11736275   5.881   2.511   1.673 -1.7426 -1.8116 -0.1214
  180MOL   H11836276   5.670   2.591   1.467 -2.4088 -1.0156  0.7628
  180MOL   H11936277   5.784   2.458   1.453  1.4618 -1.2578  2.9722
  180MOL   H12036278   5.559   2.479   1.656 -0.9842  1.5821 -1.6903
  180MOL   H12136279   5.676   2.341   1.652 -2.1408 -1.2293 -0.4148
  180MOL   O12236280   5.541   2.351   1.501  0.3393  0.5379  0.1256
  180MOL   C12336281   5.419   2.313   1.562  0.2002  0.4766 -0.4445
  180MOL   C12436282   5.320   2.275   1.454  0.0463  0.4517 -0.5241
  180MOL   C12536283   5.387   2.178   1.361  0.4956 -0.0723  0.3300
  180MOL   H12636284   5.373   2.397   1.615  2.9202  1.1068  0.9926
  180MOL   H12736285   5.428   2.239   1.642 -0.1011  0.3032 -0.5676
  180MOL   H12836286   5.241   2.224   1.509 -0.0729 -0.5979 -1.6305
  180MOL   H12936287   5.279   2.364   1.406 -0.3783 -0.6247 -2.2290
  180MOL   H13036288   5.451   2.106   1.413 -0.1176 -2.9090 -2.6535
  180MOL   H13136289   5.449   2.231   1.289 -1.5890 -0.2317 -1.6428
  180MOL   O13236290   5.282   2.108   1.293 -0.8688  0.0531 -0.2529
  180MOL   C13336291   5.344   2.007   1.218  0.3430 -0.4877  0.2754
  180MOL   C13436292   5.234   1.906   1.195 -0.6965 -0.0782  0.1650
  180MOL   C13536293   5.262   1.804   1.080 -0.3753 -0.6111 -0.4487
  180MOL   H13636294   5.430   1.952   1.255  0.9056 -0.4739 -0.9884
  180MOL   H13736295   5.379   2.051   1.124 -0.1287  2.6239  1.5071
  180MOL   H13836296   5.235   1.851   1.289  3.8751 -1.0978 -0.3508
  180MOL   H13936297   5.138   1.957   1.185  0.1289  1.5878  0.4484
  180MOL   H14036298   5.178   1.735   1.081 -1.0497  0.1939  0.3504
  180MOL   H14136299   5.350   1.740   1.093  0.2735 -0.0289 -1.9114
  180MOL   O14236300   5.267   1.873   0.950 -0.1930  0.4027 -0.6109
  180MOL   C14336301   5.283   1.798   0.824 -0.3474 -0.5775  0.0544
  180MOL   C14436302   5.301   1.888   0.704 -0.3400 -0.1486  0.3029
  180MOL   C14536303   5.294   1.816   0.569  0.6429  0.6010  0.3090
  180MOL   H14636304   5.203   1.726   0.807 -1.4094  0.5243  0.3801
  180MOL   H14736305   5.369   1.731   0.834  0.4963  0.2586 -1.4246
  180MOL   H14836306   5.232   1.972   0.705  0.6973  0.7553 -1.3973
  180MOL   H14936307   5.395   1.942   0.711 -1.3791  1.8874 -1.0791
  180MOL   H15036308   5.262   1.884   0.490  0.1332  0.7436  0.6319
  180MOL   H15136309   5.223   1.733   0.570 -1.5320  2.3408 -2.3606
  180MOL   O15236310   5.420   1.762   0.534 -0.1649  0.2954 -0.1166
  180MOL   C15336311   5.411   1.679   0.413 -0.6167  0.5691  0.3723
  180MOL   C15436312   5.552   1.636   0.377  0.4059  0.1502  0.0743
  180MOL   C15536313   5.558   1.536   0.254 -0.2778 -0.4274 -0.3330
  180MOL   H15636314   5.376   1.746   0.335  1.9249 -0.3436 -1.6379
  180MOL   H15736315   5.353   1.586   0.416  0.8234 -0.3660  0.0068
  180MOL   H15836316   5.615   1.724   0.380  1.5062 -0.4544 -3.5076
  180MOL   H15936317   5.581   1.582   0.468  0.6910 -0.1939 -0.2205
  180MOL   H16036318   5.501   1.584   0.175 -1.0912 -0.0619  0.4605
  180MOL   H16136319   5.507   1.440   0.263 -0.0174 -0.4586  0.9494
  180MOL   O16236320   5.695   1.533   0.205 -0.1635 -0.4474  0.7202
  180MOL   C16336321   5.777   1.470   0.306 -0.5021  1.0830 -0.3270
  180MOL   C16436322   5.922   1.501   0.276  0.0099  0.5761 -0.2407
  180MOL   C16536323   6.017   1.444   0.379 -1.3425  0.2191 -0.3546
  180MOL   H16636324   5.771   1.361   0.313  0.7333  0.9309 -1.4031
  180MOL   H16736325   5.775   1.518   0.404  1.2331  0.7849 -0.1170
  180MOL   H16836326   5.952   1.459   0.180 -1.7101 -0.2530 -0.4437
  180MOL   H16936327   5.926   1.609   0.267 -1.8306  0.7841  1.1842
  180MOL   H17036328   6.003   1.337   0.393 -0.8340  0.2765  0.6705
  180MOL   H17136329   6.014   1.490   0.478 -2.4266  0.0838 -0.3236
  180MOL   O17236330   6.145   1.481   0.334 -0.3618 -0.4026  0.3463
  180MOL   C17336331   6.250   1.435   0.421  0.1278 -0.4768  0.2871
  180MOL   C17436332   6.386   1.472   0.361 -0.2175 -0.2755 -0.3045
  180MOL   C17536333   6.499   1.414   0.443 -0.3777  0.3204 -0.6136
  180MOL   H17636334   6.245   1.327   0.435 -2.4848 -0.5448 -0.9483
  180MOL   H17736335   6.230   1.485   0.516 -0.6636  0.7346 -0.5081
  180MOL   H17836336   6.407   1.442   0.258  3.2204  2.7154 -0.5905
  180MOL   H17936337   6.382   1.581   0.364 -2.1475 -0.3341 -0.3024
  180MOL   H18036338   6.480   1.309   0.463  0.8544  0.7332  3.0269
  180MOL   H18136339   6.505   1.471   0.535 -2.0206  0.5924 -0.6592
  180MOL   O18236340   6.617   1.425   0.368  0.0371 -0.4634 -0.3138
  180MOL   C18336341   6.730   1.367   0.431  0.7781  0.3897 -0.0826
  180MOL   C18436342   6.850   1.368   0.340  0.7469  0.2134 -0.6054
  180MOL   C18536343   6.973   1.303   0.405  0.1850  0.2172  0.4502
  180MOL   H18636344   6.712   1.267   0.470  0.0328  0.0322 -1.2902
  180MOL   H18736345   6.748   1.425   0.521 -0.0985 -0.9491  0.9817
  180MOL   H18836346   6.836   1.330   0.238  1.6295 -0.6612 -0.4114
  180MOL   H18936347   6.864   1.473   0.313  1.6392 -0.0892 -1.3728
  180MOL   H19036348   6.956   1.197   0.422  1.5178  0.1098  1.1303
  180MOL   H19136349   6.987   1.342   0.506  1.5669  1.9652 -0.3833
  180MOL   O19236350   7.092   1.321   0.340 -0.3354 -0.6253 -0.1156
  180MOL   C19336351   7.090   1.236   0.228  0.5831  0.5820  0.0941
  180MOL   C19436352   7.225   1.262   0.154 -0.9129  0.1959  0.3584
  180MOL   C19536353   7.348   1.250   0.245  0.1057 -0.4916 -0.3154
  180MOL   H19636354   7.021   1.258   0.146  2.8346 -0.0726 -2.0378
  180MOL   H19736355   7.073   1.130   0.246  0.3403  0.8972  1.8224
  180MOL   H19836356   7.245   1.190   0.074  0.1890 -0.5460  1.2643
  180MOL   H19936357   7.230   1.363   0.114  0.8906  0.2607  0.7034
  180MOL   H20036358   7.439   1.263   0.187  0.4995  1.8706  0.7558
  180MOL   H20136359   7.351   1.150   0.288  0.4600  0.4209  1.8459
  180MOL   H20236360   7.343   1.328   0.322  0.1990 -2.7793  2.0921
  181MOL     O136361   1.328   3.540   1.120  0.6850  0.0410  0.0795
  181MOL     C236362   1.201   3.563   1.169  0.3090  0.3366  0.9381
  181MOL     C336363   1.097   3.592   1.054 -0.1337 -0.0445 -0.2122
  181MOL     C436364   0.966   3.636   1.113  0.0086 -0.5484  0.2827
  181MOL     H536365   1.213   3.641   1.244 -0.1257 -0.4884  1.8830
  181MOL     H636366   1.168   3.479   1.230  0.6848  1.4463  2.7194
  181MOL     H736367   1.139   3.659   0.980 -1.1849 -0.0533 -0.8187
  181MOL     H836368   1.081   3.500   0.997  2.1011 -0.5419 -0.1232
  181MOL     H936369   0.904   3.659   1.025 -0.4169  0.7196  0.8992
  181MOL    H1036370   0.979   3.725   1.174 -2.2031 -0.8535  1.2732
  181MOL    H1136371   1.391   3.572   1.183 -0.4157  1.6723  0.3893
  181MOL    O1236372   0.910   3.539   1.190  0.0083 -0.3359 -0.7204
  181MOL    C1336373   0.776   3.574   1.249  0.4403 -0.8438  0.2028
  181MOL    C1436374   0.737   3.454   1.331  0.8819 -0.2691  0.6737
  181MOL    C1536375   0.615   3.486   1.423 -0.0774  0.0803  0.0465
  181MOL    H1636376   0.704   3.589   1.169  1.3057 -1.8729 -0.7917
  181MOL    H1736377   0.782   3.667   1.305 -1.6952 -0.6493  0.1470
  181MOL    H1836378   0.721   3.373   1.259 -0.0234  2.0120 -1.7714
  181MOL    H1936379   0.829   3.426   1.381  1.0381 -0.6365  0.1862
  181MOL    H2036380   0.526   3.531   1.380 -0.6424 -1.0221  0.0416
  181MOL    H2136381   0.647   3.563   1.494  3.5701 -1.0898 -0.2500
  181MOL    O2236382   0.584   3.368   1.492 -0.0141 -0.0601 -0.4013
  181MOL    C2336383   0.476   3.376   1.585  0.0651 -0.6431 -0.1419
  181MOL    C2436384   0.455   3.237   1.645  0.1629  0.3184 -0.0186
  181MOL    C2536385   0.359   3.214   1.761  0.2821 -0.0421  0.3846
  181MOL    H2636386   0.386   3.408   1.533 -0.8014 -1.4486  0.8202
  181MOL    H2736387   0.503   3.451   1.660 -0.7500 -1.5669  1.0974
  181MOL    H2836388   0.434   3.159   1.572 -1.9677  0.8949 -0.0310
  181MOL    H2936389   0.557   3.204   1.667 -0.3309 -0.2120  1.5627
  181MOL    H3036390   0.270   3.273   1.740  0.9366  0.6542 -0.5088
  181MOL    H3136391   0.412   3.250   1.849  1.6423  2.5746 -1.4378
  181MOL    O3236392   0.338   3.081   1.781 -0.6856  0.0132 -0.1655
  181MOL    C3336393   0.241   3.042   1.875 -0.1657 -0.1128 -0.6123
  181MOL    C3436394   0.225   2.890   1.889  0.4671  0.3706 -0.2748
  181MOL    C3536395   0.107   2.837   1.981  0.5349 -0.1598 -0.1874
  181MOL    H3636396   0.150   3.097   1.850  1.2747  2.0651 -1.1873
  181MOL    H3736397   0.270   3.078   1.974 -1.6506 -1.3203  0.2957
  181MOL    H3836398   0.198   2.841   1.795 -0.5148 -1.5942  0.9932
  181MOL    H3936399   0.318   2.844   1.922 -0.0960  0.7637  1.9671
  181MOL    H4036400   0.095   2.729   1.973 -1.1570 -0.1881  2.2200
  181MOL    H4136401   0.011   2.882   1.953  0.8161 -0.1103 -1.1000
  181MOL    O4236402   0.136   2.875   2.107 -0.0883  0.0993  0.1099
  181MOL    C4336403   0.031   2.846   2.199  0.0522 -0.3170 -0.5330
  181MOL    C4436404   0.070   2.863   2.344 -0.3533 -0.6415  0.2012
  181MOL    C4536405   0.125   3.000   2.391  0.0766  0.2085  0.4693
  181MOL    H4636406   7.787   2.743   2.182 -0.5179 -0.1272 -0.6057
  181MOL    H4736407   7.736   2.903   2.158  1.1107  0.8616 -1.0732
  181MOL    H4836408   7.769   2.846   2.404  1.4996  0.2516  3.2881
  181MOL    H4936409   0.137   2.780   2.369  3.2624  1.9949 -0.3829
  181MOL    H5036410   0.078   3.086   2.342  1.9332  1.4060  0.7218
  181MOL    H5136411   0.234   2.999   2.383 -0.0528 -0.7838 -1.5038
  181MOL    O5236412   0.120   3.005   2.533 -0.3746 -0.0918  0.2522
  181MOL    C5336413   0.017   3.086   2.578 -0.5041 -0.5371 -0.1515
  181MOL    C5436414   0.060   3.240   2.568  0.3062  0.3000 -0.5704
  181MOL    C5536415   7.730   3.321   2.609 -0.4244  0.3773  0.7689
  181MOL    H5636416   0.003   3.061   2.683 -0.5702  1.8728  0.4478
  181MOL    H5736417   7.716   3.070   2.518 -0.1680  1.7269 -1.2842
  181MOL    H5836418   0.141   3.257   2.639  0.5151  0.0115 -0.7347
  181MOL    H5936419   0.098   3.264   2.468  0.6299  2.3856  0.0427
  181MOL    H6036420   7.674   3.272   2.689 -1.6635  0.7511  0.1278
  181MOL    H6136421   7.665   3.322   2.522  1.4679  1.0955 -0.6769
  181MOL    O6236422   7.768   3.448   2.655 -0.1380 -0.3483 -0.4206
  181MOL    C6336423   0.031   3.457   2.791  0.6305 -0.1021  0.8252
  181MOL    C6436424   7.773   3.592   2.851 -0.3468  0.3905 -0.6240
  181MOL    C6536425   0.037   3.712   2.767  1.0102  0.1070 -0.9067
  181MOL    H6636426   0.139   3.471   2.788  0.5613  0.0731 -1.1018
  181MOL    H6736427   7.775   3.376   2.850  0.9021 -0.8536  0.0095
  181MOL    H6836428   7.665   3.594   2.855 -0.3203  1.8778 -0.4888
  181MOL    H6936429   0.027   3.603   2.951  2.4862  2.0082 -1.9161
  181MOL    H7036430   0.002   3.705   2.664  1.3294 -3.5169 -0.8073
  181MOL    H7136431   0.146   3.715   2.771  1.0044 -0.2432 -0.3467
  181MOL    O7236432   7.777   3.842   2.815 -0.4296 -0.4078  0.1750
  181MOL    C7336433   0.027   3.871   2.952 -0.1673  0.5682  0.7031
  181MOL    C7436434   7.787   4.014   2.987  0.0090 -0.4877 -0.3053
  181MOL    C7536435   7.637   4.030   3.010  0.0172  0.8594  0.2309
  181MOL    H7636436   0.131   3.841   2.956 -0.6308 -1.2749  0.0450
  181MOL    H7736437   7.758   3.812   3.024 -0.2091  0.9418  0.9756
  181MOL    H7836438   0.058   4.047   3.072 -0.2044 -0.1640 -0.2795
  181MOL    H7936439   0.027   4.076   2.903  0.9068  0.5476  0.7469
  181MOL    H8036440   7.595   3.976   3.095  0.1485  0.4856  0.0616
  181MOL    H8136441   7.593   4.009   2.912  0.7548  2.0492 -0.3708
  181MOL    O8236442   7.625   4.168   3.018 -0.1318 -0.7037 -0.0163
  181MOL    C8336443   7.545   4.220   3.126  0.2482  0.5261 -0.7256
  181MOL    C8436444   7.617   4.216   3.253 -0.7278  0.2008 -0.1398
  181MOL    C8536445   7.533   4.243   3.376 -0.2354 -0.1548  0.8851
  181MOL    H8636446   7.454   4.162   3.141  1.3159 -0.8539  0.5633
  181MOL    H8736447   7.511   4.319   3.096  1.4566  0.8118 -1.1972
  181MOL    H8836448   7.673   4.123   3.257 -2.5535 -0.8998  0.4421
  181MOL    H8936449   7.702   4.285   3.251 -0.6913  0.1941  0.8710
  181MOL    H9036450   7.462   4.163   3.397 -2.5114  1.4781 -0.3663
  181MOL    H9136451   7.466   4.328   3.360 -0.6920 -0.4842  1.0126
  181MOL    O9236452   7.630   4.261   3.468 -0.4884  0.4617 -0.1758
  181MOL    C9336453   7.589   4.276   3.605  0.2488 -0.4603 -0.3038
  181MOL    C9436454   7.703   4.286   3.712 -0.1497 -0.1464 -0.3372
  181MOL    C9536455   7.620   4.324   3.833 -0.7385 -0.5388 -0.2611
  181MOL    H9636456   7.520   4.197   3.636  1.6179 -2.2089 -1.5779
  181MOL    H9736457   7.524   4.363   3.611  1.4697  0.3459  1.4118
  181MOL    H9836458   7.732   4.181   3.718  2.5891  0.6486  0.7409
  181MOL    H9936459   7.779   4.358   3.681 -0.5300  1.1875  1.7272
  181MOL   H10036460   7.543   4.249   3.850 -2.3930  0.7492 -1.9644
  181MOL   H10136461   7.562   4.413   3.811  0.6327  0.3841 -0.1678
  181MOL   O10236462   7.714   4.327   3.946 -0.6271 -0.6329  0.2417
  181MOL   C10336463   7.645   4.353   4.070  0.3390  0.0111 -0.0296
  181MOL   C10436464   7.744   4.352   4.189 -0.0581 -0.0325  0.4788
  181MOL   C10536465   7.684   4.359   4.326 -0.9344 -0.7361 -0.0587
  181MOL   H10636466   7.565   4.280   4.077  0.0519  0.0912 -2.1629
  181MOL   H10736467   7.593   4.449   4.066 -0.5113 -0.3999  0.8807
  181MOL   H10836468   0.011   4.260   4.166  1.0026  1.2329 -2.3366
  181MOL   H10936469   0.019   4.437   4.163 -0.5280  0.4110  0.7931
  181MOL   H11036470   7.626   4.270   4.354 -1.4434 -0.0457  1.1134
  181MOL   H11136471   7.613   4.442   4.326 -0.2833 -0.1787  0.1228
  181MOL   O11236472   7.784   4.384   4.428 -0.0552  0.3758 -0.4000
  181MOL   C11336473   7.727   4.385   4.563  0.0507 -0.7192 -0.3115
  181MOL   C11436474   7.634   4.498   4.591  0.6246 -0.3588  0.6257
  181MOL   C11536475   7.605   4.513   4.744  0.4944 -0.0643 -0.5571
  181MOL   H11636476   0.018   4.376   4.637 -0.6028 -0.4751  0.4201
  181MOL   H11736477   7.670   4.294   4.579  1.6513 -1.7227 -0.1950
  181MOL   H11836478   7.666   4.597   4.558  0.4956  0.2957  2.4171
  181MOL   H11936479   7.534   4.482   4.549  1.5596 -1.0245 -1.4122
  181MOL   H12036480   7.699   4.528   4.796 -0.9128  1.1870  1.7450
  181MOL   H12136481   7.539   4.431   4.771  1.7558 -0.7061  0.6161
  181MOL   O12236482   7.519   4.623   4.779 -0.5236  0.0092  0.2462
  181MOL   C12336483   7.533   4.652   4.921  0.0939 -0.3019 -0.4373
  181MOL   C12436484   7.428   4.565   5.000 -0.6045 -0.2631 -0.9144
  181MOL   C12536485   7.416   4.597   5.148  0.5825 -0.1152 -0.4078
  181MOL   H12636486   7.514   4.757   4.946  0.0935  0.0461 -1.8863
  181MOL   H12736487   7.635   4.635   4.953 -0.5120 -2.3404  0.4710
  181MOL   H12836488   7.333   4.586   4.951 -1.8054  1.6672  2.1145
  181MOL   H12936489   7.462   4.463   4.983  1.9518  0.6409 -1.4905
  181MOL   H13036490   7.516   4.611   5.190  1.2178 -0.6418 -1.6837
  181MOL   H13136491   7.372   4.517   5.208  0.7481  0.6863  0.7958
  181MOL   O13236492   7.326   4.700   5.176  0.4733  0.5520 -0.2636
  181MOL   C13336493   7.290   4.714   5.316 -0.5175 -0.9705  1.5091
  181MOL   C13436494   7.204   4.847   5.308  0.3030 -0.1722 -0.4370
  181MOL   C13536495   7.265   4.971   5.250  0.0791  0.5674  0.1095
  181MOL   H13636496   7.363   4.727   5.395  1.3209 -2.7859  0.1597
  181MOL   H13736497   7.222   4.634   5.345 -1.7967  0.1337  1.6045
  181MOL   H13836498   7.116   4.823   5.248  0.1649  0.0217 -0.3104
  181MOL   H13936499   7.170   4.875   5.408  0.2142 -4.0292  0.6897
  181MOL   H14036500   7.296   4.955   5.146 -1.0894 -0.6605 -0.0652
  181MOL   H14136501   7.358   4.992   5.303  2.0937 -0.1859 -3.0067
  181MOL   O14236502   7.174   5.086   5.244  0.6241  0.0132  0.2824
  181MOL   C14336503   7.239   5.208   5.213  0.3903 -0.1404  0.5570
  181MOL   C14436504   7.312   5.269   5.333 -0.3435 -0.3904 -0.3816
  181MOL   C14536505   7.336   5.420   5.334  0.7839 -0.1319 -0.4406
  181MOL   H14636506   7.166   5.283   5.185 -0.6420 -1.4258 -0.2547
  181MOL   H14736507   7.302   5.208   5.124  1.7267  0.0069  1.4950
  181MOL   H14836508   7.251   5.254   5.422  1.7090 -0.3276  1.0776
  181MOL   H14936509   7.405   5.216   5.355  0.9529  1.3528 -1.4920
  181MOL   H15036510   7.355   5.454   5.436 -0.6280  0.4292 -0.3454
  181MOL   H15136511   7.242   5.468   5.304  1.0552  1.2141  0.8290
  181MOL   O15236512   7.437   5.450   5.239  0.2473 -0.1435 -0.0460
  181MOL   C15336513   7.449   5.593   5.216  0.0671 -0.6243  0.4138
  181MOL   C15436514   7.495   5.608   5.072 -0.0159 -0.4250  0.9954
  181MOL   C15536515   7.399   5.537   4.971  0.2244  0.4627  0.2942
  181MOL   H15636516   7.509   5.648   5.288  0.0649  1.9918 -1.5434
  181MOL   H15736517   7.351   5.639   5.233 -0.6128 -1.8122 -0.2064
  181MOL   H15836518   7.511   5.713   5.044  0.1911 -0.5229  0.7464
  181MOL   H15936519   7.590   5.556   5.066  0.1669  0.1928 -3.1988
  181MOL   H16036520   7.295   5.564   4.986  0.0599  1.4641 -2.3549
  181MOL   H16136521   7.404   5.428   4.981  0.4341  0.5335  0.9564
  181MOL   O16236522   7.458   5.558   4.842 -0.4213  0.6138 -0.0399
  181MOL   C16336523   7.414   5.485   4.733 -0.8888 -0.2982 -0.3136
  181MOL   C16436524   7.531   5.442   4.649  0.2201  0.1562  0.6125
  181MOL   C16536525   7.511   5.333   4.543 -0.0576 -0.2255  0.2572
  181MOL   H16636526   7.344   5.551   4.682 -0.1793 -1.3327 -2.7051
  181MOL   H16736527   7.354   5.399   4.764 -1.9576  1.0394  1.4279
  181MOL   H16836528   7.592   5.524   4.612 -1.0373 -0.1734 -2.3084
  181MOL   H16936529   7.603   5.399   4.719  1.6001  1.4620  0.0118
  181MOL   H17036530   7.418   5.338   4.486 -1.2079 -0.9994  2.0048
  181MOL   H17136531   7.502   5.235   4.591 -3.3835  0.0709  0.3927
  181MOL   O17236532   7.626   5.342   4.460 -0.3656  0.1712  0.5429
  181MOL   C17336533   7.595   5.387   4.331 -0.5428 -1.1704  0.0079
  181MOL   C17436534   7.704   5.342   4.233  0.4031  0.5560 -0.4293
  181MOL   C17536535   0.051   5.391   4.282  0.5284  0.1016  0.2302
  181MOL   H17636536   7.582   5.494   4.319 -0.1179 -0.9534  1.3760
  181MOL   H17736537   7.500   5.346   4.298 -1.0100 -1.0460  1.1810
  181MOL   H17836538   7.708   5.233   4.228 -0.3230  0.3834  2.0924
  181MOL   H17936539   7.690   5.377   4.131  0.3253  0.0404 -0.5936
  181MOL   H18036540   0.085   5.326   4.362  2.6618  1.4669  0.4687
  181MOL   H18136541   0.036   5.495   4.313 -0.5503 -0.2018  0.7799
  181MOL   O18236542   0.140   5.378   4.177  0.0479 -0.3928 -0.1317
  181MOL   C18336543   0.272   5.420   4.217 -0.5812 -0.3350 -0.4979
  181MOL   C18436544   0.368   5.433   4.093  1.2081  0.7544 -0.2891
  181MOL   C18536545   0.502   5.513   4.131 -0.1156 -0.0806 -0.1731
  181MOL   H18636546   0.304   5.355   4.298  0.0913 -0.0871 -0.5605
  181MOL   H18736547   0.278   5.514   4.272  2.3037  0.2392 -1.7253
  181MOL   H18836548   0.394   5.339   4.045  4.7874  2.4829 -1.9292
  181MOL   H18936549   0.313   5.491   4.019 -0.9570 -1.1181 -0.1727
  181MOL   H19036550   0.560   5.448   4.197  0.6198 -0.9806 -1.6759
  181MOL   H19136551   0.484   5.612   4.174  1.0562  0.0833 -0.0344
  181MOL   O19236552   0.582   5.558   4.023  0.4921 -0.9439  0.1556
  181MOL   C19336553   0.681   5.466   3.989 -0.8539 -0.1496  1.0558
  181MOL   C19436554   0.749   5.539   3.876  0.0960  0.4488 -0.6677
  181MOL   C19536555   0.825   5.667   3.914  0.2451  0.0427 -0.2738
  181MOL   H19636556   0.655   5.367   3.950 -1.0131 -0.1641  1.2008
  181MOL   H19736557   0.747   5.455   4.075  0.3373 -0.7397  0.0954
  181MOL   H19836558   0.820   5.466   3.836 -0.3911  0.0479 -0.7956
  181MOL   H19936559   0.680   5.548   3.793  0.1314  2.8794 -0.4870
  181MOL   H20036560   0.890   5.653   4.000  0.0059  2.4859  0.3397
  181MOL   H20136561   0.759   5.751   3.937  1.5321  0.7773  0.7314
  181MOL   H20236562   0.885   5.679   3.824 -1.2167  1.4101 -1.0799
  182MOL     O136563   5.070   6.223   1.899  0.2963 -0.2771 -0.2465
  182MOL     C236564   5.036   6.095   1.959  0.1641 -0.0962 -0.3843
  182MOL     C336565   4.916   6.101   2.060  0.4641  0.2668 -0.5834
  182MOL     C436566   4.903   5.953   2.095 -0.5875 -1.2609  0.1852
  182MOL     H536567   5.122   6.055   2.013  0.2256 -1.4663 -1.4631
  182MOL     H636568   5.016   6.022   1.881  3.2231 -2.0987  0.6302
  182MOL     H736569   4.951   6.162   2.143 -1.4097 -0.0763  0.4807
  182MOL     H836570   4.826   6.135   2.010 -1.3677 -2.0116  1.0797
  182MOL     H936571   4.987   5.917   2.155 -0.6994 -0.7458  0.6540
  182MOL    H1036572   4.899   5.892   2.005  2.1020 -1.3830  0.0919
  182MOL    H1136573   5.105   6.276   1.969  0.0213  0.3594 -0.5874
  182MOL    O1236574   4.792   5.937   2.178  0.0818 -0.4147  0.5258
  182MOL    C1336575   4.749   5.801   2.186  0.3478 -0.2429  0.9799
  182MOL    C1436576   4.657   5.772   2.303  0.4320  0.9530 -0.5012
  182MOL    C1536577   4.631   5.620   2.313 -0.0771 -0.9550  0.1202
  182MOL    H1636578   4.834   5.733   2.189 -0.8416 -2.1474 -4.0834
  182MOL    H1736579   4.703   5.777   2.090  1.6598  0.8533  0.0575
  182MOL    H1836580   4.690   5.811   2.400 -0.2982 -2.0439  1.0263
  182MOL    H1936581   4.566   5.826   2.278 -1.2985 -1.1356  1.0482
  182MOL    H2036582   4.720   5.566   2.347 -0.2237 -1.4538 -0.2713
  182MOL    H2136583   4.597   5.578   2.218 -1.6575  0.0581  0.2339
  182MOL    O2236584   4.533   5.593   2.414 -0.3003  0.2473  0.6891
  182MOL    C2336585   4.515   5.453   2.419  0.2134  0.3777 -0.8818
  182MOL    C2436586   4.430   5.399   2.533 -0.2043  0.1296  0.4770
  182MOL    C2536587   4.396   5.254   2.526  0.4360  0.0295  0.0861
  182MOL    H2636588   4.608   5.397   2.425  0.0343  0.1344 -0.3112
  182MOL    H2736589   4.462   5.430   2.326 -0.2625 -2.8210  0.1038
  182MOL    H2836590   4.477   5.428   2.628 -0.0454  2.7518 -0.3469
  182MOL    H2936591   4.334   5.449   2.522  0.0047 -0.0703 -2.7508
  182MOL    H3036592   4.487   5.196   2.510 -0.5030 -1.0317 -1.6717
  182MOL    H3136593   4.338   5.234   2.436  0.8773 -3.1114  0.4353
  182MOL    O3236594   4.319   5.219   2.641 -0.5330  0.4165 -0.1686
  182MOL    C3336595   4.249   5.094   2.636  0.0832  0.1937  0.0982
  182MOL    C3436596   4.353   4.984   2.656  0.2908 -0.2448  0.0358
  182MOL    C3536597   4.288   4.841   2.665  0.7426  0.5715  0.0799
  182MOL    H3636598   4.195   5.073   2.544 -1.7937 -0.2348  1.2683
  182MOL    H3736599   4.172   5.084   2.713 -0.9316  1.0113 -0.8088
  182MOL    H3836600   4.433   4.985   2.583  1.3446 -2.6315  1.0851
  182MOL    H3936601   4.390   5.002   2.757 -1.8396  1.4955  0.5489
  182MOL    H4036602   4.368   4.768   2.676 -0.6840 -1.2507 -1.3254
  182MOL    H4136603   4.246   4.810   2.569  0.1171 -1.5748  1.0107
  182MOL    O4236604   4.209   4.827   2.777  0.2258  0.0996  0.5854
  182MOL    C4336605   4.148   4.700   2.796  0.1884 -0.3405  0.4571
  182MOL    C4436606   4.049   4.671   2.683 -0.1261 -0.8958 -0.0250
  182MOL    C4536607   3.954   4.556   2.715  0.1353  0.3423  0.4094
  182MOL    H4636608   4.090   4.721   2.886  1.3418  0.6999  0.9783
  182MOL    H4736609   4.215   4.614   2.808 -2.3156 -2.3383  0.4523
  182MOL    H4836610   3.982   4.752   2.656  0.0550 -0.9419 -0.6155
  182MOL    H4936611   4.094   4.648   2.587  0.0958 -0.1617 -0.0991
  182MOL    H5036612   3.881   4.576   2.793 -3.3818 -3.1766 -1.7674
  182MOL    H5136613   4.010   4.471   2.755 -1.0078 -1.9080 -2.5998
  182MOL    O5236614   3.888   4.500   2.598  0.4262 -0.3809 -0.2369
  182MOL    C5336615   3.797   4.392   2.629 -0.6387 -0.5077  0.3770
  182MOL    C5436616   3.753   4.331   2.496 -0.4385 -0.2635 -0.0003
  182MOL    C5536617   3.669   4.434   2.413  0.2803 -0.3629  0.0197
  182MOL    H5636618   3.721   4.436   2.694  0.0006  0.9794  0.1563
  182MOL    H5736619   3.859   4.319   2.681  0.6125  1.2841  1.4828
  182MOL    H5836620   3.842   4.301   2.441 -1.2305  1.0547 -2.0712
  182MOL    H5936621   3.702   4.236   2.503 -1.4797  0.4413  2.3472
  182MOL    H6036622   3.640   4.390   2.317  0.0556 -0.8161  0.2904
  182MOL    H6136623   3.718   4.529   2.392 -1.0207  0.0096 -1.4257
  182MOL    O6236624   3.547   4.460   2.489  0.5245  0.3715 -0.2714
  182MOL    C6336625   3.451   4.539   2.413  0.0297 -0.9419  1.0298
  182MOL    C6436626   3.337   4.579   2.491 -0.0961  0.2415 -0.2456
  182MOL    C6536627   3.269   4.456   2.550  0.1605  0.1387 -0.1222
  182MOL    H6636628   3.408   4.487   2.328 -1.4177  2.3530 -0.3179
  182MOL    H6736629   3.511   4.621   2.375 -0.8564 -0.2733  1.0593
  182MOL    H6836630   3.375   4.637   2.575 -0.8693  2.0217 -1.0844
  182MOL    H6936631   3.266   4.644   2.439 -0.7054 -2.2645 -2.6748
  182MOL    H7036632   3.339   4.383   2.590 -0.0117 -0.7874 -1.4543
  182MOL    H7136633   3.193   4.410   2.487 -1.0392  0.4395  1.0800
  182MOL    O7236634   3.201   4.490   2.667  0.2322 -0.5224  0.0458
  182MOL    C7336635   3.106   4.397   2.714  0.2117  0.0879  0.6187
  182MOL    C7436636   3.027   4.456   2.827 -0.2641 -0.2163 -0.7183
  182MOL    C7536637   2.951   4.346   2.913  0.4865 -0.2697  0.2344
  182MOL    H7636638   3.149   4.303   2.748 -0.0081  0.6960  2.6439
  182MOL    H7736639   3.043   4.365   2.631  1.3652 -0.5111 -0.0318
  182MOL    H7836640   3.083   4.524   2.890  1.5067 -1.9665 -0.3519
  182MOL    H7936641   2.955   4.524   2.781  0.4086  0.1107 -1.2829
  182MOL    H8036642   2.897   4.286   2.839 -1.2948  0.2693  1.0811
  182MOL    H8136643   2.878   4.394   2.978 -0.0562  0.4685 -0.8998
  182MOL    O8236644   3.047   4.269   2.987  0.2471  0.6453 -0.2347
  182MOL    C8336645   2.990   4.204   3.091  0.3043  0.0271 -0.1066
  182MOL    C8436646   2.964   4.279   3.220  0.1083 -0.3866 -0.6808
  182MOL    C8536647   2.944   4.193   3.345 -0.8189 -0.1983  0.6466
  182MOL    H8636648   3.059   4.120   3.100 -2.4796 -2.2913  0.2171
  182MOL    H8736649   2.896   4.155   3.065  0.4273  0.1911 -0.8815
  182MOL    H8836650   3.046   4.344   3.248  0.7951 -1.8948  0.8466
  182MOL    H8936651   2.889   4.357   3.206  0.5656  0.0934 -0.4481
  182MOL    H9036652   3.034   4.137   3.367 -1.2934 -0.9684  0.6677
  182MOL    H9136653   2.864   4.124   3.316 -1.6568  0.9973  0.0383
  182MOL    O9236654   2.899   4.277   3.456  0.0825 -0.5254 -0.7748
  182MOL    C9336655   2.876   4.205   3.574  0.6696  0.0714  0.2562
  182MOL    C9436656   2.789   4.279   3.671 -0.2960 -0.4308  0.8506
  182MOL    C9536657   2.739   4.188   3.793  0.0561 -0.0777 -0.1772
  182MOL    H9636658   2.968   4.169   3.620  1.2476  0.5462 -0.5163
  182MOL    H9736659   2.823   4.111   3.558 -0.3795  0.8218 -0.7361
  182MOL    H9836660   2.846   4.366   3.704 -1.0465  1.1657 -1.8718
  182MOL    H9936661   2.702   4.307   3.610 -0.4440 -0.7705  0.9061
  182MOL   H10036662   2.696   4.259   3.863 -0.5432  1.8806 -2.4403
  182MOL   H10136663   2.816   4.126   3.839  1.0700  1.3710  0.0981
  182MOL   O10236664   2.638   4.102   3.748 -0.3216  0.0686  0.3998
  182MOL   C10336665   2.600   4.001   3.830 -0.1583  0.4153 -0.5788
  182MOL   C10436666   2.488   3.926   3.763  1.3402  0.0035 -0.4576
  182MOL   C10536667   2.434   3.807   3.854 -0.4923  0.1811  0.2041
  182MOL   H10636668   2.579   4.044   3.928  1.2093 -0.7526  0.2483
  182MOL   H10736669   2.684   3.934   3.847  1.1044  2.0729 -0.1369
  182MOL   H10836670   2.406   3.995   3.746  1.3054  0.4483  1.4014
  182MOL   H10936671   2.533   3.889   3.671 -1.3564  0.1316 -1.8622
  182MOL   H11036672   2.393   3.846   3.947 -0.7205  0.4365 -0.0052
  182MOL   H11136673   2.512   3.741   3.892 -1.4891 -1.1631 -0.0579
  182MOL   O11236674   2.330   3.736   3.790  0.3507  0.4546  0.1560
  182MOL   C11336675   2.377   3.638   3.696  0.7819 -0.3137 -0.6286
  182MOL   C11436676   2.350   3.692   3.552  0.3531 -0.5081 -0.3090
  182MOL   C11536677   2.388   3.586   3.455 -0.1383 -0.0495 -0.3481
  182MOL   H11636678   2.316   3.551   3.719  0.4039  0.2873  0.6890
  182MOL   H11736679   2.483   3.619   3.718  0.2331 -0.5387  1.9772
  182MOL   H11836680   2.241   3.695   3.545  0.1976  1.8336  2.2787
  182MOL   H11936681   2.398   3.788   3.535 -0.3327  0.0272  0.6743
  182MOL   H12036682   2.368   3.620   3.353 -1.7767 -3.0101 -1.0828
  182MOL   H12136683   2.316   3.505   3.468 -0.4494  0.5963  2.1239
  182MOL   O12236684   2.524   3.552   3.472  0.0081 -0.1740  0.1025
  182MOL   C12336685   2.554   3.433   3.400  0.6376  0.0673 -0.0085
  182MOL   C12436686   2.704   3.435   3.405 -0.7014 -0.3674  0.0206
  182MOL   C12536687   2.757   3.408   3.537  0.0954  0.5553 -1.0326
  182MOL   H12636688   2.523   3.436   3.296  2.4145  2.6040 -0.5128
  182MOL   H12736689   2.519   3.344   3.453  0.3936  0.0007 -0.2806
  182MOL   H12836690   2.746   3.363   3.334 -0.6376 -1.3644  1.0487
  182MOL   H12936691   2.748   3.530   3.375 -1.9153  0.9007  2.2031
  182MOL   H13036692   2.717   3.316   3.580  1.0263  0.2960 -0.7166
  182MOL   H13136693   2.722   3.483   3.607 -2.7584 -1.1475 -0.5393
  182MOL   O13236694   2.901   3.407   3.527 -0.1594  0.2904 -0.1239
  182MOL   C13336695   2.969   3.440   3.650 -0.9975 -0.4019  0.3592
  182MOL   C13436696   3.117   3.430   3.603  0.3256  0.2261 -0.9802
  182MOL   C13536697   3.220   3.483   3.696 -0.0785 -1.1475 -0.0461
  182MOL   H13636698   2.935   3.363   3.719 -1.9105 -1.5305 -1.3065
  182MOL   H13736699   2.945   3.536   3.694  0.2198  0.2406 -0.3420
  182MOL   H13836700   3.137   3.326   3.578 -0.1450  0.0009 -0.4252
  182MOL   H13936701   3.123   3.484   3.508 -0.4794  1.6690 -0.2252
  182MOL   H14036702   3.211   3.439   3.796 -0.9567 -0.9209 -0.0253
  182MOL   H14136703   3.219   3.592   3.691 -1.1039 -1.1581 -0.2729
  182MOL   O14236704   3.351   3.445   3.654 -0.3414 -0.3171 -0.9383
  182MOL   C14336705   3.391   3.313   3.664  0.3214  0.1211  0.7318
  182MOL   C14436706   3.456   3.285   3.804  0.3602 -0.2133 -0.3005
  182MOL   C14536707   3.506   3.138   3.820 -0.5755  0.1461  0.6862
  182MOL   H14636708   3.476   3.307   3.596 -0.2885  0.4198 -0.0526
  182MOL   H14736709   3.311   3.243   3.641  0.7499  0.1929 -0.9931
  182MOL   H14836710   3.541   3.353   3.812  0.0169  0.1820 -0.0002
  182MOL   H14936711   3.382   3.304   3.882  2.9847  1.2755  1.8830
  182MOL   H15036712   3.551   3.116   3.724 -1.1738  0.0307  0.4324
  182MOL   H15136713   3.423   3.069   3.830  0.0008 -0.6959 -0.2638
  182MOL   O15236714   3.608   3.113   3.915  0.2154  0.0445 -0.2900
  182MOL   C15336715   3.672   2.989   3.891 -0.0150 -0.3543 -0.5000
  182MOL   C15436716   3.788   3.002   3.992 -0.4211 -0.1961  0.3662
  182MOL   C15536717   3.742   3.023   4.136  0.3185  0.4354 -0.2120
  182MOL   H15636718   3.708   2.985   3.788  0.1853  0.7958 -0.4811
  182MOL   H15736719   3.620   2.897   3.916  1.0361 -0.9180 -0.3354
  182MOL   H15836720   3.850   2.913   3.986  1.0106  0.7337  1.0130
  182MOL   H15936721   3.859   3.081   3.966  0.2014 -0.0858  2.3478
  182MOL   H16036722   3.652   2.964   4.154  1.2351 -0.3949  1.7953
  182MOL   H16136723   3.706   3.125   4.147  0.1553  0.3540  0.0262
  182MOL   O16236724   3.853   2.993   4.220  0.0409 -0.8514  0.3502
  182MOL   C16336725   3.832   3.059   4.341 -0.2911  0.0846 -0.3871
  182MOL   C16436726   3.948   3.018   4.442 -0.1902 -0.6081 -0.4133
  182MOL   C16536727   3.913   3.060   4.590  0.0694  0.0721 -0.4548
  182MOL   H16636728   3.733   3.039   4.382 -0.7329  0.6615 -1.1688
  182MOL   H16736729   3.827   3.168   4.331  0.7703  0.2873  1.0428
  182MOL   H16836730   3.967   2.912   4.433  1.2188 -0.4632  0.7063
  182MOL   H16936731   4.045   3.061   4.417  1.1584 -3.9621 -1.1573
  182MOL   H17036732   3.818   3.039   4.639  0.6068 -1.0546  0.1394
  182MOL   H17136733   3.911   3.169   4.588  1.7431  0.0958 -3.3266
  182MOL   O17236734   4.025   3.007   4.666  0.2055 -0.2010  0.2644
  182MOL   C17336735   4.047   3.095   4.773 -0.2380 -0.4365  0.3691
  182MOL   C17436736   4.161   3.041   4.853 -0.3011 -0.4449  0.0126
  182MOL   C17536737   4.246   3.166   4.910  0.4535 -0.6586  0.0269
  182MOL   H17636738   3.951   3.099   4.824  0.0595 -0.7745  0.9538
  182MOL   H17736739   4.068   3.198   4.742  0.2543 -0.7072 -0.1958
  182MOL   H17836740   4.119   2.982   4.934  0.5935 -0.9364  0.1140
  182MOL   H17936741   4.228   2.977   4.796 -0.8878 -0.4447 -0.6987
  182MOL   H18036742   4.188   3.240   4.964  1.1767  0.4489 -0.6977
  182MOL   H18136743   4.298   3.217   4.829  0.7183  0.7832  1.0976
  182MOL   O18236744   4.342   3.107   5.000 -0.0067 -0.3089  0.7500
  182MOL   C18336745   4.408   3.207   5.074  0.5359  0.3586  0.9173
  182MOL   C18436746   4.516   3.130   5.149  0.0355 -0.4297  0.0045
  182MOL   C18536747   4.625   3.222   5.202 -0.6175  0.2924 -1.3204
  182MOL   H18636748   4.336   3.255   5.140 -0.0228  0.7021  0.0755
  182MOL   H18736749   4.444   3.289   5.011 -2.6727  0.9849 -0.2081
  182MOL   H18836750   4.466   3.089   5.237 -1.8852 -0.5920 -1.1527
  182MOL   H18936751   4.553   3.046   5.091  1.0632  0.6268 -0.9102
  182MOL   H19036752   4.586   3.289   5.279 -1.1686 -2.9452  1.3383
  182MOL   H19136753   4.666   3.282   5.121 -0.2490 -0.0744 -1.4063
  182MOL   O19236754   4.727   3.130   5.250 -0.4773  0.1132 -0.1615
  182MOL   C19336755   4.856   3.181   5.251 -0.3811  0.1475  0.0334
  182MOL   C19436756   4.957   3.070   5.293  0.1816  0.8314  0.1733
  182MOL   C19536757   4.951   2.954   5.197  0.3764  0.1728 -0.3262
  182MOL   H19636758   4.856   3.272   5.310  2.2663  0.6407 -0.6863
  182MOL   H19736759   4.882   3.202   5.147  0.1591 -0.1336  0.1130
  182MOL   H19836760   5.058   3.102   5.319  0.0611  3.3408 -2.3028
  182MOL   H19936761   4.926   3.019   5.385 -1.2263  1.6157  0.1444
  182MOL   H20036762   4.925   2.991   5.098 -0.4398  1.4980  0.3712
  182MOL   H20136763   4.865   2.889   5.216 -1.4065  2.4974 -0.1673
  182MOL   H20236764   5.042   2.894   5.202 -0.0707 -0.4544  0.6236
  183MOL     O136765   5.969   3.659   0.956 -0.0345 -0.3278  0.4830
  183MOL     C236766   5.891   3.582   1.043  0.0760  1.1282 -0.3008
  183MOL     C336767   5.773   3.523   0.970  0.4357 -0.6558 -0.3017
  183MOL     C436768   5.698   3.418   1.052  0.2604  0.4071 -0.3339
  183MOL     H536769   5.851   3.633   1.130 -0.3070  0.4719 -0.0845
  183MOL     H636770   5.952   3.501   1.083 -0.3764  1.1601  0.4749
  183MOL     H736771   5.697   3.591   0.930 -0.5181 -1.0803  0.7706
  183MOL     H836772   5.810   3.476   0.879  0.3474 -2.1153  0.4139
  183MOL     H936773   5.667   3.462   1.146  0.2174  0.2978 -0.2983
  183MOL    H1036774   5.762   3.331   1.066 -1.2948 -0.4807  1.4606
  183MOL    H1136775   6.059   3.655   0.985 -0.1682  0.7823  1.0777
  183MOL    O1236776   5.586   3.373   0.978 -0.1068  0.2531 -0.2245
  183MOL    C1336777   5.522   3.262   1.043 -0.3002 -0.2767 -0.2047
  183MOL    C1436778   5.401   3.218   0.959 -0.3630 -0.5881 -0.0332
  183MOL    C1536779   5.366   3.071   0.989  0.2956  0.3898 -0.1540
  183MOL    H1636780   5.489   3.294   1.142 -0.0617  1.7053 -0.7351
  183MOL    H1736781   5.590   3.177   1.050 -0.9022 -0.9927 -2.6212
  183MOL    H1836782   5.314   3.284   0.968 -0.6700 -1.2204  1.8785
  183MOL    H1936783   5.435   3.219   0.856  0.4005 -0.9947  0.2171
  183MOL    H2036784   5.318   3.066   1.087  0.3790  1.2600 -0.0670
  183MOL    H2136785   5.452   3.005   0.987  0.3650  0.3502  2.4229
  183MOL    O2236786   5.260   3.020   0.906  0.2463 -0.4458  0.0767
  183MOL    C2336787   5.230   2.882   0.927 -0.4208  0.2908 -0.5932
  183MOL    C2436788   5.120   2.833   0.835  0.4211  0.2262  0.3756
  183MOL    C2536789   5.167   2.800   0.699 -0.0318  0.5009  0.3620
  183MOL    H2636790   5.190   2.884   1.028 -0.2854  0.7285 -0.5462
  183MOL    H2736791   5.319   2.820   0.930 -0.0890  0.7531 -0.8528
  183MOL    H2836792   5.082   2.741   0.880 -1.9869  0.5068 -0.9649
  183MOL    H2936793   5.037   2.904   0.835 -0.7161 -1.0823 -0.8979
  183MOL    H3036794   5.238   2.717   0.700  1.5555  1.7726 -2.1517
  183MOL    H3136795   5.225   2.884   0.661  0.9388  0.0947  0.9467
  183MOL    O3236796   5.064   2.752   0.605 -0.1878  0.4673 -0.2496
  183MOL    C3336797   4.931   2.789   0.643 -0.5485  0.3869  0.3381
  183MOL    C3436798   4.849   2.743   0.526 -0.2640 -0.1079  0.2051
  183MOL    C3536799   4.851   2.833   0.400  0.1095 -0.8272 -0.3365
  183MOL    H3636800   4.918   2.897   0.644 -0.8575  0.3857 -1.7152
  183MOL    H3736801   4.894   2.743   0.734  0.8602 -0.2410  0.6132
  183MOL    H3836802   4.877   2.640   0.503 -0.0921 -0.0631  0.2091
  183MOL    H3936803   4.745   2.730   0.554  0.6879 -3.6020  2.4594
  183MOL    H4036804   4.951   2.854   0.362 -0.0406 -0.2976 -0.4414
  183MOL    H4136805   4.811   2.930   0.427  0.3082 -0.4215 -1.4679
  183MOL    O4236806   4.787   2.770   0.296  0.6236  0.1797  0.4450
  183MOL    C4336807   4.648   2.768   0.308  0.2268 -0.6440  0.4943
  183MOL    C4436808   4.586   2.731   0.173 -0.5851 -0.1662 -0.2515
  183MOL    C4536809   4.430   2.738   0.163 -0.9641 -0.5786 -0.1419
  183MOL    H4636810   4.609   2.867   0.332  2.2114  0.3345 -0.2428
  183MOL    H4736811   4.617   2.685   0.371  0.4213 -0.2713  1.0814
  183MOL    H4836812   4.618   2.808   0.103  0.1380 -0.6746 -0.4839
  183MOL    H4936813   4.632   2.641   0.132  0.5180  0.9949 -1.6052
  183MOL    H5036814   4.397   2.834   0.204  2.0687  0.7611 -0.6933
  183MOL    H5136815   4.405   2.666   0.240  0.2852  1.7522  2.5335
  183MOL    O5236816   4.385   2.724   0.031  0.1888  0.1296  0.0392
  183MOL    C5336817   4.249   2.691   0.021  0.4505 -0.3339  0.6048
  183MOL    C5436818   4.213   2.643   7.667  0.0301 -0.1886  0.4445
  183MOL    C5536819   4.059   2.653   7.651 -0.3132 -0.6681  0.3230
  183MOL    H5636820   4.181   2.774   0.044  2.0363  1.0172  0.5324
  183MOL    H5736821   4.213   2.613   0.088  0.2251  0.0677  0.9565
  183MOL    H5836822   4.268   2.707   7.598 -1.0188 -0.0244 -0.2480
  183MOL    H5936823   4.248   2.544   7.639 -1.2190 -0.6760  0.5870
  183MOL    H6036824   4.017   2.753   7.666 -1.3423 -0.9790 -0.4496
  183MOL    H6136825   4.013   2.599   7.734 -1.3558  0.1595  0.2958
  183MOL    O6236826   4.013   2.609   7.526  0.3181  0.0275 -0.3198
  183MOL    C6336827   3.874   2.633   7.502  0.1829 -0.3210 -0.2138
  183MOL    C6436828   3.851   2.586   7.358  0.0850  0.0833  0.4997
  183MOL    C6536829   3.705   2.586   7.316 -0.2998 -0.0292  0.2565
  183MOL    H6636830   3.836   2.735   7.510  0.2576 -0.3375  0.4165
  183MOL    H6736831   3.816   2.575   7.574  1.5577  1.6094  2.5749
  183MOL    H6836832   3.915   2.643   7.291  0.0629 -0.9238 -0.3858
  183MOL    H6936833   3.885   2.483   7.347  1.3822  0.8614 -3.1851
  183MOL    H7036834   3.653   2.682   7.321 -1.4274 -0.6029 -0.2189
  183MOL    H7136835   3.654   2.527   7.392  0.4985 -0.1386  0.7146
  183MOL    O7236836   3.690   2.536   7.181  0.5565 -0.1805 -1.0722
  183MOL    C7336837   3.554   2.513   7.140 -0.5489  0.1445 -0.0849
  183MOL    C7436838   3.558   2.422   7.017  0.4059 -0.2328  0.0742
  183MOL    C7536839   3.421   2.416   6.949  0.0693  0.1812 -0.0167
  183MOL    H7636840   3.512   2.609   7.107 -1.4008 -1.1267 -2.8422
  183MOL    H7736841   3.484   2.478   7.216 -0.2755  0.6571  0.4105
  183MOL    H7836842   3.631   2.478   6.959 -0.3739 -0.6922 -1.3771
  183MOL    H7936843   3.598   2.322   7.033 -0.4980 -0.4813  0.8307
  183MOL    H8036844   3.379   2.513   6.924 -2.5926 -0.8201  0.3691
  183MOL    H8136845   3.356   2.365   7.020  1.8495 -2.7063 -0.3810
  183MOL    O8236846   3.437   2.338   6.833 -0.1926  0.1791  0.2858
  183MOL    C8336847   3.328   2.335   6.740  0.4100 -0.2188 -0.4929
  183MOL    C8436848   3.372   2.245   6.625  0.0277  0.2094  0.0805
  183MOL    C8536849   3.254   2.211   6.530 -0.1433  0.0976 -0.2460
  183MOL    H8636850   3.304   2.436   6.707  0.0920 -0.3947 -0.7983
  183MOL    H8736851   3.233   2.300   6.781  0.4600  1.4299  1.1373
  183MOL    H8836852   3.445   2.298   6.564 -1.1558  1.4485 -0.2774
  183MOL    H8936853   3.416   2.150   6.655 -2.2913 -0.5752  1.1980
  183MOL    H9036854   3.196   2.301   6.509 -0.0066  0.3383  0.4042
  183MOL    H9136855   3.191   2.137   6.580  1.2336 -0.0623  1.2605
  183MOL    O9236856   3.295   2.152   6.416  0.4029  0.1079  0.1357
  183MOL    C9336857   3.206   2.151   6.309 -0.1486 -0.2438  0.2342
  183MOL    C9436858   3.128   2.014   6.321  0.6726  0.2520  0.0149
  183MOL    C9536859   3.016   2.000   6.217  0.3242 -0.0215  0.3161
  183MOL    H9636860   3.274   2.145   6.223  1.0692 -1.3138  1.2435
  183MOL    H9736861   3.143   2.239   6.311 -0.3118 -0.3793  1.3791
  183MOL    H9836862   3.194   1.928   6.307 -0.1675 -0.3002 -0.7218
  183MOL    H9936863   3.081   1.998   6.418  0.7944  0.4283  0.1005
  183MOL   H10036864   3.065   1.997   6.120  0.8994 -1.9371  0.6471
  183MOL   H10136865   2.953   2.089   6.219 -1.2844 -1.1295  0.0471
  183MOL   O10236866   2.944   1.883   6.237 -0.2573 -0.1471 -0.0234
  183MOL   C10336867   2.851   1.853   6.138  0.2015  0.0009  0.4138
  183MOL   C10436868   2.761   1.735   6.189  0.4878 -0.9402 -0.2067
  183MOL   C10536869   2.639   1.696   6.093  0.0184  0.3461  0.1604
  183MOL   H10636870   2.906   1.823   6.050 -1.3851  0.3457 -0.7193
  183MOL   H10736871   2.786   1.935   6.108 -1.6075 -1.8922 -0.9635
  183MOL   H10836872   2.822   1.649   6.218  0.3603 -0.7739  0.5796
  183MOL   H10936873   2.723   1.767   6.287 -1.5788  0.9285 -1.5542
  183MOL   H11036874   2.601   1.598   6.123  0.4391  0.3582  0.7581
  183MOL   H11136875   2.676   1.691   5.991  0.2663  2.4776  0.1248
  183MOL   O11236876   2.546   1.806   6.116  0.2822  0.2204  0.0186
  183MOL   C11336877   2.417   1.769   6.056 -0.3077  0.6767 -0.2084
  183MOL   C11436878   2.310   1.841   6.140  0.3581  0.2222  0.3690
  183MOL   C11536879   2.170   1.788   6.123 -0.2821 -0.3538  0.2577
  183MOL   H11636880   2.410   1.662   6.075  0.9654  0.4392 -0.9882
  183MOL   H11736881   2.413   1.793   5.949 -1.0812 -1.5172 -0.6898
  183MOL   H11836882   2.332   1.833   6.246  2.2886 -0.8268 -0.0818
  183MOL   H11936883   2.318   1.949   6.131  1.8946  0.2654  2.0057
  183MOL   H12036884   2.115   1.789   6.217 -0.3547  0.2155  0.2106
  183MOL   H12136885   2.167   1.690   6.075 -2.4144  0.6334 -1.7858
  183MOL   O12236886   2.107   1.891   6.038 -0.0460 -0.0586  0.6809
  183MOL   C12336887   1.968   1.883   6.025  0.0434  0.3267  0.6358
  183MOL   C12436888   1.935   1.805   5.894  0.2062 -0.0185 -0.2906
  183MOL   C12536889   1.966   1.654   5.889 -0.6215 -0.1253  0.4290
  183MOL   H12636890   1.928   1.984   6.035 -0.6480  0.1348 -0.1921
  183MOL   H12736891   1.927   1.823   6.106 -2.3734  0.4226 -0.4898
  183MOL   H12836892   1.826   1.794   5.896  0.1995 -0.1329 -0.9440
  183MOL   H12936893   1.961   1.855   5.801 -0.4487 -1.1392 -1.1021
  183MOL   H13036894   2.074   1.644   5.879 -0.6247  1.2915 -1.2597
  183MOL   H13136895   1.922   1.606   5.802  0.8056 -2.0186  0.7091
  183MOL   O13236896   1.923   1.582   6.011 -0.5572 -0.6898 -0.2081
  183MOL   C13336897   1.917   1.437   5.982  0.5028  0.1234 -1.2257
  183MOL   C13436898   1.931   1.378   6.122 -0.2271  0.6934 -0.2596
  183MOL   C13536899   1.926   1.219   6.112  0.3018  0.0590  0.5841
  183MOL   H13636900   1.998   1.412   5.914  1.2582  1.1186 -0.7020
  183MOL   H13736901   1.826   1.406   5.930 -1.1867  0.2440  1.4898
  183MOL   H13836902   2.022   1.427   6.157 -0.5821  0.2697  1.2997
  183MOL   H13936903   1.853   1.410   6.190  0.5510 -1.7268  1.8620
  183MOL   H14036904   1.834   1.188   6.063  1.5651  0.9034 -2.4095
  183MOL   H14136905   1.939   1.180   6.213  0.4516  1.4547  1.1106
  183MOL   O14236906   2.038   1.173   6.031  0.2047 -0.0978  0.3650
  183MOL   C14336907   2.070   1.036   6.041 -0.6353  0.4962  0.4121
  183MOL   C14436908   2.178   1.014   5.932  0.6997 -0.5173 -0.0862
  183MOL   C14536909   2.133   1.060   5.796 -0.0302  0.0964  0.3465
  183MOL   H14636910   1.972   0.998   6.015  0.1745 -0.6264 -1.0733
  183MOL   H14736911   2.102   0.995   6.138 -0.6872 -1.5143 -0.3987
  183MOL   H14836912   2.265   1.068   5.968  1.5743 -0.5820 -2.0189
  183MOL   H14936913   2.221   0.915   5.942 -0.2794 -0.8068  1.4797
  183MOL   H15036914   2.113   1.167   5.792  1.6309  0.4843  1.7468
  183MOL   H15136915   2.046   1.003   5.765  1.6877 -0.8586 -2.9729
  183MOL   O15236916   2.246   1.053   5.715  0.0267 -0.1383  0.2646
  183MOL   C15336917   2.220   1.087   5.582 -0.2924 -0.5997  0.4002
  183MOL   C15436918   2.349   1.103   5.502 -0.0714  0.8380 -0.1070
  183MOL   C15536919   2.309   1.137   5.357  0.4848  0.5056 -0.0685
  183MOL   H15636920   2.166   1.182   5.580  1.7947  0.6730  2.5602
  183MOL   H15736921   2.158   1.013   5.531  1.1551 -0.2960 -1.8768
  183MOL   H15836922   2.413   1.173   5.556 -0.6732  1.3336 -0.0324
  183MOL   H15936923   2.400   1.007   5.492  0.4505  1.1121 -0.0966
  183MOL   H16036924   2.233   1.215   5.356  0.6964  0.7106 -0.2394
  183MOL   H16136925   2.271   1.055   5.297 -1.6012  1.5293 -0.2058
  183MOL   O16236926   2.436   1.175   5.296 -0.3448 -0.3033 -0.0294
  183MOL   C16336927   2.438   1.246   5.174 -0.4778 -0.0481 -0.3779
  183MOL   C16436928   2.418   1.146   5.061  0.1524 -0.0698  0.1923
  183MOL   C16536929   2.377   1.219   4.931 -0.5007 -0.5267  1.4800
  183MOL   H16636930   2.529   1.305   5.163 -0.6549  0.1539 -0.7733
  183MOL   H16736931   2.352   1.314   5.178 -1.0885 -0.8347  0.1011
  183MOL   H16836932   2.508   1.088   5.048 -0.1299 -0.7404  1.1463
  183MOL   H16936933   2.334   1.079   5.081 -0.2307 -0.2096 -1.8555
  183MOL   H17036934   2.449   1.296   4.902  0.2692 -0.8973  2.3769
  183MOL   H17136935   2.292   1.279   4.961 -0.8421 -1.0585  1.5867
  183MOL   O17236936   2.350   1.130   4.827  0.1441  0.3421 -0.4186
  183MOL   C17336937   2.323   1.193   4.708 -0.1061  0.2399 -1.1065
  183MOL   C17436938   2.304   1.089   4.595  0.0158 -0.0076 -0.1286
  183MOL   C17536939   2.250   1.151   4.463 -0.0822 -0.2617  0.3053
  183MOL   H17636940   2.403   1.259   4.676  1.6914 -0.7081  1.2537
  183MOL   H17736941   2.236   1.257   4.726 -1.4659 -1.9635  0.4151
  183MOL   H17836942   2.403   1.049   4.574  0.6663  1.0704  0.8659
  183MOL   H17936943   2.240   1.012   4.638 -0.7000  1.1781  0.9680
  183MOL   H18036944   2.322   1.211   4.407 -0.1218 -1.1626 -0.7326
  183MOL   H18136945   2.163   1.214   4.480 -0.3909  0.2839 -2.9096
  183MOL   O18236946   2.209   1.045   4.390 -0.0894  0.4166 -0.0888
  183MOL   C18336947   2.165   1.081   4.260 -0.2932 -0.1081 -0.4442
  183MOL   C18436948   2.182   0.953   4.176 -0.4663  0.4646  0.6479
  183MOL   C18536949   2.323   0.901   4.147 -0.0455 -0.5077 -0.6862
  183MOL   H18636950   2.235   1.150   4.213 -0.2360  0.3085  0.2311
  183MOL   H18736951   2.063   1.120   4.265 -0.0854  0.4806 -0.6889
  183MOL   H18836952   2.121   0.873   4.218  0.3552 -1.7273 -2.2201
  183MOL   H18936953   2.134   0.978   4.081  0.1877 -0.1341  0.1609
  183MOL   H19036954   2.376   0.866   4.236  3.6917 -0.6421 -2.8555
  183MOL   H19136955   2.374   0.990   4.110  0.7971  0.0017  1.5964
  183MOL   O19236956   2.312   0.795   4.059  0.1444 -0.7843  0.5681
  183MOL   C19336957   2.439   0.731   4.041 -0.3663  0.3970 -0.1844
  183MOL   C19436958   2.412   0.594   3.970  0.2574 -0.1323 -0.2635
  183MOL   C19536959   2.354   0.625   3.826  0.0669  0.4349 -0.2108
  183MOL   H19636960   2.485   0.717   4.139  1.3551  0.6476 -0.9335
  183MOL   H19736961   2.517   0.781   3.984  0.8669  1.1443  2.0826
  183MOL   H19836962   2.502   0.533   3.962  2.5190  3.3380 -3.0622
  183MOL   H19936963   2.343   0.545   4.039 -0.3344  2.1911  0.8382
  183MOL   H20036964   2.321   0.533   3.777 -0.0573  0.5630 -0.3647
  183MOL   H20136965   2.427   0.669   3.758 -1.3761  4.0027  0.4311
  183MOL   H20236966   2.274   0.697   3.838 -2.7353 -2.3956 -1.1535
  184MOL     O136967   6.747   1.741   2.239  0.2318  0.4451  0.1731
  184MOL     C236968   6.802   1.655   2.142  1.2659  0.2508 -0.1744
  184MOL     C336969   6.754   1.513   2.173  0.0936 -0.7651 -0.7681
  184MOL     C436970   6.812   1.414   2.070 -0.4551 -0.6022  1.3188
  184MOL     H536971   6.909   1.673   2.150  0.8379  3.4773 -0.6227
  184MOL     H636972   6.773   1.675   2.038 -0.7843  1.9485  0.6725
  184MOL     H736973   6.810   1.484   2.263 -0.9981  0.9803  0.5203
  184MOL     H836974   6.646   1.499   2.174  0.2395 -1.9285 -1.6803
  184MOL     H936975   6.919   1.406   2.088 -0.2402  1.7049  1.2254
  184MOL    H1036976   6.801   1.447   1.966 -0.4108 -1.6224  0.9862
  184MOL    H1136977   6.782   1.825   2.213  0.0351 -0.4677 -3.3250
  184MOL    O1236978   6.743   1.298   2.102  0.3510  0.1525  0.3907
  184MOL    C1336979   6.783   1.188   2.026 -0.5118 -0.3393 -0.4514
  184MOL    C1436980   6.709   1.067   2.080 -0.6765 -0.0744  0.1678
  184MOL    C1536981   6.736   0.939   1.996  0.2310  0.8198 -0.9316
  184MOL    H1636982   6.889   1.174   2.046 -0.6415 -0.0873  0.4180
  184MOL    H1736983   6.765   1.201   1.919  0.5650  0.4268 -0.5423
  184MOL    H1836984   6.732   1.045   2.185 -1.9859 -0.6997  0.3311
  184MOL    H1936985   6.602   1.084   2.075 -0.8051 -1.2788 -1.5619
  184MOL    H2036986   6.684   0.852   2.036  1.0928  1.5019  1.7679
  184MOL    H2136987   6.842   0.915   1.987  0.0614 -1.5729  2.5690
  184MOL    O2236988   6.677   0.965   1.872  0.2802 -0.0574 -0.0317
  184MOL    C2336989   6.708   0.880   1.763 -0.2487 -0.3737  0.9480
  184MOL    C2436990   6.586   0.879   1.671 -0.3514 -0.0866  0.0322
  184MOL    C2536991   6.600   0.778   1.554  0.6843  0.4508  0.1407
  184MOL    H2636992   6.714   0.777   1.800 -0.2612 -1.0097 -0.8062
  184MOL    H2736993   6.798   0.908   1.709  0.4288 -2.5052  0.9105
  184MOL    H2836994   6.500   0.850   1.732 -0.8635 -0.7181 -0.9655
  184MOL    H2936995   6.576   0.978   1.627  2.0251 -0.1341 -0.6823
  184MOL    H3036996   6.600   0.680   1.602  0.4006 -0.4491 -1.6357
  184MOL    H3136997   6.694   0.793   1.501  0.8356  1.8604  0.8059
  184MOL    O3236998   6.496   0.768   1.461 -0.7239  0.0842 -0.3566
  184MOL    C3336999   6.514   0.673   1.350 -0.4930  0.0957 -0.0754
  184MOL    C3437000   6.390   0.692   1.257 -0.0242 -0.1347  0.5572
  184MOL    C3537001   6.383   0.603   1.130 -0.3352  0.5381  0.1637
  184MOL    H3637002   6.505   0.572   1.390 -1.6549  0.1270 -0.2357
  184MOL    H3737003   6.605   0.694   1.294  0.3026 -0.5987  0.9426
  184MOL    H3837004   6.309   0.668   1.325 -1.3261  3.0964  0.2502
  184MOL    H3937005   6.367   0.797   1.239 -1.5506 -0.9675 -2.6534
  184MOL    H4037006   6.395   0.503   1.172  1.3938  0.2303 -0.9611
  184MOL    H4137007   6.464   0.609   1.057 -0.3718 -0.9058 -0.0071
  184MOL    O4237008   6.263   0.603   1.056  0.1078 -0.4188  0.0402
  184MOL    C4337009   6.256   0.513   0.945  0.1811 -0.0815  0.4018
  184MOL    C4437010   6.106   0.499   0.905  0.7875  0.9091  0.5010
  184MOL    C4537011   6.068   0.619   0.814 -0.0234 -0.3214 -0.4462
  184MOL    H4637012   6.284   0.421   0.996  0.6213  0.9796  2.1403
  184MOL    H4737013   6.321   0.541   0.862 -1.9863  1.1101 -0.9274
  184MOL    H4837014   6.087   0.416   0.837  1.6213  2.7612 -2.0334
  184MOL    H4937015   6.039   0.495   0.991 -0.8594  0.8145 -0.7639
  184MOL    H5037016   6.137   0.634   0.731 -0.2259  0.8704 -0.4052
  184MOL    H5137017   6.068   0.715   0.865  0.8076  0.0626 -1.1470
  184MOL    O5237018   5.931   0.617   0.783  1.0098  0.0650 -0.1104
  184MOL    C5337019   5.896   0.701   0.671  0.3751 -0.0541 -0.4636
  184MOL    C5437020   5.750   0.706   0.634  0.5071 -0.0030 -0.5705
  184MOL    C5537021   5.664   0.792   0.729  0.3616 -0.0163 -0.2280
  184MOL    H5637022   5.962   0.663   0.593  0.0018  0.2383 -0.9262
  184MOL    H5737023   5.925   0.806   0.683 -1.5654  0.4544 -0.1287
  184MOL    H5837024   5.747   0.746   0.533  0.8591 -0.0194 -0.5886
  184MOL    H5937025   5.710   0.606   0.621 -0.5333  0.6154 -2.3307
  184MOL    H6037026   5.704   0.893   0.725  1.8951 -0.5961  0.0606
  184MOL    H6137027   5.685   0.748   0.827 -2.2516  0.1076  0.4390
  184MOL    O6237028   5.526   0.784   0.698  0.4828 -0.0038 -0.0933
  184MOL    C6337029   5.455   0.839   0.809 -1.0781  0.2985  0.3370
  184MOL    C6437030   5.301   0.820   0.787  0.0846 -0.1073 -0.3220
  184MOL    C6537031   5.261   0.672   0.791 -0.7943  0.2086  0.6856
  184MOL    H6637032   5.495   0.938   0.829  1.7115 -0.7856  0.2933
  184MOL    H6737033   5.488   0.790   0.901 -0.4781  2.5274  1.3364
  184MOL    H6837034   5.242   0.875   0.861  2.8103  1.6994  0.5995
  184MOL    H6937035   5.277   0.857   0.688  0.6854 -0.9206 -0.7781
  184MOL    H7037036   5.287   0.639   0.892 -0.5112  0.1247  0.5885
  184MOL    H7137037   5.321   0.611   0.723 -0.0758  2.3143 -0.6270
  184MOL    O7237038   5.123   0.654   0.775 -0.3726  0.1470 -0.6941
  184MOL    C7337039   5.095   0.513   0.754 -0.1405 -0.6476  0.5691
  184MOL    C7437040   4.941   0.500   0.778  0.1466  0.2046  0.0541
  184MOL    C7537041   4.895   0.358   0.751  0.2280  0.1961 -0.2927
  184MOL    H7637042   5.137   0.448   0.831 -0.5380  2.4559  3.5399
  184MOL    H7737043   5.122   0.473   0.656 -0.9234 -1.2942  0.6093
  184MOL    H7837044   4.908   0.532   0.877  1.4757 -1.7092  1.1221
  184MOL    H7937045   4.885   0.573   0.718  0.2539  0.6015  0.4372
  184MOL    H8037046   4.974   0.287   0.774  0.8803  1.5434  1.8400
  184MOL    H8137047   4.852   0.342   0.652 -0.5317 -0.4598  0.1414
  184MOL    O8237048   4.797   0.345   0.854 -0.0593 -0.1425 -0.2474
  184MOL    C8337049   4.748   0.212   0.875  0.5002  0.3180  0.1522
  184MOL    C8437050   4.617   0.228   0.957 -0.7151  0.4621  0.4971
  184MOL    C8537051   4.533   0.098   0.956  0.1108 -0.1453  0.2984
  184MOL    H8637052   4.828   0.164   0.932  0.5306  0.9098  0.6106
  184MOL    H8737053   4.738   0.154   0.783  1.2373  0.1360  0.1816
  184MOL    H8837054   4.644   0.264   1.057  1.6513  0.1003  0.0175
  184MOL    H8937055   4.559   0.313   0.922 -1.0393  0.9073  2.0522
  184MOL    H9037056   4.583   0.004   0.983 -1.3164 -0.6075  1.4125
  184MOL    H9137057   4.497   0.066   0.858 -0.2821 -2.0469  1.0297
  184MOL    O9237058   4.420   0.100   1.038  0.6103 -0.0004 -0.0550
  184MOL    C9337059   4.317   0.194   0.998 -0.0848  0.0516  0.7854
  184MOL    C9437060   4.172   0.166   1.047 -0.0505 -0.4849 -0.2865
  184MOL    C9537061   4.161   0.186   1.204  0.1221 -0.3370 -0.4231
  184MOL    H9637062   4.315   0.208   0.890  1.3593  2.5698  1.0313
  184MOL    H9737063   4.355   0.287   1.042 -0.4640 -0.0597  1.3591
  184MOL    H9837064   4.098   0.230   0.999  0.1951  0.6378  0.8336
  184MOL    H9937065   4.139   0.065   1.021  0.1252 -1.1413  1.9738
  184MOL   H10037066   4.159   0.292   1.228  1.4668 -0.0386 -1.6009
  184MOL   H10137067   4.254   0.141   1.237  1.2660  1.1897 -1.4966
  184MOL   O10237068   4.046   0.125   1.262 -0.9552  0.0929  0.0848
  184MOL   C10337069   3.923   0.190   1.278 -1.0851  0.8305 -0.1360
  184MOL   C10437070   3.839   0.093   1.365 -0.4731  0.0324 -0.0142
  184MOL   C10537071   3.696   0.141   1.412  0.3658  0.1068  0.1845
  184MOL   H10637072   3.877   0.224   1.185 -2.5858  0.5788  0.4985
  184MOL   H10737073   3.944   0.275   1.342 -0.7670 -0.3904  1.4304
  184MOL   H10837074   3.842   7.785   1.313  0.7898 -0.1640  0.4056
  184MOL   H10937075   3.898   0.079   1.456 -1.5812  0.8644  0.8339
  184MOL   H11037076   3.639   0.172   1.325  0.8653 -0.2239 -0.2661
  184MOL   H11137077   3.716   0.227   1.476 -1.2990 -0.4555  1.4896
  184MOL   O11237078   3.626   0.037   1.484  0.0819 -0.3152 -0.9391
  184MOL   C11337079   3.497   0.070   1.519 -0.4835 -0.8389  0.2782
  184MOL   C11437080   3.430   7.738   1.584 -0.2012  0.4203 -0.5783
  184MOL   C11537081   3.417   7.612   1.495  0.5983 -0.1226  0.1052
  184MOL   H11637082   3.430   0.099   1.439  1.0589 -0.1137 -0.7647
  184MOL   H11737083   3.506   0.154   1.587  0.3884 -0.3723 -0.4095
  184MOL   H11837084   3.484   7.712   1.675 -1.1604  0.0206 -0.1174
  184MOL   H11937085   3.333   7.771   1.620  0.3536  1.4353  0.0281
  184MOL   H12037086   3.508   7.593   1.438  0.9093  2.1684 -0.2149
  184MOL   H12137087   3.340   7.617   1.419 -0.8037 -0.3816  1.4810
  184MOL   O12237088   3.387   7.509   1.583 -0.5662  0.1575  0.0697
  184MOL   C12337089   3.251   7.467   1.591 -0.7405 -0.5901  0.2843
  184MOL   C12437090   3.252   7.335   1.673  0.5011 -0.5133  0.3716
  184MOL   C12537091   3.111   7.284   1.697  0.6016 -0.7625 -0.3423
  184MOL   H12637092   3.210   7.452   1.491  2.5610  1.8411 -1.5603
  184MOL   H12737093   3.179   7.541   1.626  0.1174 -0.6890  2.2807
  184MOL   H12837094   3.306   7.263   1.612  0.1445  0.5509 -1.2351
  184MOL   H12937095   3.309   7.348   1.765 -0.1479 -0.9689  0.8379
  184MOL   H13037096   3.058   7.268   1.603  2.0806 -0.6888 -1.2130
  184MOL   H13137097   3.061   7.362   1.755  4.0205  1.0202  0.3611
  184MOL   O13237098   3.117   7.170   1.777  0.4630  0.3905  0.0086
  184MOL   C13337099   3.012   7.069   1.759  0.3770 -0.3125 -0.0815
  184MOL   C13437100   2.884   7.101   1.843 -0.4690  0.3474  0.5707
  184MOL   C13537101   2.923   7.132   1.987 -0.3872  0.3520 -0.4206
  184MOL   H13637102   3.066   6.983   1.798  1.3969  0.5671  0.4683
  184MOL   H13737103   2.990   7.056   1.653  0.4985  0.2202 -0.1742
  184MOL   H13837104   2.827   7.183   1.798 -0.0391  0.1304 -0.3812
  184MOL   H13937105   2.820   7.013   1.839 -0.3734  0.3276 -0.7495
  184MOL   H14037106   2.997   7.212   1.991 -1.4145  1.2322  1.5675
  184MOL   H14137107   2.958   7.036   2.026 -0.3086  0.6655  0.2827
  184MOL   O14237108   2.800   7.168   2.050 -0.5461  0.2307 -0.5098
  184MOL   C14337109   2.812   7.228   2.174 -0.7521 -0.5561  0.2192
  184MOL   C14437110   2.673   7.276   2.224 -0.5965 -0.3095 -0.1174
  184MOL   C14537111   2.691   7.360   2.349  0.7157 -0.3531  0.5984
  184MOL   H14637112   2.873   7.319   2.167  0.0255 -1.2196 -1.8046
  184MOL   H14737113   2.851   7.158   2.247  2.3571  2.3837  1.5494
  184MOL   H14837114   2.628   7.338   2.146 -1.2721  0.0814  0.5800
  184MOL   H14937115   2.608   7.191   2.240 -0.5537 -0.2003  0.6529
  184MOL   H15037116   2.731   7.460   2.331  1.3190 -0.5776  0.6743
  184MOL   H15137117   2.773   7.316   2.406  0.3512  0.6580  1.9312
  184MOL   O15237118   2.572   7.362   2.431 -0.4758 -0.3308 -0.0474
  184MOL   C15337119   2.585   7.446   2.548 -0.0824  0.5967  0.2816
  184MOL   C15437120   2.457   7.441   2.629  0.0517  0.5334  1.0946
  184MOL   C15537121   2.448   7.309   2.707  0.1920  0.3901 -0.3822
  184MOL   H15637122   2.613   7.550   2.535  0.3418  0.3911 -0.5054
  184MOL   H15737123   2.669   7.406   2.605 -0.0920 -2.6082 -1.7585
  184MOL   H15837124   2.446   7.506   2.716 -1.2052  0.7170  0.8074
  184MOL   H15937125   2.369   7.450   2.564  0.5809 -0.1040  0.2789
  184MOL   H16037126   2.540   7.305   2.766 -0.5879  1.8412  0.9816
  184MOL   H16137127   2.446   7.225   2.638  1.7915 -0.2082  0.2898
  184MOL   O16237128   2.326   7.315   2.779 -0.3025  0.6400 -0.2430
  184MOL   C16337129   2.290   7.197   2.857 -0.5371 -0.1894  0.3499
  184MOL   C16437130   2.169   7.227   2.949 -0.4384 -0.2741 -0.2645
  184MOL   C16537131   2.131   7.101   3.029 -0.8843 -0.2449 -0.5221
  184MOL   H16637132   2.370   7.150   2.913  1.0888 -0.0111 -1.7399
  184MOL   H16737133   2.259   7.117   2.789  0.2757 -1.5150  1.5379
  184MOL   H16837134   2.189   7.316   3.010 -0.3534 -0.4132 -0.0892
  184MOL   H16937135   2.087   7.248   2.880  1.2928  2.8729 -1.4799
  184MOL   H17037136   2.034   7.096   3.080 -0.6795  0.6268 -0.0334
  184MOL   H17137137   2.203   7.092   3.110 -0.9504  0.8997 -0.3287
  184MOL   O17237138   2.132   6.980   2.945  0.2752 -0.0016 -0.2008
  184MOL   C17337139   2.117   6.860   3.019  0.0635 -0.1216 -0.0489
  184MOL   C17437140   2.125   6.742   2.921 -0.1827  0.4750 -0.6480
  184MOL   C17537141   2.020   6.758   2.804 -0.0412 -0.2149 -0.6301
  184MOL   H17637142   2.015   6.863   3.058  0.7988  2.3623  1.7878
  184MOL   H17737143   2.192   6.852   3.097 -0.0221  0.1997  0.0661
  184MOL   H17837144   2.219   6.720   2.871 -0.9435 -0.7177 -1.5773
  184MOL   H17937145   2.117   6.662   2.994  1.3698  0.0314 -0.9483
  184MOL   H18037146   2.052   6.836   2.735 -0.2578 -0.5342 -1.0966
  184MOL   H18137147   1.920   6.784   2.839 -0.4207  1.0367 -2.5632
  184MOL   O18237148   2.009   6.638   2.733 -0.0834  0.2232 -0.3504
  184MOL   C18337149   1.915   6.544   2.790 -0.2823  0.3112 -0.3101
  184MOL   C18437150   1.922   6.422   2.687  0.5112 -1.0738  0.6517
  184MOL   C18537151   1.910   6.288   2.762  0.5298  0.6680 -0.1257
  184MOL   H18637152   1.818   6.593   2.803  0.4894  1.0882  2.8542
  184MOL   H18737153   1.950   6.503   2.885 -0.6963 -1.9916 -1.1255
  184MOL   H18837154   1.854   6.442   2.604 -0.7157 -1.1733  1.6120
  184MOL   H18937155   2.017   6.422   2.634  0.8863  0.5846  1.2897
  184MOL   H19037156   1.821   6.299   2.824 -1.9288  2.2289 -3.7663
  184MOL   H19137157   1.995   6.260   2.824  1.0085 -0.0270 -1.0713
  184MOL   O19237158   1.894   6.183   2.672  0.2838  0.6415 -0.1345
  184MOL   C19337159   1.855   6.058   2.729 -0.5253 -1.0852  0.4143
  184MOL   C19437160   1.882   5.952   2.615  0.3907  0.0423 -0.4058
  184MOL   C19537161   1.801   5.972   2.481 -0.0683  0.5528 -0.5733
  184MOL   H19637162   1.752   6.051   2.765 -0.1446 -1.2993  1.4708
  184MOL   H19737163   1.923   6.036   2.811  0.2591 -0.2277 -0.0041
  184MOL   H19837164   1.989   5.939   2.601  0.3467 -2.3351  1.1268
  184MOL   H19937165   1.846   5.860   2.661 -1.3398  0.4235 -0.9580
  184MOL   H20037166   1.863   6.022   2.407  1.7020 -0.3276  0.2951
  184MOL   H20137167   1.704   6.023   2.489  0.4847  1.2983  1.8328
  184MOL   H20237168   1.782   5.871   2.446  1.7530 -0.1063  0.2946
  185MOL     O137169   2.056   0.455   4.864  0.6731 -0.0332 -0.1917
  185MOL     C237170   2.080   0.515   4.739  0.7786  0.0407  0.1529
  185MOL     C337171   2.025   0.663   4.732 -0.3942 -0.5441  0.1974
  185MOL     C437172   2.113   0.756   4.821 -0.0273 -0.5218  0.4230
  185MOL     H537173   2.021   0.451   4.672 -0.9348  0.7020  0.9938
  185MOL     H637174   2.187   0.513   4.719  0.8331  0.6133  0.3957
  185MOL     H737175   2.034   0.702   4.631 -1.7557 -1.3344 -0.2329
  185MOL     H837176   1.919   0.673   4.755 -0.4140  0.1716 -0.1953
  185MOL     H937177   2.105   0.862   4.798 -0.7000 -0.5022  0.7473
  185MOL    H1037178   2.216   0.740   4.790 -0.5819 -0.9763 -1.2416
  185MOL    H1137179   2.063   0.534   4.915  2.0447  1.3031 -2.3854
  185MOL    O1237180   2.095   0.723   4.958  0.3159 -0.5994 -1.1108
  185MOL    C1337181   2.197   0.761   5.044  0.1023 -0.0090  0.5565
  185MOL    C1437182   2.193   0.681   5.176 -0.1753  0.9945  0.0819
  185MOL    C1537183   2.322   0.686   5.265 -0.7066 -0.9361  0.9040
  185MOL    H1637184   2.203   0.869   5.053 -3.0645  0.2316  0.4545
  185MOL    H1737185   2.283   0.720   4.992 -0.2025  0.4230 -0.3113
  185MOL    H1837186   2.104   0.705   5.234  0.9849 -0.5038  2.5565
  185MOL    H1937187   2.179   0.578   5.143  0.6772  1.5506 -2.0887
  185MOL    H2037188   2.328   0.764   5.341  0.2401 -3.2710  3.3011
  185MOL    H2137189   2.410   0.692   5.200 -0.8959 -0.2395  0.7142
  185MOL    O2237190   2.323   0.575   5.340  0.1182 -0.3389 -0.0628
  185MOL    C2337191   2.250   0.582   5.463 -0.2162  0.4957 -0.3966
  185MOL    C2437192   2.226   0.436   5.490 -0.3196 -0.5140 -0.0625
  185MOL    C2537193   2.148   0.353   5.390  0.1504  0.0281  0.1878
  185MOL    H2637194   2.167   0.653   5.458 -0.8769 -0.0406  2.3034
  185MOL    H2737195   2.308   0.627   5.544  1.6557 -0.1457 -1.3565
  185MOL    H2837196   2.318   0.393   5.530 -0.0259 -0.8599 -1.0996
  185MOL    H2937197   2.179   0.444   5.588 -0.3260 -0.7019 -0.0491
  185MOL    H3037198   2.107   0.265   5.440  1.6336 -0.0826  1.2302
  185MOL    H3137199   2.221   0.320   5.316 -0.1257 -0.2569  0.0433
  185MOL    O3237200   2.039   0.435   5.330 -0.6091  0.0202 -0.4326
  185MOL    C3337201   2.000   0.372   5.208 -0.1521  0.0493 -0.2270
  185MOL    C3437202   1.859   0.426   5.168 -0.3216 -0.0058  0.0429
  185MOL    C3537203   1.791   0.351   5.040 -0.4592  0.1350  0.0428
  185MOL    H3637204   2.002   0.264   5.222  0.2111  0.0875  0.0215
  185MOL    H3737205   2.073   0.383   5.128 -0.1465  0.0841 -0.2171
  185MOL    H3837206   1.796   0.414   5.257 -1.3415 -1.4854 -0.8534
  185MOL    H3937207   1.871   0.532   5.150 -0.4511  0.0667  0.3665
  185MOL    H4037208   1.768   0.249   5.069  0.9993 -0.6886 -1.5746
  185MOL    H4137209   1.853   0.348   4.950 -0.2916  1.0770  0.1227
  185MOL    O4237210   1.670   0.416   5.007  0.6096  0.4757  0.0959
  185MOL    C4337211   1.689   0.511   4.906 -0.9186 -0.0284 -0.7118
  185MOL    C4437212   1.571   0.607   4.917 -0.7959  0.1732  0.3710
  185MOL    C4537213   1.574   0.723   4.820 -0.9170  0.4733 -0.6018
  185MOL    H4637214   1.686   0.472   4.804 -0.3332 -1.4189 -0.2088
  185MOL    H4737215   1.785   0.561   4.921 -0.9581  0.6673 -2.6788
  185MOL    H4837216   1.478   0.550   4.911 -0.7592  0.1056  0.4447
  185MOL    H4937217   1.582   0.642   5.020 -1.7348  0.5072  0.3608
  185MOL    H5037218   1.587   0.690   4.716  1.6854  0.1149 -0.2128
  185MOL    H5137219   1.663   0.785   4.828 -0.5809 -0.1387  0.4800
  185MOL    O5237220   1.460   0.798   4.846 -0.3689 -0.1839 -0.1578
  185MOL    C5337221   1.433   0.913   4.769  0.3248 -1.3496  1.0245
  185MOL    C5437222   1.508   1.034   4.815  0.5242 -0.0810 -0.5900
  185MOL    C5537223   1.471   1.166   4.746  0.1342 -0.6056  0.1966
  185MOL    H5637224   1.328   0.936   4.787  0.6999  3.2040 -1.7165
  185MOL    H5737225   1.442   0.901   4.661 -0.2738 -0.3228  0.8527
  185MOL    H5837226   1.482   1.043   4.921 -2.7834 -0.9196 -1.2779
  185MOL    H5937227   1.616   1.028   4.812  0.3782 -3.8982 -0.5480
  185MOL    H6037228   1.468   1.148   4.639 -0.6543 -0.9342  0.2701
  185MOL    H6137229   1.542   1.245   4.770  0.0953 -0.1905 -1.0406
  185MOL    O6237230   1.333   1.191   4.791  0.1028  0.2099 -0.6730
  185MOL    C6337231   1.266   1.291   4.715 -0.3765 -0.3916  0.0883
  185MOL    C6437232   1.295   1.438   4.762 -0.2392 -0.0031 -0.3564
  185MOL    C6537233   1.206   1.472   4.875 -0.5871  0.2403 -0.6735
  185MOL    H6637234   1.162   1.273   4.744 -0.8744  0.7286 -0.9833
  185MOL    H6737235   1.271   1.279   4.607 -3.1354 -2.5639  0.1186
  185MOL    H6837236   1.401   1.441   4.784  0.2131  1.2659 -2.5221
  185MOL    H6937237   1.269   1.514   4.687  1.0969 -0.3053 -1.1288
  185MOL    H7037238   1.234   1.563   4.928 -1.3215  0.3514 -0.4739
  185MOL    H7137239   1.209   1.396   4.953 -1.6940  0.5818 -0.2891
  185MOL    O7237240   1.072   1.495   4.835 -0.1245 -0.1424 -0.5277
  185MOL    C7337241   0.982   1.501   4.943 -0.4383 -0.0355 -0.3681
  185MOL    C7437242   0.836   1.504   4.895 -0.3592  0.5170  0.1044
  185MOL    C7537243   0.734   1.533   5.003 -0.9007  0.0014 -0.0494
  185MOL    H7637244   1.007   1.583   5.009  2.0289 -1.9008  1.1011
  185MOL    H7737245   0.992   1.407   4.997 -3.2245 -0.4975 -0.5565
  185MOL    H7837246   0.841   1.562   4.803  2.8667  0.4691  0.2053
  185MOL    H7937247   0.813   1.400   4.870 -1.3258  0.6123  0.5604
  185MOL    H8037248   0.757   1.630   5.048 -0.9520  0.1863 -0.4170
  185MOL    H8137249   0.747   1.461   5.084 -0.6554 -0.5328 -0.5674
  185MOL    O8237250   0.593   1.541   4.966  0.0642 -0.2564  0.6101
  185MOL    C8337251   0.505   1.538   5.078  0.5413 -0.3971 -0.3470
  185MOL    C8437252   0.374   1.612   5.034  0.5690  0.4099 -0.0432
  185MOL    C8537253   0.281   1.622   5.150 -0.4990  0.0761  0.2054
  185MOL    H8637254   0.546   1.586   5.167 -2.2807 -0.3239  0.9774
  185MOL    H8737255   0.473   1.437   5.106 -1.2937  0.0828 -0.6236
  185MOL    H8837256   0.402   1.710   4.993  0.7816  0.6335  0.6315
  185MOL    H8937257   0.334   1.553   4.952 -3.5235  0.9839  1.4160
  185MOL    H9037258   0.316   1.667   5.242 -1.1519  0.4238  0.2829
  185MOL    H9137259   0.242   1.524   5.178 -1.1830 -0.1549 -1.4830
  185MOL    O9237260   0.166   1.698   5.104 -0.2469  1.1346 -0.3391
  185MOL    C9337261   0.080   1.738   5.214 -0.0695 -0.3614 -0.3335
  185MOL    C9437262   7.731   1.780   5.166  0.6209  0.5278  0.5563
  185MOL    C9537263   7.646   1.671   5.090 -0.2012 -0.5011  0.2849
  185MOL    H9637264   0.130   1.810   5.278  1.1384  0.2450 -1.9340
  185MOL    H9737265   0.062   1.654   5.281 -0.4783 -0.4303 -0.5307
  185MOL    H9837266   7.660   1.803   5.246 -0.5143 -0.0342 -0.2864
  185MOL    H9937267   7.732   1.870   5.105  2.8290 -0.1483 -0.4463
  185MOL   H10037268   7.702   1.634   5.004  0.1613  1.0291 -0.1574
  185MOL   H10137269   7.556   1.715   5.047  0.1360  0.5788  0.6723
  185MOL   O10237270   7.616   1.555   5.166 -0.5474  0.1161  0.1080
  185MOL   C10337271   7.534   1.460   5.098  0.6077  0.1645  0.3632
  185MOL   C10437272   7.535   1.332   5.180 -0.1979 -0.0827 -0.1246
  185MOL   C10537273   7.662   1.253   5.207  0.4097  0.0347  0.0983
  185MOL   H10637274   7.561   1.439   4.995 -0.7168  2.4253 -0.4826
  185MOL   H10737275   7.432   1.498   5.098 -0.8346 -3.4815 -1.8034
  185MOL   H10837276   7.480   1.339   5.274  0.2073  0.2941  0.0846
  185MOL   H10937277   7.480   1.256   5.125  2.0637 -2.5049  0.8910
  185MOL   H11037278   7.734   1.301   5.274  1.0617  0.1510 -0.6820
  185MOL   H11137279   7.712   1.234   5.112  0.4664 -0.4547  0.2241
  185MOL   O11237280   7.611   1.133   5.266 -0.1787  0.3531 -0.2265
  185MOL   C11337281   7.712   1.043   5.315 -0.0864  0.2354  0.0116
  185MOL   C11437282   7.668   0.916   5.390 -0.5285 -0.0047 -0.0347
  185MOL   C11537283   7.788   0.833   5.443 -0.2182 -0.8323 -0.2360
  185MOL   H11637284   7.780   1.097   5.380 -0.4957  1.3480 -0.4840
  185MOL   H11737285   7.770   1.012   5.228 -0.5421 -3.0112  0.7703
  185MOL   H11837286   7.608   0.948   5.475  1.2399 -2.8926  2.4001
  185MOL   H11937287   7.614   0.857   5.317 -1.9718  3.0137 -1.4925
  185MOL   H12037288   0.046   0.896   5.519  0.5802 -1.0100 -0.5749
  185MOL   H12137289   0.081   0.831   5.370 -0.7095 -2.4960 -0.7700
  185MOL   O12237290   7.741   0.708   5.497 -0.0449  0.8358  0.3096
  185MOL   C12337291   0.058   0.628   5.559  0.0234  0.5071  0.6361
  185MOL   C12437292   7.784   0.507   5.631  0.2929  0.2166  0.5926
  185MOL   C12537293   0.082   0.456   5.742  0.4273  0.0733 -0.3167
  185MOL   H12637294   0.117   0.688   5.629 -0.3921  0.8487  0.6933
  185MOL   H12737295   0.127   0.609   5.477 -0.6781  1.0008 -0.0752
  185MOL   H12837296   7.703   0.557   5.684  0.3481  0.0389  0.8514
  185MOL   H12937297   7.747   0.431   5.562  2.3170 -0.8804  0.6750
  185MOL   H13037298   0.114   0.551   5.786  2.0974 -0.0908 -1.1715
  185MOL   H13137299   0.168   0.393   5.719  1.0448  1.1382 -0.9406
  185MOL   O13237300   0.009   0.380   5.840 -0.0635 -0.8992 -0.5999
  185MOL   C13337301   0.032   0.419   5.975 -0.1927  0.1343 -0.2342
  185MOL   C13437302   7.754   0.314   6.063 -0.2262 -0.0772  0.2255
  185MOL   C13537303   7.776   0.328   6.211  0.3117  0.5274  0.3095
  185MOL   H13637304   7.772   0.516   5.984  2.2306  1.6034 -2.4119
  185MOL   H13737305   0.140   0.436   5.981  0.1200 -2.0296  0.9226
  185MOL   H13837306   7.647   0.309   6.045 -0.3551  1.0344  0.6366
  185MOL   H13937307   7.788   0.215   6.031  1.7981  0.8963 -0.7915
  185MOL   H14037308   7.724   0.417   6.247 -1.8981 -0.4450 -0.3715
  185MOL   H14137309   0.094   0.335   6.232  0.4641  1.7972 -0.7872
  185MOL   O14237310   7.728   0.208   6.282  0.0627 -0.0562  0.1937
  185MOL   C14337311   7.761   0.208   6.419 -0.3067  0.2080  0.2103
  185MOL   C14437312   7.734   0.077   6.477  0.1980  0.2562 -0.3428
  185MOL   C14537313   7.776   0.079   6.622  1.2157  0.2287 -0.6629
  185MOL   H14637314   7.712   0.296   6.461  1.1269  0.8237  0.6421
  185MOL   H14737315   0.081   0.219   6.431 -0.2527 -1.4322  1.4665
  185MOL   H14837316   7.628   0.060   6.456  0.3744 -0.6892 -0.4897
  185MOL   H14937317   7.788   7.785   6.427 -0.1962 -0.0173 -0.3294
  185MOL   H15037318   7.727   0.160   6.676  2.5360  1.2158 -0.9271
  185MOL   H15137319   0.093   0.106   6.618  0.5945  2.6781 -1.3698
  185MOL   O15237320   7.749   7.742   6.679 -0.0608 -0.1364  0.6211
  185MOL   C15337321   0.015   7.726   6.809  0.4248  0.5683 -0.1325
  185MOL   C15437322   7.781   7.579   6.862  0.5480 -0.6374 -0.3936
  185MOL   C15537323   0.071   7.544   6.990 -0.1477 -0.2328 -0.1685
  185MOL   H15637324   7.751   0.006   6.876  3.5132 -0.6175  3.6335
  185MOL   H15737325   0.121   7.750   6.802  0.2296  1.0834 -1.4468
  185MOL   H15837326   7.674   7.563   6.876 -0.0011  1.0856 -2.4766
  185MOL   H15937327   0.025   7.505   6.790 -0.2182  0.9094 -2.3668
  185MOL   H16037328   0.175   7.541   6.957 -0.1287  0.5885 -0.1873
  185MOL   H16137329   0.050   7.444   7.029  0.2284 -0.3501 -0.2631
  185MOL   O16237330   0.052   7.637   7.091  0.4002  0.7765  0.1575
  185MOL   C16337331   0.160   7.641   7.178  0.3288 -0.1608 -0.0953
  185MOL   C16437332   0.136   7.751   7.281 -0.0621  0.3511  0.1656
  185MOL   C16537333   0.182   0.094   7.213 -0.1596 -0.9797 -0.3862
  185MOL   H16637334   0.257   7.641   7.129  0.6903  0.6087  0.6053
  185MOL   H16737335   0.149   7.552   7.239  2.0721  0.1515  0.7303
  185MOL   H16837336   0.035   7.756   7.321 -0.5055  0.5793 -0.9457
  185MOL   H16937337   0.191   7.735   7.373 -0.3870 -0.1688  0.2701
  185MOL   H17037338   0.127   0.108   7.120 -1.3770 -2.3685  0.1107
  185MOL   H17137339   0.290   0.088   7.197 -0.0826  1.1273 -0.8020
  185MOL   O17237340   0.160   0.193   7.311  0.0548  0.6792  0.1464
  185MOL   C17337341   0.203   0.326   7.271  0.2837 -0.0043 -0.1049
  185MOL   C17437342   0.129   0.429   7.362 -0.1367  0.0210 -0.2404
  185MOL   C17537343   0.163   0.581   7.346 -0.1889 -0.3715  1.5205
  185MOL   H17637344   0.174   0.351   7.169 -4.3522  3.3713  1.8547
  185MOL   H17737345   0.311   0.332   7.280  0.3068 -2.6118  2.2442
  185MOL   H17837346   0.021   0.417   7.350 -0.1532  1.1009 -1.2292
  185MOL   H17937347   0.156   0.403   7.464  1.5555 -1.8362 -1.1298
  185MOL   H18037348   0.264   0.607   7.377 -0.0596  1.4754 -0.3201
  185MOL   H18137349   0.087   0.649   7.385 -0.7481  0.6494 -1.2216
  185MOL   O18237350   0.156   0.610   7.208 -0.0328  0.3710 -0.2657
  185MOL   C18337351   0.153   0.744   7.171 -0.0253 -0.2486  0.0487
  185MOL   C18437352   0.131   0.774   7.024 -1.3943  0.0848  0.2477
  185MOL   C18537353   0.163   0.914   6.978  0.2272  0.2609  0.7117
  185MOL   H18637354   0.253   0.778   7.196 -0.0593 -1.2248  1.5805
  185MOL   H18737355   0.078   0.801   7.225 -0.2353  0.5989 -1.1053
  185MOL   H18837356   0.180   0.710   6.950 -2.3370  1.3657 -1.5117
  185MOL   H18937357   0.026   0.755   7.004 -1.7942 -0.1975  2.4627
  185MOL   H19037358   0.266   0.943   7.000  0.0153  1.0215  0.7388
  185MOL   H19137359   0.110   0.994   7.031 -1.6143 -1.6669  1.8787
  185MOL   O19237360   0.166   0.929   6.833  0.0883 -0.4924 -0.0618
  185MOL   C19337361   0.062   1.023   6.792 -0.2242  0.5433 -0.4460
  185MOL   C19437362   0.038   1.014   6.640  0.0694  0.2316 -0.6066
  185MOL   C19537363   0.175   1.052   6.580 -0.3116 -0.6768 -0.1291
  185MOL   H19637364   0.087   1.127   6.813  1.6373  0.1948 -0.8808
  185MOL   H19737365   7.754   1.003   6.840  0.4490 -1.3270  0.2016
  185MOL   H19837366   0.010   0.913   6.611 -0.1935 -0.7733  2.9272
  185MOL   H19937367   7.743   1.077   6.608 -1.0987  0.2921  2.4420
  185MOL   H20037368   0.222   1.147   6.607  1.3141 -0.5000 -3.2849
  185MOL   H20137369   0.156   1.068   6.473  1.5274  1.0072 -0.2248
  185MOL   H20237370   0.249   0.973   6.587  2.3742  1.6726 -0.7899
  186MOL     O137371   6.699   3.208   6.767  0.2543 -0.0213  0.4487
  186MOL     C237372   6.816   3.123   6.761  0.9805  0.4443  0.6637
  186MOL     C337373   6.937   3.208   6.718 -0.0693 -0.2253 -0.4156
  186MOL     C437374   7.072   3.138   6.740 -0.2628  0.2713 -0.1282
  186MOL     H537375   6.795   3.054   6.679  2.0476  1.3714 -0.4004
  186MOL     H637376   6.831   3.067   6.853  1.0116  0.5940  0.7493
  186MOL     H737377   6.944   3.239   6.614 -0.8006  1.1716 -0.0736
  186MOL     H837378   6.944   3.298   6.780  0.0957 -0.0216 -0.7282
  186MOL     H937379   7.066   3.055   6.670 -0.1779 -0.6994  1.0063
  186MOL    H1037380   7.085   3.095   6.839  0.8594  3.0242  0.9665
  186MOL    H1137381   6.648   3.181   6.842  0.8556 -2.8242 -0.0879
  186MOL    O1237382   7.176   3.233   6.709  0.2759  0.3372  0.1811
  186MOL    C1337383   7.297   3.181   6.760 -0.3424  0.8497  0.1890
  186MOL    C1437384   7.410   3.282   6.766 -0.1751  0.5598  0.1322
  186MOL    C1537385   7.545   3.210   6.793 -0.2279  0.1358  0.2585
  186MOL    H1637386   7.313   3.092   6.700 -0.8060  0.1947  1.0335
  186MOL    H1737387   7.280   3.156   6.865  0.2209  2.9457  0.8201
  186MOL    H1837388   7.423   3.343   6.677  0.5506  1.8341  1.0957
  186MOL    H1937389   7.380   3.358   6.839  0.9632  0.2470  0.9349
  186MOL    H2037390   7.548   3.126   6.725 -0.1297  1.2571 -1.1522
  186MOL    H2137391   7.560   3.174   6.895 -2.5687  2.8178  1.6443
  186MOL    O2237392   7.660   3.281   6.746 -0.1309  0.1205 -0.4165
  186MOL    C2337393   7.699   3.408   6.812 -0.4545  0.1494  0.3044
  186MOL    C2437394   0.037   3.475   6.751 -1.1108 -0.1613  0.1357
  186MOL    C2537395   0.162   3.390   6.765  0.3998  0.3688 -0.7653
  186MOL    H2637396   7.726   3.393   6.917  0.8924  0.8759  0.0664
  186MOL    H2737397   7.616   3.478   6.802  0.8488  1.6244 -0.3027
  186MOL    H2837398   0.010   3.482   6.645 -0.3603 -0.1622 -0.0586
  186MOL    H2937399   0.040   3.574   6.797  1.7339 -0.4539  0.6591
  186MOL    H3037400   0.124   3.303   6.711 -0.9893 -0.4503  1.4720
  186MOL    H3137401   0.175   3.357   6.868 -0.9974 -2.5249 -1.4697
  186MOL    O3237402   0.276   3.440   6.708 -0.2637  0.2637  0.6584
  186MOL    C3337403   0.389   3.352   6.708 -0.0822 -0.1775 -0.1929
  186MOL    C3437404   0.398   3.283   6.570  0.3933  0.6984  0.1574
  186MOL    C3537405   0.518   3.186   6.559  1.0436  0.8079 -0.8538
  186MOL    H3637406   0.393   3.279   6.788 -0.4280  1.9009  1.7486
  186MOL    H3737407   0.477   3.416   6.718 -0.4108  0.1157  0.8462
  186MOL    H3837408   0.310   3.221   6.558  0.0686  0.7384  2.1718
  186MOL    H3937409   0.397   3.358   6.491  2.8703 -0.0485 -0.6435
  186MOL    H4037410   0.500   3.096   6.618 -1.2716  0.7990 -1.5354
  186MOL    H4137411   0.611   3.233   6.591 -0.0923  1.1892  2.0880
  186MOL    O4237412   0.537   3.139   6.429 -0.2248  0.4883 -0.2362
  186MOL    C4337413   0.601   3.230   6.345  0.3714 -0.0453  0.0030
  186MOL    C4437414   0.626   3.165   6.201  0.0057 -0.2449  0.1416
  186MOL    C4537415   0.762   3.089   6.201 -0.6645  0.0313 -0.7253
  186MOL    H4637416   0.692   3.268   6.393  0.4251 -0.8166  0.5218
  186MOL    H4737417   0.540   3.319   6.331 -1.5016 -1.1800  0.7304
  186MOL    H4837418   0.544   3.097   6.181 -0.3825 -0.4936  2.4604
  186MOL    H4937419   0.632   3.239   6.121  0.1355 -0.9172 -0.4773
  186MOL    H5037420   0.766   3.021   6.286 -0.4050  2.2442  1.0867
  186MOL    H5137421   0.842   3.162   6.211 -1.4460  0.8058  0.0202
  186MOL    O5237422   0.759   3.007   6.085 -0.1604  0.3950 -0.1540
  186MOL    C5337423   0.883   2.938   6.068  0.2064 -0.3333 -0.0991
  186MOL    C5437424   0.891   2.835   5.944  0.2155  0.3754 -0.3254
  186MOL    C5537425   0.879   2.903   5.807 -0.1109  0.6357 -0.0091
  186MOL    H5637426   0.897   2.879   6.159 -2.4452 -0.7371  0.0743
  186MOL    H5737427   0.967   3.007   6.062  1.8554 -2.0917  1.9677
  186MOL    H5837428   0.989   2.789   5.955  0.2420 -0.6017 -4.0807
  186MOL    H5937429   0.816   2.756   5.950 -0.4957  0.9634 -1.3043
  186MOL    H6037430   0.956   2.978   5.793 -2.2993  2.9673  0.0830
  186MOL    H6137431   0.787   2.960   5.796 -0.3921  0.4636  1.3552
  186MOL    O6237432   0.888   2.801   5.708 -0.5030 -0.8584 -0.1188
  186MOL    C6337433   0.885   2.853   5.573 -0.3443  0.5304  0.1487
  186MOL    C6437434   0.898   2.740   5.472 -0.4168  0.1391 -0.4106
  186MOL    C6537435   1.035   2.677   5.473 -0.2019  0.3600  0.7493
  186MOL    H6637436   0.972   2.919   5.568  0.4708 -0.6238 -1.8320
  186MOL    H6737437   0.800   2.918   5.553 -0.5157 -0.1685 -1.4617
  186MOL    H6837438   0.816   2.674   5.500  0.3672 -0.5254  0.3810
  186MOL    H6937439   0.885   2.785   5.373  1.3864 -1.0681 -1.2098
  186MOL    H7037440   1.038   2.602   5.394 -1.2302  1.3206 -0.2372
  186MOL    H7137441   1.072   2.646   5.570  0.3383  0.7648  0.6700
  186MOL    O7237442   1.129   2.770   5.418 -0.2652  0.1009 -0.0272
  186MOL    C7337443   1.265   2.729   5.430  0.6678 -0.1103 -0.3435
  186MOL    C7437444   1.359   2.830   5.371  0.1667 -0.5639  0.1788
  186MOL    C7537445   1.501   2.776   5.355 -0.0465 -0.2984 -0.4496
  186MOL    H7637446   1.272   2.634   5.377 -0.7214  0.1425 -0.9989
  186MOL    H7737447   1.296   2.703   5.531  3.4271  0.9615 -0.8498
  186MOL    H7837448   1.325   2.841   5.267 -1.2791  0.0796  0.6992
  186MOL    H7937449   1.366   2.929   5.416  0.3666  0.2742 -1.6192
  186MOL    H8037450   1.497   2.687   5.292  2.1539  0.2550 -1.4426
  186MOL    H8137451   1.549   2.750   5.449 -1.4449  2.8386  1.1819
  186MOL    O8237452   1.568   2.870   5.285 -0.3868 -0.4511  0.3617
  186MOL    C8337453   1.703   2.833   5.263  1.0538  0.2083  0.7234
  186MOL    C8437454   1.782   2.946   5.216 -0.7667 -0.7963 -0.1173
  186MOL    C8537455   1.934   2.919   5.238  0.0044  0.2168 -0.7553
  186MOL    H8637456   1.717   2.745   5.200  2.2993  0.1448  1.0856
  186MOL    H8737457   1.750   2.799   5.355 -0.9705 -2.1906  0.9327
  186MOL    H8837458   1.765   2.960   5.109  1.3857  0.8412 -0.2702
  186MOL    H8937459   1.753   3.038   5.267  1.3922 -0.8157  1.2027
  186MOL    H9037460   1.961   2.918   5.343  0.0767  0.9939 -0.7631
  186MOL    H9137461   1.985   3.007   5.198  1.3618 -0.0119  0.4376
  186MOL    O9237462   1.959   2.801   5.155 -0.2581 -0.1788 -0.0343
  186MOL    C9337463   2.099   2.774   5.145  0.7494 -0.8526  0.1882
  186MOL    C9437464   2.132   2.657   5.048 -0.3782  0.6796  0.2664
  186MOL    C9537465   2.083   2.669   4.907 -0.2830 -0.3294 -0.6022
  186MOL    H9637466   2.142   2.774   5.245 -0.5854 -1.6444  0.7700
  186MOL    H9737467   2.150   2.860   5.102  2.6332 -2.3859 -0.7278
  186MOL    H9837468   2.239   2.636   5.044 -0.9880 -2.7000 -0.2561
  186MOL    H9937469   2.103   2.560   5.088 -3.2355  1.9601  1.4353
  186MOL   H10037470   2.103   2.773   4.882  0.4903  0.0026  1.2822
  186MOL   H10137471   1.976   2.650   4.919 -1.2096  2.5566 -3.6221
  186MOL   O10237472   2.138   2.575   4.813 -0.1717 -0.0467  0.1459
  186MOL   C10337473   2.062   2.550   4.689 -0.5769  0.3843 -0.2239
  186MOL   C10437474   2.131   2.425   4.627  0.3383  0.5301 -0.1184
  186MOL   C10537475   2.053   2.373   4.505  0.9355 -0.6381 -0.5107
  186MOL   H10637476   2.072   2.641   4.630 -2.1947  0.0618 -1.0137
  186MOL   H10737477   1.961   2.523   4.720 -0.9040  0.8425 -0.8818
  186MOL   H10837478   2.233   2.449   4.597  0.4118 -1.7006 -1.8562
  186MOL   H10937479   2.146   2.349   4.704 -0.3374  0.6182  0.1027
  186MOL   H11037480   1.951   2.349   4.533  1.2329 -0.5159  0.7011
  186MOL   H11137481   2.101   2.282   4.468 -0.0411 -0.3554 -2.5724
  186MOL   O11237482   2.065   2.460   4.389  0.3713 -0.2193  0.5877
  186MOL   C11337483   1.942   2.532   4.369  0.0462 -0.2328 -0.6014
  186MOL   C11437484   1.945   2.625   4.245  0.0020 -0.0990 -0.0412
  186MOL   C11537485   1.807   2.678   4.208 -0.2035  0.0316 -0.1622
  186MOL   H11637486   1.923   2.582   4.464  0.0843 -0.6824 -0.3521
  186MOL   H11737487   1.852   2.470   4.360  0.7422 -0.8820 -3.5193
  186MOL   H11837488   2.013   2.708   4.262 -1.7097  1.2391  0.4045
  186MOL   H11937489   1.988   2.567   4.163  0.9145  0.6478 -0.0969
  186MOL   H12037490   1.746   2.590   4.185  0.8523 -0.3346 -1.6036
  186MOL   H12137491   1.808   2.743   4.121 -0.0079 -0.9801 -0.9208
  186MOL   O12237492   1.732   2.758   4.299 -0.4349 -0.0516  0.3333
  186MOL   C12337493   1.591   2.743   4.283  0.1665  0.4386  0.3210
  186MOL   C12437494   1.521   2.846   4.370 -0.4147  0.4114  0.3134
  186MOL   C12537495   1.370   2.845   4.381  0.6003  0.6152 -0.1138
  186MOL   H12637496   1.565   2.642   4.315 -1.5644  1.1376  1.1679
  186MOL   H12737497   1.550   2.765   4.184 -0.3997  0.7743  0.6273
  186MOL   H12837498   1.564   2.839   4.469 -0.6530  0.7961  0.4476
  186MOL   H12937499   1.557   2.940   4.328  1.9211 -1.7441 -2.7378
  186MOL   H13037500   1.351   2.782   4.467 -0.5238 -0.6886 -1.2955
  186MOL   H13137501   1.325   2.802   4.292 -0.4799 -4.1910  2.5887
  186MOL   O13237502   1.320   2.977   4.424  0.9944 -0.0135  0.4007
  186MOL   C13337503   1.181   2.959   4.443 -0.0288 -0.3366  0.1305
  186MOL   C13437504   1.136   3.091   4.491 -0.1280 -0.5877 -0.2882
  186MOL   C13537505   0.989   3.086   4.523  0.3494  0.4290 -0.2843
  186MOL   H13637506   1.168   2.887   4.523  0.3185  0.3696  0.8224
  186MOL   H13737507   1.129   2.914   4.358 -0.1260 -0.0733  0.0486
  186MOL   H13837508   1.198   3.130   4.572  0.3356 -1.8254 -0.0322
  186MOL   H13937509   1.148   3.158   4.407 -2.1563  0.0939 -0.0737
  186MOL   H14037510   0.946   3.005   4.582 -0.8869  1.6596  0.5339
  186MOL   H14137511   0.941   3.061   4.429  1.4998 -1.2646 -0.4402
  186MOL   O14237512   0.938   3.215   4.564 -0.9441  0.2351  0.1052
  186MOL   C14337513   0.952   3.254   4.698  0.5632 -0.0679  0.3287
  186MOL   C14437514   0.874   3.383   4.705  1.2298 -0.2985  0.2589
  186MOL   C14537515   0.923   3.497   4.613 -0.3222 -1.0608 -0.0757
  186MOL   H14637516   1.050   3.262   4.745  0.6650  0.2933  0.0678
  186MOL   H14737517   0.899   3.176   4.751 -0.5817 -2.8434 -4.5723
  186MOL   H14837518   0.773   3.352   4.680  1.0618 -0.0460  0.6135
  186MOL   H14937519   0.867   3.411   4.810  1.4658 -1.4848  0.5919
  186MOL   H15037520   0.898   3.484   4.507  0.9997 -0.0398 -0.5361
  186MOL   H15137521   1.031   3.506   4.612 -0.4803  1.0334 -1.2099
  186MOL   O15237522   0.857   3.611   4.668  0.3610  0.2042 -0.3465
  186MOL   C15337523   0.714   3.620   4.641  0.3375  0.1579 -0.4927
  186MOL   C15437524   0.660   3.751   4.704  0.7620 -0.6374 -0.0059
  186MOL   C15537525   0.522   3.786   4.650 -0.1053  0.1175  0.3485
  186MOL   H15637526   0.670   3.524   4.670 -0.6440  0.0849 -2.1541
  186MOL   H15737527   0.698   3.616   4.533  0.5831  2.2328 -0.6280
  186MOL   H15837528   0.659   3.765   4.812 -2.8244 -0.7098  0.0054
  186MOL   H15937529   0.722   3.836   4.675 -0.3382 -0.3579 -1.5861
  186MOL   H16037530   0.530   3.800   4.542  0.0980 -0.8410  0.2340
  186MOL   H16137531   0.502   3.885   4.689 -0.2794 -0.4179  1.6697
  186MOL   O16237532   0.435   3.687   4.701 -0.2633 -0.1144 -0.1165
  186MOL   C16337533   0.302   3.729   4.663  0.0162 -0.0713 -0.9617
  186MOL   C16437534   0.201   3.625   4.709 -0.3740  0.2180 -0.5801
  186MOL   C16537535   0.060   3.676   4.691  0.6115  0.2036 -0.2452
  186MOL   H16637536   0.278   3.746   4.558 -1.1624 -0.5951 -0.7859
  186MOL   H16737537   0.280   3.823   4.711  3.0976  0.2678 -0.0880
  186MOL   H16837538   0.205   3.527   4.663  0.8691 -1.1406  2.2362
  186MOL   H16937539   0.213   3.606   4.816 -0.2526  0.4316 -0.5533
  186MOL   H17037540   0.010   3.674   4.594 -1.8435  1.2454  0.9453
  186MOL   H17137541   0.061   3.777   4.734 -0.9423  0.4885 -0.8341
  186MOL   O17237542   7.763   3.595   4.771  0.0142 -0.6513 -0.2278
  186MOL   C17337543   7.649   3.676   4.815  0.3904 -0.5788 -0.5911
  186MOL   C17437544   7.541   3.595   4.901  0.1712 -0.9029 -0.6386
  186MOL   C17537545   7.435   3.696   4.955  0.2818 -0.2438  1.1767
  186MOL   H17637546   7.606   3.711   4.722  3.5241 -4.8251 -3.8213
  186MOL   H17737547   7.683   3.767   4.865 -1.4808 -0.3019  0.2089
  186MOL   H17837548   7.496   3.519   4.837  0.1003 -2.2846  1.0309
  186MOL   H17937549   7.575   3.549   4.993 -0.2929  1.4713  0.7581
  186MOL   H18037550   7.483   3.774   5.015  0.1917  0.4667  0.3464
  186MOL   H18137551   7.359   3.644   5.013  0.6144 -1.2087  0.7549
  186MOL   O18237552   7.376   3.762   4.836 -0.0175  0.6827  0.3674
  186MOL   C18337553   7.266   3.850   4.868  0.4700 -0.2305 -0.1908
  186MOL   C18437554   7.152   3.838   4.761 -0.0223 -0.0929 -0.1882
  186MOL   C18537555   7.028   3.920   4.798  0.0133 -0.3664  0.1209
  186MOL   H18637556   7.304   3.952   4.867 -1.3897  0.5221  1.6992
  186MOL   H18737557   7.221   3.831   4.966 -0.6577  2.8959 -0.0513
  186MOL   H18837558   7.179   3.892   4.670  0.1547  1.7577  0.9217
  186MOL   H18937559   7.125   3.741   4.721  1.4327 -0.1987 -0.9500
  186MOL   H19037560   7.065   4.019   4.825 -1.8497  0.3580  0.0487
  186MOL   H19137561   6.982   3.880   4.888 -1.1247  1.0842  0.1970
  186MOL   O19237562   6.938   3.931   4.684  0.8541  0.2217  0.1295
  186MOL   C19337563   6.819   4.009   4.724 -0.8244 -0.0592 -0.2516
  186MOL   C19437564   6.722   4.024   4.606  0.5262 -0.1784  0.6014
  186MOL   C19537565   6.592   4.093   4.649 -0.0887 -0.1444  0.3848
  186MOL   H19637566   6.856   4.100   4.773  0.1268 -0.7489  0.3478
  186MOL   H19737567   6.774   3.960   4.811 -1.1397  0.4695 -0.1143
  186MOL   H19837568   6.767   4.080   4.524 -0.6511 -1.7943 -1.1913
  186MOL   H19937569   6.699   3.928   4.559 -2.5231  0.5697  0.4636
  186MOL   H20037570   6.514   4.042   4.705 -0.5663 -2.2674 -2.1295
  186MOL   H20137571   6.540   4.131   4.561  1.1702 -0.1302 -0.3637
  186MOL   H20237572   6.620   4.178   4.712 -2.5569  0.5970  0.5446
  187MOL     O137573   2.320   0.300   3.069 -0.0064  0.2274 -0.2602
  187MOL     C237574   2.440   0.314   2.994  0.5128  0.2732  0.7035
  187MOL     C337575   2.475   0.188   2.926 -0.1851  0.5365 -0.4409
  187MOL     C437576   2.612   0.184   2.858  0.0737 -0.3818 -0.9988
  187MOL     H537577   2.513   0.352   3.066  1.8562  1.5002 -1.2325
  187MOL     H637578   2.421   0.391   2.918 -0.6087 -2.2638 -1.6642
  187MOL     H737579   2.484   0.114   3.005 -1.9008 -1.1866 -1.7908
  187MOL     H837580   2.395   0.162   2.856 -0.5587  0.5960 -0.0370
  187MOL     H937581   2.690   0.241   2.907 -1.1298  0.7473 -0.3798
  187MOL    H1037582   2.599   0.229   2.759 -0.9430  1.2762 -0.1186
  187MOL    H1137583   2.295   0.378   3.115  0.2340  1.7703 -2.6517
  187MOL    O1237584   2.646   0.047   2.858 -0.3469  0.2980  0.6049
  187MOL    C1337585   2.777   0.018   2.803 -0.2082  0.0332 -0.9873
  187MOL    C1437586   2.799   7.654   2.799  0.1014 -1.4878 -0.2434
  187MOL    C1537587   2.917   7.618   2.710 -0.3130  0.7181  0.0924
  187MOL    H1637588   2.859   0.062   2.859  1.3359 -0.2651 -2.9875
  187MOL    H1737589   2.789   0.056   2.702 -2.2257  0.8415 -0.9514
  187MOL    H1837590   2.815   7.607   2.896 -1.5579 -1.4592  0.0633
  187MOL    H1937591   2.710   7.595   2.773 -0.9029  0.0079 -0.2749
  187MOL    H2037592   3.012   7.632   2.762 -0.2093 -0.3710  0.2121
  187MOL    H2137593   2.914   7.674   2.616  1.3605 -1.8919 -1.6221
  187MOL    O2237594   2.907   7.488   2.666 -0.3189  0.0394  0.3060
  187MOL    C2337595   2.950   7.396   2.772 -0.3176  0.4681  0.3472
  187MOL    C2437596   2.973   7.250   2.727  0.9280  0.2604 -0.0852
  187MOL    C2537597   3.027   7.160   2.840  0.3847  0.0987  0.5545
  187MOL    H2637598   2.889   7.380   2.861 -0.1419  0.7100  0.5114
  187MOL    H2737599   3.049   7.419   2.809  0.2035 -0.1885 -0.6114
  187MOL    H2837600   2.876   7.218   2.688  0.8873  1.6867 -1.1818
  187MOL    H2937601   3.049   7.254   2.650  0.8431 -0.7492 -0.2242
  187MOL    H3037602   3.014   7.054   2.819 -0.5482  0.4745 -0.8859
  187MOL    H3137603   2.971   7.187   2.930 -0.1164  2.2794 -0.3922
  187MOL    O3237604   3.166   7.168   2.843  0.1055 -0.6684 -0.0617
  187MOL    C3337605   3.234   7.089   2.936  0.6185  0.2709 -0.4237
  187MOL    C3437606   3.376   7.144   2.940  0.3656 -0.3946  0.1764
  187MOL    C3537607   3.475   7.034   2.984  0.3380 -0.0739  1.0382
  187MOL    H3637608   3.242   6.984   2.906  0.4245 -0.4524  1.9203
  187MOL    H3737609   3.186   7.085   3.034  0.8884  1.7338 -0.2298
  187MOL    H3837610   3.399   7.182   2.841 -1.0577 -0.3720 -0.1601
  187MOL    H3937611   3.371   7.230   3.006  0.1440 -0.6858  0.5436
  187MOL    H4037612   3.443   6.945   2.929  1.6776  0.3828 -0.5355
  187MOL    H4137613   3.459   7.029   3.092  0.0063  0.4182  1.0152
  187MOL    O4237614   3.611   7.055   2.953  0.0253  0.2392 -0.4862
  187MOL    C4337615   3.679   7.145   3.031  0.1833  0.4012  0.4097
  187MOL    C4437616   3.827   7.131   3.011 -0.0994 -0.2953  0.0175
  187MOL    C4537617   3.909   7.215   3.112  0.1067 -0.1967 -0.1191
  187MOL    H4637618   3.665   7.125   3.137 -2.0195  1.4031  0.3301
  187MOL    H4737619   3.640   7.246   3.017 -1.4297 -0.3080 -0.3441
  187MOL    H4837620   3.855   7.026   3.014  1.5807  0.0814 -1.5455
  187MOL    H4937621   3.854   7.159   2.909  1.3399 -2.5946 -0.2751
  187MOL    H5037622   3.867   7.314   3.131  0.6483  0.3719 -1.7158
  187MOL    H5137623   4.012   7.217   3.076  0.1744 -1.1235  0.0178
  187MOL    O5237624   3.907   7.137   3.230 -0.0964 -0.5064 -0.2875
  187MOL    C5337625   4.007   7.181   3.326 -0.0407 -0.9466  0.3208
  187MOL    C5437626   3.982   7.079   3.447  0.1555 -0.9266  0.5970
  187MOL    C5537627   4.024   7.126   3.586 -0.1946  0.2559 -1.2316
  187MOL    H5637628   3.989   7.286   3.351  1.6242 -0.4341 -0.5773
  187MOL    H5737629   4.107   7.166   3.287 -0.5180  0.1473 -1.4033
  187MOL    H5837630   3.873   7.080   3.439  0.2805  0.3002 -1.2494
  187MOL    H5937631   4.030   6.985   3.420  1.7432  0.1188 -0.2827
  187MOL    H6037632   4.132   7.127   3.595 -0.2566  0.5763 -0.4708
  187MOL    H6137633   3.992   7.061   3.668 -1.7622  2.5046  0.0136
  187MOL    O6237634   3.988   7.261   3.610  0.0869 -0.5065 -0.3885
  187MOL    C6337635   3.949   7.304   3.734  0.2991  0.1210 -0.8801
  187MOL    C6437636   3.898   7.449   3.717  0.5316 -0.0809  0.4135
  187MOL    C6537637   3.997   7.544   3.644  0.3238  0.2003  0.0663
  187MOL    H6637638   4.033   7.298   3.803 -1.6638 -1.2850  1.4722
  187MOL    H6737639   3.871   7.236   3.769  0.4674  0.3817  0.0162
  187MOL    H6837640   3.810   7.446   3.652  0.6973  1.3609  0.0901
  187MOL    H6937641   3.875   7.490   3.816  1.6046 -0.5794  0.8661
  187MOL    H7037642   3.958   7.644   3.625 -0.6222  0.0676  1.2184
  187MOL    H7137643   4.028   7.503   3.549 -1.3500 -0.2354 -0.3138
  187MOL    O7237644   4.101   7.567   3.724 -0.7398 -0.3096 -0.4896
  187MOL    C7337645   4.188   7.661   3.677 -0.0549 -0.0903 -0.8874
  187MOL    C7437646   4.307   7.677   3.766  0.0198 -0.9210  0.7355
  187MOL    C7537647   4.410   7.781   3.714  0.1182 -0.1756 -0.0228
  187MOL    H7637648   4.135   7.755   3.659  0.5710 -0.0146 -2.4640
  187MOL    H7737649   4.222   7.643   3.575 -0.1956 -0.3550 -0.8869
  187MOL    H7837650   4.281   7.704   3.868  3.8251 -1.3417  1.9136
  187MOL    H7937651   4.355   7.580   3.756 -0.1463 -0.9746  0.4591
  187MOL    H8037652   4.374   0.094   3.698  0.5277  0.1226  0.8679
  187MOL    H8137653   4.447   7.749   3.617  0.6573 -1.1621  0.4928
  187MOL    O8237654   4.529   7.779   3.792  0.2536  0.7139 -0.0180
  187MOL    C8337655   4.516   0.051   3.916  0.4027 -0.1879 -0.6076
  187MOL    C8437656   4.643   0.097   3.987 -0.9442  0.4826 -0.0383
  187MOL    C8537657   4.693   0.235   3.945 -0.3582 -1.1182  0.2297
  187MOL    H8637658   4.460   7.771   3.979 -0.4192 -0.2790 -1.4317
  187MOL    H8737659   4.463   0.147   3.916  0.3184 -0.2158  0.9964
  187MOL    H8837660   4.627   0.099   4.095  2.8590  0.1727  0.5849
  187MOL    H8937661   4.728   0.030   3.981 -0.4660  0.9167  1.5744
  187MOL    H9037662   4.609   0.303   3.958  0.5421  0.7586 -3.3235
  187MOL    H9137663   4.723   0.241   3.841 -0.5654  0.2587  0.2403
  187MOL    O9237664   4.792   0.268   4.037  0.0659 -0.3017 -0.6646
  187MOL    C9337665   4.847   0.395   4.014 -0.3303  0.0559 -0.4169
  187MOL    C9437666   4.747   0.508   4.060 -0.1085 -0.3578 -0.1988
  187MOL    C9537667   4.721   0.497   4.211  0.2703 -0.5057  0.0280
  187MOL    H9637668   4.861   0.408   3.907 -1.8771  0.0949 -0.6347
  187MOL    H9737669   4.937   0.411   4.074 -1.1793  0.2634  0.8236
  187MOL    H9837670   4.799   0.604   4.060 -0.2893 -0.2209  2.0688
  187MOL    H9937671   4.653   0.517   4.006 -0.9074 -2.7142  0.7232
  187MOL   H10037672   4.812   0.500   4.271 -0.2690 -0.4577  0.8459
  187MOL   H10137673   4.669   0.405   4.234 -0.8986  0.3102  0.6899
  187MOL   O10237674   4.631   0.601   4.243  0.4559  0.1081  0.3928
  187MOL   C10337675   4.580   0.594   4.377 -0.9096 -0.6618  0.0183
  187MOL   C10437676   4.481   0.704   4.400 -0.3885  0.3381 -0.3019
  187MOL   C10537677   4.348   0.683   4.337  0.2642 -0.0096 -0.3086
  187MOL   H10637678   4.656   0.602   4.454 -0.5530  1.4336 -0.5289
  187MOL   H10737679   4.523   0.503   4.396 -3.5671  1.3954  2.1859
  187MOL   H10837680   4.457   0.709   4.506 -0.5269  0.9283 -0.3572
  187MOL   H10937681   4.526   0.800   4.375  1.1720  0.1501  1.6838
  187MOL   H11037682   4.306   0.584   4.354  0.3864  0.0785  0.5047
  187MOL   H11137683   4.347   0.688   4.228  0.8132  1.7490 -0.2504
  187MOL   O11237684   4.257   0.778   4.384 -0.2770  0.0323  0.0204
  187MOL   C11337685   4.122   0.756   4.358 -0.1032  0.4073  0.4865
  187MOL   C11437686   4.014   0.849   4.415  0.1923  0.2284  0.1771
  187MOL   C11537687   3.873   0.791   4.385 -0.4726  0.1550 -0.1734
  187MOL   H11637688   4.091   0.662   4.402 -1.1131  0.8774  0.8085
  187MOL   H11737689   4.108   0.750   4.250  0.8914 -2.3920  0.4877
  187MOL   H11837690   4.009   0.841   4.524  2.7162  0.9383  0.3885
  187MOL   H11937691   4.026   0.956   4.394 -0.5577  0.5878  1.5045
  187MOL   H12037692   3.863   0.694   4.433 -0.3288 -1.1147 -2.6104
  187MOL   H12137693   3.875   0.768   4.278  0.1764  0.1725 -0.1688
  187MOL   O12237694   3.768   0.870   4.424  1.2075  0.0319  0.5058
  187MOL   C12337695   3.652   0.834   4.348  0.5528 -0.5702 -0.0799
  187MOL   C12437696   3.545   0.946   4.358 -0.0261  0.4246 -0.1718
  187MOL   C12537697   3.425   0.927   4.269  0.2770 -0.1626 -0.5020
  187MOL   H12637698   3.627   0.731   4.373  0.2946 -0.3912  0.4056
  187MOL   H12737699   3.674   0.826   4.241 -2.5667  2.1204 -1.0073
  187MOL   H12837700   3.509   0.967   4.459 -0.7105  1.9104 -0.7038
  187MOL   H12937701   3.598   1.038   4.334 -0.2911  1.2127  2.1368
  187MOL   H13037702   3.358   1.012   4.281 -0.6469 -0.8005 -1.0888
  187MOL   H13137703   3.368   0.837   4.296 -0.5102 -0.3161 -2.6253
  187MOL   O13237704   3.472   0.938   4.138  0.0205 -0.7040 -0.4292
  187MOL   C13337705   3.373   0.893   4.045 -0.4886 -0.7041  0.7279
  187MOL   C13437706   3.441   0.840   3.912  0.2238 -0.0599  0.5272
  187MOL   C13537707   3.497   0.960   3.828 -0.2952  0.2465 -0.2076
  187MOL   H13637708   3.302   0.975   4.029  1.7870  0.7743 -2.4221
  187MOL   H13737709   3.320   0.808   4.087 -1.0394 -0.7528 -0.0384
  187MOL   H13837710   3.525   0.773   3.928 -0.0049 -0.5073 -0.1551
  187MOL   H13937711   3.367   0.788   3.852  0.8172  0.5704 -0.7601
  187MOL   H14037712   3.573   1.025   3.872 -0.4249  0.8773 -0.9136
  187MOL   H14137713   3.411   1.026   3.816  0.9416  1.8978 -0.1110
  187MOL   O14237714   3.543   0.910   3.708  0.6886 -0.2276  0.1969
  187MOL   C14337715   3.562   1.012   3.604  0.8886  0.0808 -0.4717
  187MOL   C14437716   3.580   0.950   3.475 -0.7889  0.4255 -0.1641
  187MOL   C14537717   3.595   1.050   3.362 -0.2681  0.1396  0.3492
  187MOL   H14637718   3.654   1.066   3.627 -0.6782  2.0362  1.3554
  187MOL   H14737719   3.475   1.076   3.616  0.0410 -1.0020 -0.7285
  187MOL   H14837720   3.671   0.890   3.477 -0.8892  0.0859 -3.0833
  187MOL   H14937721   3.500   0.878   3.453  1.5559 -2.4500  0.3658
  187MOL   H15037722   3.683   1.114   3.369  1.1898 -2.1280  4.0088
  187MOL   H15137723   3.511   1.119   3.362  1.1463  1.9002  0.8899
  187MOL   O15237724   3.598   0.973   3.237  0.7162  0.0234  0.4044
  187MOL   C15337725   3.713   0.905   3.203  0.2562  0.4359  0.5096
  187MOL   C15437726   3.686   0.800   3.107 -0.0248  0.3705  0.1070
  187MOL   C15537727   3.595   0.683   3.152 -0.5484  0.0217 -0.6683
  187MOL   H15637728   3.772   0.873   3.289 -1.7630  0.0300  1.7983
  187MOL   H15737729   3.781   0.982   3.166 -0.2471  1.2015  1.1408
  187MOL   H15837730   3.642   0.851   3.020 -0.6552 -1.8846 -0.9195
  187MOL   H15937731   3.784   0.757   3.086 -1.2076 -1.6136 -1.5997
  187MOL   H16037732   3.499   0.734   3.156 -0.6088 -0.1358 -0.1803
  187MOL   H16137733   3.631   0.647   3.248 -1.3439 -1.5439 -0.9423
  187MOL   O16237734   3.589   0.579   3.055 -0.5034 -0.0033 -0.1513
  187MOL   C16337735   3.535   0.462   3.115 -0.7469 -0.7080  0.1544
  187MOL   C16437736   3.489   0.361   3.009  0.7234 -0.6346 -0.4047
  187MOL   C16537737   3.430   0.241   3.082 -0.5769 -0.6602  0.1926
  187MOL   H16637738   3.454   0.478   3.186 -2.7037  0.5233 -2.2692
  187MOL   H16737739   3.612   0.413   3.176  2.7312  2.6739 -1.3155
  187MOL   H16837740   3.406   0.410   2.958  0.9216 -0.7712 -0.8588
  187MOL   H16937741   3.575   0.347   2.945  1.0507  0.8926 -0.3256
  187MOL   H17037742   3.353   0.264   3.155 -0.8872  0.1644 -0.3835
  187MOL   H17137743   3.502   0.181   3.139  1.3809  2.3778  1.0133
  187MOL   O17237744   3.397   0.155   2.967  0.3263 -0.6248 -0.4271
  187MOL   C17337745   3.343   0.030   3.007  0.0493 -0.1514 -0.3347
  187MOL   C17437746   3.290   7.740   2.891  0.2355  0.0343 -0.6033
  187MOL   C17537747   3.248   7.597   2.936  0.4536 -0.1962  0.8870
  187MOL   H17637748   3.271   0.037   3.089  0.8913  0.8125  0.3337
  187MOL   H17737749   3.435   7.762   3.025  0.3463  0.1019 -1.0392
  187MOL   H17837750   3.194   7.772   2.848 -0.7590 -2.5145 -0.3167
  187MOL   H17937751   3.365   7.737   2.812  2.2591  3.9767  0.9863
  187MOL   H18037752   3.325   7.539   2.987  0.2685 -1.2338  0.0076
  187MOL   H18137753   3.234   7.534   2.848  1.2826  1.4621 -0.4765
  187MOL   O18237754   3.121   7.596   3.010 -0.0626 -0.5307 -0.5609
  187MOL   C18337755   3.127   7.475   3.096  0.1710 -0.2442 -0.0297
  187MOL   C18437756   3.018   7.505   3.203 -0.3449  0.1509  0.3607
  187MOL   C18537757   2.993   7.374   3.287  0.6263 -0.8333 -0.8683
  187MOL   H18637758   3.218   7.454   3.152  0.6793 -2.2049 -1.5251
  187MOL   H18737759   3.103   7.392   3.029  0.3675 -1.1923  1.0718
  187MOL   H18837760   3.046   7.592   3.262 -0.0911 -0.1493  0.6813
  187MOL   H18937761   2.936   7.539   3.141 -1.0918 -1.6554  0.3127
  187MOL   H19037762   3.074   7.366   3.361 -0.1959  1.5591  0.3407
  187MOL   H19137763   2.993   7.287   3.222 -0.2783 -1.9468  0.5952
  187MOL   O19237764   2.875   7.389   3.365  0.1586 -0.7693  0.2905
  187MOL   C19337765   2.868   7.304   3.482  0.8387 -0.1086 -0.1606
  187MOL   C19437766   2.727   7.311   3.538  0.0602 -0.5228 -0.0327
  187MOL   C19537767   2.708   7.213   3.650  0.3469 -0.1896  0.0567
  187MOL   H19637768   2.942   7.344   3.551 -0.3620  1.6424  0.1251
  187MOL   H19737769   2.900   7.201   3.461 -1.4291 -0.6149 -1.2166
  187MOL   H19837770   2.693   7.410   3.566  2.2290  0.1731  0.1943
  187MOL   H19937771   2.657   7.296   3.455  0.2290 -1.4024 -0.0284
  187MOL   H20037772   2.599   7.207   3.659  0.4161 -0.1724  0.9711
  187MOL   H20137773   2.748   7.255   3.742  0.4697 -1.0672  0.4013
  187MOL   H20237774   2.759   7.118   3.636  0.1198 -0.1836 -0.8953
  188MOL     O137775   3.056   2.182   4.276  0.1680  0.0892  0.9775
  188MOL     C237776   3.192   2.205   4.293 -0.3154  0.3494  0.3886
  188MOL     C337777   3.224   2.216   4.446 -0.5981  0.4178  0.3557
  188MOL     C437778   3.379   2.232   4.456 -0.2066  0.2506  0.8010
  188MOL     H537779   3.215   2.301   4.248  0.5574 -1.0426 -2.2499
  188MOL     H637780   3.251   2.125   4.248 -0.9733  0.1734 -0.1741
  188MOL     H737781   3.169   2.302   4.483 -2.0633 -0.1700 -0.4189
  188MOL     H837782   3.186   2.138   4.511 -0.2071  1.2343  1.5940
  188MOL     H937783   3.424   2.323   4.415  0.7663 -0.9012 -0.7667
  188MOL    H1037784   3.428   2.147   4.408  0.6673  1.0570  0.2501
  188MOL    H1137785   3.012   2.265   4.289  0.8578  1.1314 -2.8356
  188MOL    O1237786   3.411   2.235   4.595  0.0626  0.7174  0.4269
  188MOL    C1337787   3.536   2.290   4.631  0.4364  0.4780  0.1815
  188MOL    C1437788   3.529   2.291   4.783  0.9293  0.2647 -0.3790
  188MOL    C1537789   3.607   2.400   4.856 -0.2336  0.1073 -0.5171
  188MOL    H1637790   3.557   2.383   4.579 -0.7977  1.3663  1.2279
  188MOL    H1737791   3.614   2.221   4.600  0.3655  0.2177  0.5748
  188MOL    H1837792   3.423   2.297   4.809  0.8493  0.9157 -0.8755
  188MOL    H1937793   3.553   2.189   4.814 -4.0043 -0.7679  0.5671
  188MOL    H2037794   3.595   2.406   4.964  0.4766 -0.4134 -0.3969
  188MOL    H2137795   3.557   2.491   4.825  0.5461  1.4901  2.1241
  188MOL    O2237796   3.746   2.397   4.817 -0.3669  0.4399  0.2214
  188MOL    C2337797   3.819   2.297   4.886 -0.2409 -0.4083 -0.3128
  188MOL    C2437798   3.969   2.320   4.867 -0.4619 -0.2888 -0.3399
  188MOL    C2537799   4.055   2.228   4.951 -0.2152 -0.0205 -0.4144
  188MOL    H2637800   3.792   2.200   4.843 -1.7298  0.4976 -1.4503
  188MOL    H2737801   3.793   2.296   4.992  1.6693 -1.7773  0.1825
  188MOL    H2837802   3.976   2.295   4.761  1.1476  1.3679 -0.6467
  188MOL    H2937803   4.002   2.423   4.878 -0.8095 -0.1437 -0.6309
  188MOL    H3037804   4.025   2.125   4.929 -2.5397 -0.1148  2.7749
  188MOL    H3137805   4.042   2.247   5.057  1.6857  2.6898 -0.6368
  188MOL    O3237806   4.192   2.244   4.926  0.7080  0.2861  1.1171
  188MOL    C3337807   4.263   2.119   4.951 -0.7307  0.2013  0.2357
  188MOL    C3437808   4.410   2.159   4.929 -0.7828  0.2353  0.1779
  188MOL    C3537809   4.496   2.038   4.877 -0.3918 -0.2470 -0.8293
  188MOL    H3637810   4.226   2.043   4.882 -0.0591 -0.6090  0.7688
  188MOL    H3737811   4.245   2.089   5.054  0.5626 -0.0688  0.3848
  188MOL    H3837812   4.415   2.239   4.855  1.4740  2.0713  2.2119
  188MOL    H3937813   4.457   2.207   5.015  0.6189 -0.9384  0.0818
  188MOL    H4037814   4.456   2.009   4.780 -1.1279 -1.2199 -0.2474
  188MOL    H4137815   4.491   1.957   4.950 -0.5177  2.0378  1.7870
  188MOL    O4237816   4.628   2.087   4.861 -0.3898  0.5487  0.6519
  188MOL    C4337817   4.710   1.999   4.793 -0.1689 -0.0127 -0.3445
  188MOL    C4437818   4.855   2.039   4.790 -0.5473 -0.5712  0.1034
  188MOL    C4537819   4.887   2.173   4.728 -0.1126 -0.4303 -0.0190
  188MOL    H4637820   4.661   1.989   4.696 -4.1330  1.9458  1.3479
  188MOL    H4737821   4.703   1.902   4.842 -2.4927  0.5888  0.5911
  188MOL    H4837822   4.895   2.027   4.891  1.1516  0.0917 -0.4711
  188MOL    H4937823   4.914   1.968   4.733 -0.0060 -0.7778  0.9057
  188MOL    H5037824   4.809   2.235   4.772 -1.3345 -0.7279 -1.7122
  188MOL    H5137825   4.869   2.182   4.621 -1.5730 -2.4884  0.0210
  188MOL    O5237826   5.018   2.207   4.753 -0.0137 -0.0760  0.5629
  188MOL    C5337827   5.048   2.335   4.709 -0.8589 -0.2904  0.0427
  188MOL    C5437828   5.204   2.360   4.752  0.8850 -0.5536  0.2540
  188MOL    C5537829   5.241   2.358   4.897  0.1463 -0.0736 -0.7089
  188MOL    H5637830   4.992   2.419   4.751  0.8873  1.0523 -0.2434
  188MOL    H5737831   5.042   2.331   4.600 -1.9304  1.2880  0.0148
  188MOL    H5837832   5.267   2.283   4.706 -0.8815 -0.3115 -2.7053
  188MOL    H5937833   5.239   2.457   4.716 -1.6553  0.7644  1.2554
  188MOL    H6037834   5.350   2.363   4.904  0.0774  0.6764 -0.0893
  188MOL    H6137835   5.203   2.263   4.935 -0.6179  0.7264  0.5461
  188MOL    O6237836   5.189   2.473   4.957 -0.3936 -0.3927  0.5264
  188MOL    C6337837   5.230   2.492   5.093 -0.0860  0.2775  0.4096
  188MOL    C6437838   5.166   2.612   5.156  0.2505 -0.4820 -0.1535
  188MOL    C6537839   5.207   2.639   5.300 -0.7218 -0.0346 -0.2595
  188MOL    H6637840   5.338   2.499   5.110 -0.3949  2.5009  1.7068
  188MOL    H6737841   5.186   2.407   5.146  1.0315 -1.3175 -1.1756
  188MOL    H6837842   5.210   2.696   5.103  2.4639 -1.2381  0.4642
  188MOL    H6937843   5.058   2.615   5.140  0.5892  2.9430 -2.2862
  188MOL    H7037844   5.164   2.569   5.371 -0.8111  1.5841  1.3264
  188MOL    H7137845   5.168   2.734   5.336 -0.8675 -0.8063  1.6723
  188MOL    O7237846   5.354   2.648   5.308  0.1881 -0.3656 -0.3572
  188MOL    C7337847   5.409   2.710   5.425 -0.4692 -0.2161  0.1928
  188MOL    C7437848   5.567   2.711   5.410  0.6397  0.3076 -0.3406
  188MOL    C7537849   5.639   2.770   5.533  0.0327  0.5331  0.4786
  188MOL    H7637850   5.383   2.644   5.508  0.1488  0.3389  0.8315
  188MOL    H7737851   5.370   2.811   5.437 -0.4557 -0.3084  1.0315
  188MOL    H7837852   5.608   2.610   5.401  1.6250  0.5285  1.3067
  188MOL    H7937853   5.593   2.776   5.327 -1.6428  0.8984 -0.6137
  188MOL    H8037854   5.628   2.878   5.524  2.4614  0.8069  0.5989
  188MOL    H8137855   5.748   2.766   5.534  0.0273  0.3743  0.2962
  188MOL    O8237856   5.581   2.745   5.652  0.1560 -0.4257 -0.6565
  188MOL    C8337857   5.640   2.640   5.717 -0.0027 -0.2156 -0.0608
  188MOL    C8437858   5.562   2.614   5.849 -0.0107  0.1290  1.1509
  188MOL    C8537859   5.634   2.508   5.938  0.5716 -0.0064  0.0708
  188MOL    H8637860   5.736   2.682   5.748 -0.9409  0.3418  2.0993
  188MOL    H8737861   5.638   2.554   5.649 -0.5205 -1.0153  0.9577
  188MOL    H8837862   5.548   2.704   5.910  3.1458  1.1918  0.4287
  188MOL    H8937863   5.467   2.572   5.816  0.1589  0.1686  0.6063
  188MOL    H9037864   5.732   2.539   5.975  0.2985  2.9658 -1.4967
  188MOL    H9137865   5.654   2.415   5.885 -1.5586 -0.3210 -0.2121
  188MOL    O9237866   5.557   2.485   6.054  0.5629  0.0837  0.1175
  188MOL    C9337867   5.602   2.378   6.125  0.2885  0.0421 -0.6496
  188MOL    C9437868   5.528   2.389   6.261 -0.3561  1.6533  0.1516
  188MOL    C9537869   5.381   2.341   6.252  0.4833  0.5959  0.6405
  188MOL    H9637870   5.709   2.387   6.146  0.6383 -3.1630 -0.7868
  188MOL    H9737871   5.573   2.284   6.078 -1.7570  0.8159 -0.9531
  188MOL    H9837872   5.585   2.320   6.323 -1.1942  0.8896  0.0680
  188MOL    H9937873   5.545   2.483   6.313 -0.5094  0.1134  3.0562
  188MOL   H10037874   5.372   2.241   6.210 -2.8143  1.3818 -0.6425
  188MOL   H10137875   5.331   2.414   6.189 -1.1925 -0.2885  0.9292
  188MOL   O10237876   5.325   2.359   6.384 -0.5693 -0.0927  0.1605
  188MOL   C10337877   5.190   2.344   6.394 -0.8050  0.0269  0.5835
  188MOL   C10437878   5.128   2.436   6.502 -0.5869 -0.3719 -0.1224
  188MOL   C10537879   4.978   2.413   6.528  0.3121 -0.6045  0.0145
  188MOL   H10637880   5.161   2.241   6.415 -0.4830 -0.6323 -1.9825
  188MOL   H10737881   5.147   2.368   6.296  0.0520  1.9085  0.6513
  188MOL   H10837882   5.183   2.415   6.594 -3.3112  0.7076  1.8374
  188MOL   H10937883   5.136   2.541   6.474  0.0982 -0.0801  1.1460
  188MOL   H11037884   4.953   2.307   6.541 -3.3382  0.2104  0.2596
  188MOL   H11137885   4.930   2.442   6.434  1.3489  1.1828  0.0303
  188MOL   O11237886   4.935   2.495   6.640 -0.1070 -0.0391  0.1127
  188MOL   C11337887   4.794   2.505   6.630  0.3225 -0.5411 -0.0704
  188MOL   C11437888   4.754   2.607   6.744  0.1832 -0.2185  0.4075
  188MOL   C11537889   4.609   2.657   6.748 -0.4160  0.7321 -0.1811
  188MOL   H11637890   4.748   2.406   6.635 -0.7859 -0.1973 -2.6018
  188MOL   H11737891   4.757   2.548   6.536  0.3162  1.8596  0.9928
  188MOL   H11837892   4.753   2.550   6.836  0.4967 -1.1839 -0.1749
  188MOL   H11937893   4.829   2.686   6.741 -0.8554  0.7649 -0.5363
  188MOL   H12037894   4.542   2.572   6.735 -0.0500  0.7160 -2.1497
  188MOL   H12137895   4.591   2.726   6.665  2.1341  0.5170 -0.9660
  188MOL   O12237896   4.574   2.729   6.870 -0.1618  0.7142  0.2179
  188MOL   C12337897   4.432   2.713   6.903  0.1053  0.2124  0.1961
  188MOL   C12437898   4.332   2.793   6.817  0.1562 -0.0642  0.5993
  188MOL   C12537899   4.183   2.759   6.842 -0.8804 -1.0978 -0.2563
  188MOL   H12637900   4.421   2.759   7.001 -1.5542  0.4089 -0.0700
  188MOL   H12737901   4.398   2.609   6.896  1.5144 -0.2930  0.7024
  188MOL   H12837902   4.353   2.899   6.829  1.7464 -0.2500 -0.3609
  188MOL   H12937903   4.362   2.771   6.715  2.3779  0.3057  1.1591
  188MOL   H13037904   4.123   2.844   6.809 -1.4830 -1.7895 -0.9641
  188MOL   H13137905   4.169   2.747   6.949  0.2715 -1.0643 -0.0962
  188MOL   O13237906   4.136   2.646   6.775 -0.6131 -0.0791 -0.6986
  188MOL   C13337907   3.992   2.630   6.783  0.2181 -0.5947 -0.1099
  188MOL   C13437908   3.956   2.515   6.687  0.5646 -0.3345 -0.7868
  188MOL   C13537909   3.809   2.460   6.677 -0.4657  0.4294  0.5244
  188MOL   H13637910   3.940   2.721   6.752  1.6686  0.5117  0.6531
  188MOL   H13737911   3.976   2.611   6.890 -2.3467  0.2431 -0.3051
  188MOL   H13837912   3.983   2.532   6.583  1.0075 -2.3054 -1.0137
  188MOL   H13937913   4.021   2.433   6.716  0.0804 -0.5639 -0.3490
  188MOL   H14037914   3.764   2.444   6.775 -0.0007 -1.3106  0.4733
  188MOL   H14137915   3.801   2.366   6.622 -1.1368 -0.3134  1.8864
  188MOL   O14237916   3.736   2.561   6.614 -0.4123 -0.3474  0.2876
  188MOL   C14337917   3.660   2.525   6.500 -0.2869 -0.4297 -0.1155
  188MOL   C14437918   3.584   2.650   6.450  0.0659 -0.1249 -0.5783
  188MOL   C14537919   3.681   2.757   6.397 -0.2979 -0.0019  1.0925
  188MOL   H14637920   3.585   2.457   6.542 -0.3181 -0.7777 -0.7273
  188MOL   H14737921   3.719   2.475   6.423  2.8151  0.5472  1.5429
  188MOL   H14837922   3.516   2.624   6.369 -0.2537 -1.3217  0.0686
  188MOL   H14937923   3.527   2.705   6.525  0.0907  0.6398 -1.1190
  188MOL   H15037924   3.717   2.714   6.304  1.0529  0.7205  1.2660
  188MOL   H15137925   3.772   2.769   6.455  3.2939  0.0239 -4.2529
  188MOL   O15237926   3.620   2.879   6.363 -0.4968  0.4193 -0.7865
  188MOL   C15337927   3.680   2.950   6.255 -0.1383 -0.4682  0.3639
  188MOL   C15437928   3.624   2.887   6.120 -0.1655  0.1472  0.5989
  188MOL   C15537929   3.469   2.916   6.107 -0.1159  0.0767  0.0301
  188MOL   H15637930   3.786   2.924   6.251 -0.5778 -2.7391  2.0446
  188MOL   H15737931   3.657   3.056   6.262 -0.1188 -0.3945 -0.6243
  188MOL   H15837932   3.684   2.916   6.034 -0.6490  0.8430  0.5003
  188MOL   H15937933   3.629   2.778   6.121  2.9994  0.1237 -3.1439
  188MOL   H16037934   3.443   2.999   6.172  2.9146  0.5702  0.6624
  188MOL   H16137935   3.407   2.832   6.139 -0.0252 -0.4464 -1.1271
  188MOL   O16237936   3.445   2.958   5.973  0.2499  0.1511 -0.1180
  188MOL   C16337937   3.334   3.039   5.949  0.1572 -0.0430  0.2805
  188MOL   C16437938   3.336   3.076   5.807 -0.4994 -0.4841  0.7977
  188MOL   C16537939   3.216   3.165   5.771  0.0347 -0.4344  0.5769
  188MOL   H16637940   3.342   3.136   5.998 -2.6587  0.1533  0.4714
  188MOL   H16737941   3.240   2.995   5.982 -1.0017  1.3446 -1.1189
  188MOL   H16837942   3.428   3.128   5.782 -0.3310 -0.3400  1.7106
  188MOL   H16937943   3.344   2.984   5.750  2.1669 -0.4727  1.1024
  188MOL   H17037944   3.219   3.192   5.666  1.1989  0.9801  0.9445
  188MOL   H17137945   3.213   3.255   5.833  2.5767  1.1198 -1.4760
  188MOL   O17237946   3.106   3.083   5.795 -0.5007  0.1953 -0.6464
  188MOL   C17337947   2.988   3.136   5.734  0.4273  0.2888 -0.5137
  188MOL   C17437948   2.855   3.069   5.775  0.1144  0.0848 -0.3185
  188MOL   C17537949   2.728   3.133   5.716 -0.6508 -0.0399  0.0808
  188MOL   H17637950   2.995   3.108   5.629 -2.2831 -1.3182 -0.3235
  188MOL   H17737951   2.973   3.243   5.749 -1.2101  0.0696 -0.4062
  188MOL   H17837952   2.871   2.965   5.748 -0.7901 -0.8471  2.5258
  188MOL   H17937953   2.846   3.072   5.884  0.3238 -0.1312 -0.2926
  188MOL   H18037954   2.646   3.063   5.728 -0.7441 -0.0057 -0.3464
  188MOL   H18137955   2.745   3.150   5.610  1.4741 -0.3259  0.3381
  188MOL   O18237956   2.711   3.257   5.776 -0.9948  0.2989 -0.7843
  188MOL   C18337957   2.598   3.331   5.739 -0.3188 -0.1517  0.0491
  188MOL   C18437958   2.594   3.452   5.834 -0.5251  0.2971 -1.1492
  188MOL   C18537959   2.457   3.520   5.841  0.7597  0.5317 -0.4463
  188MOL   H18637960   2.512   3.264   5.746 -1.0014  0.4923 -1.8989
  188MOL   H18737961   2.608   3.355   5.633  1.0762  2.2878  0.6882
  188MOL   H18837962   2.615   3.428   5.938 -0.2032  3.3877 -0.4509
  188MOL   H18937963   2.668   3.524   5.800  1.9498 -0.4389  2.3747
  188MOL   H19037964   2.396   3.441   5.884  2.6780 -1.0945 -0.5886
  188MOL   H19137965   2.423   3.544   5.740  0.8485  1.9576 -0.1399
  188MOL   O19237966   2.473   3.627   5.931 -0.1614 -0.0095  0.1121
  188MOL   C19337967   2.362   3.711   5.941 -0.3092 -0.0374 -0.6591
  188MOL   C19437968   2.392   3.824   6.045  0.0481  0.3316 -0.1458
  188MOL   C19537969   2.411   3.777   6.191 -0.6494  1.0099 -0.3059
  188MOL   H19637970   2.270   3.661   5.970 -0.5506  0.8212  0.0574
  188MOL   H19737971   2.343   3.748   5.840  0.0297  1.3976 -0.2074
  188MOL   H19837972   2.483   3.871   6.008  1.1278 -1.6058 -0.0296
  188MOL   H19937973   2.313   3.898   6.054 -0.0546  0.2759 -0.5824
  188MOL   H20037974   2.469   3.685   6.190  1.1155  2.0303  2.3748
  188MOL   H20137975   2.320   3.743   6.240  0.9124 -0.6358  1.5082
  188MOL   H20237976   2.463   3.850   6.253 -1.3944  1.4693 -0.2150
  189MOL     O137977   6.738   0.828   0.576  0.6604  0.0610  0.1361
  189MOL     C237978   6.785   0.918   0.678  0.6291 -0.0388  0.8038
  189MOL     C337979   6.863   1.036   0.618 -0.4058  0.1128 -0.1558
  189MOL     C437980   6.888   1.142   0.725  0.0786  0.5237 -0.5213
  189MOL     H537981   6.848   0.855   0.740  1.1947  1.0845  1.3962
  189MOL     H637982   6.699   0.950   0.737  1.6524  0.2205  2.1743
  189MOL     H737983   6.964   1.012   0.584 -0.7684 -2.3985  0.4480
  189MOL     H837984   6.803   1.078   0.537 -1.9217 -0.8440  0.4523
  189MOL     H937985   6.801   1.155   0.789  0.3556 -1.4092  0.2674
  189MOL    H1037986   6.911   1.243   0.691 -6.0523  1.7928 -1.4236
  189MOL    H1137987   6.697   0.753   0.618 -0.5043  0.7570  0.2814
  189MOL    O1237988   6.998   1.105   0.806  0.4867 -0.0463  0.1296
  189MOL    C1337989   7.027   1.203   0.896  0.2809  0.5390 -0.4880
  189MOL    C1437990   6.971   1.172   1.033 -0.5260 -0.4719 -1.0409
  189MOL    C1537991   6.966   1.284   1.133  0.2866 -0.1630 -0.5464
  189MOL    H1637992   6.997   1.303   0.863  0.7243  0.6474 -0.5732
  189MOL    H1737993   7.136   1.204   0.903  0.3025  1.8060 -0.9491
  189MOL    H1837994   6.870   1.132   1.045  0.0738 -0.9817  3.2589
  189MOL    H1937995   7.039   1.102   1.082 -0.6081 -0.2550 -0.6173
  189MOL    H2037996   6.901   1.252   1.215  2.5111  3.1495  2.7186
  189MOL    H2137997   6.923   1.371   1.083  2.0420  0.1712 -1.4955
  189MOL    O2237998   7.101   1.313   1.174  0.2923 -0.2426 -0.1321
  189MOL    C2337999   7.114   1.410   1.278 -0.2594  0.9773  0.0763
  189MOL    C2438000   7.126   1.545   1.203 -0.1437 -0.2493  0.5689
  189MOL    C2538001   7.146   1.673   1.298 -0.0444  0.5417 -0.0831
  189MOL    H2638002   7.205   1.391   1.334  0.5714 -2.7602 -2.3432
  189MOL    H2738003   7.033   1.395   1.349  0.9854 -2.8765  0.7529
  189MOL    H2838004   7.205   1.536   1.128 -0.7631 -0.5754 -0.0473
  189MOL    H2938005   7.033   1.548   1.147  1.2571  0.7377 -1.8117
  189MOL    H3038006   7.245   1.678   1.342 -0.5517  3.1051  0.8365
  189MOL    H3138007   7.071   1.663   1.377 -1.7820 -0.3924 -1.8034
  189MOL    O3238008   7.130   1.799   1.225  0.5954  0.4930 -0.6076
  189MOL    C3338009   7.132   1.912   1.322 -0.4354 -1.4069 -0.2384
  189MOL    C3438010   7.110   2.035   1.239 -1.1638  0.3677 -1.0067
  189MOL    C3538011   7.128   2.164   1.318 -0.0875 -0.3695 -0.0665
  189MOL    H3638012   7.231   1.913   1.367  0.1699  0.3303 -1.5549
  189MOL    H3738013   7.056   1.892   1.397 -1.3259 -0.9563 -1.0064
  189MOL    H3838014   7.186   2.030   1.161  0.1338  1.0154  0.1883
  189MOL    H3938015   7.013   2.044   1.189  0.0412  1.4994 -3.2280
  189MOL    H4038016   7.232   2.167   1.349 -0.4704 -0.1168  1.2082
  189MOL    H4138017   7.076   2.161   1.414 -1.9748  1.7784 -0.9570
  189MOL    O4238018   7.100   2.278   1.238 -0.4077  0.0847  0.1621
  189MOL    C4338019   6.960   2.313   1.224  0.2159 -0.1273  0.6031
  189MOL    C4438020   6.943   2.434   1.127 -0.9637 -0.4389 -0.1233
  189MOL    C4538021   6.802   2.482   1.114  0.1430 -0.0350 -0.0600
  189MOL    H4638022   6.923   2.324   1.326  1.0903  0.0563  0.9007
  189MOL    H4738023   6.901   2.225   1.196 -1.5908  0.5082  2.2933
  189MOL    H4838024   7.015   2.513   1.150 -0.9233 -0.7669  0.8860
  189MOL    H4938025   6.987   2.395   1.035 -1.1878 -2.9997  0.8167
  189MOL    H5038026   6.770   2.524   1.209  3.3327  1.9863  0.2166
  189MOL    H5138027   6.738   2.394   1.103  0.7769 -0.3351 -1.5750
  189MOL    O5238028   6.788   2.553   0.988 -0.2863  0.3308  0.1763
  189MOL    C5338029   6.776   2.695   1.023 -0.2692  0.4942 -0.7069
  189MOL    C5438030   6.745   2.791   0.907  0.3175 -0.2621  0.3392
  189MOL    C5538031   6.858   2.793   0.802  0.0420 -0.6315 -0.6169
  189MOL    H5638032   6.871   2.724   1.066 -0.6348  0.3807  0.1736
  189MOL    H5738033   6.707   2.714   1.105  1.3520  2.3899  0.2385
  189MOL    H5838034   6.650   2.765   0.861  0.7045 -0.6977 -0.2287
  189MOL    H5938035   6.735   2.893   0.945 -1.1556 -0.8317  1.5464
  189MOL    H6038036   6.861   2.695   0.754 -0.6515 -0.1886 -1.5830
  189MOL    H6138037   6.953   2.819   0.848 -1.9703  1.3149  2.6674
  189MOL    O6238038   6.822   2.899   0.717 -0.6102  0.0468 -0.9356
  189MOL    C6338039   6.922   2.926   0.625 -0.0672 -0.1604 -0.7707
  189MOL    C6438040   6.869   3.002   0.504 -0.0117  0.0428  0.1768
  189MOL    C6538041   6.777   2.917   0.409 -0.6793  0.0202 -0.5512
  189MOL    H6638042   6.967   2.831   0.596 -0.3956 -0.9398  1.2556
  189MOL    H6738043   6.979   2.992   0.690 -1.8697 -0.9594  1.6709
  189MOL    H6838044   6.811   3.091   0.531 -0.5368  1.0153 -3.7552
  189MOL    H6938045   6.948   3.062   0.459 -0.2846  0.5516  0.3679
  189MOL    H7038046   6.695   2.886   0.474  1.0709 -2.2165  0.6891
  189MOL    H7138047   6.842   2.838   0.369  0.1651  0.8126 -0.7727
  189MOL    O7238048   6.739   3.005   0.300 -0.0390 -0.6486  0.3066
  189MOL    C7338049   6.640   2.949   0.224  0.1406  0.5557 -0.2706
  189MOL    C7438050   6.695   2.905   0.085 -0.3748 -0.4134  0.0800
  189MOL    C7538051   6.589   2.818   0.012  0.7637  0.0490 -0.2349
  189MOL    H7638052   6.574   3.034   0.208 -1.8354 -0.2769  3.0820
  189MOL    H7738053   6.585   2.866   0.270  0.7995 -0.7927 -1.8411
  189MOL    H7838054   6.727   2.988   0.022  1.6215 -2.0889 -1.2116
  189MOL    H7938055   6.781   2.837   0.091 -0.5066 -0.6585 -0.6686
  189MOL    H8038056   6.602   2.819   7.692 -0.3975 -1.3515 -0.4062
  189MOL    H8138057   6.493   2.865   0.034  0.4798 -1.0461  0.9490
  189MOL    O8238058   6.589   2.683   0.056  0.5207  0.4099  0.3796
  189MOL    C8338059   6.484   2.613   7.779  0.9755 -0.4384 -1.1554
  189MOL    C8438060   6.475   2.472   0.052 -0.1942 -0.4906  0.0470
  189MOL    C8538061   6.414   2.471   0.186  0.1622  0.2988 -0.0175
  189MOL    H8638062   6.516   2.612   7.675  0.6793  0.6602 -1.2609
  189MOL    H8738063   6.388   2.663   7.786  1.9542  1.3895 -0.6288
  189MOL    H8838064   6.420   2.408   7.771 -0.6844  0.2173 -0.2216
  189MOL    H8938065   6.577   2.433   0.046  0.5980  1.5519 -0.2373
  189MOL    H9038066   6.314   2.511   0.197 -0.2757 -0.4501 -1.2173
  189MOL    H9138067   6.466   2.526   0.265  0.2097  0.0513  0.1249
  189MOL    O9238068   6.415   2.334   0.218 -0.1451  0.3129 -0.0055
  189MOL    C9338069   6.343   2.312   0.342  0.7765 -0.2116  0.6596
  189MOL    C9438070   6.358   2.161   0.384 -0.4764 -0.2164 -0.1684
  189MOL    C9538071   6.498   2.123   0.428  0.0268  0.0300 -0.8521
  189MOL    H9638072   6.237   2.335   0.337  0.8097 -0.5880 -2.6216
  189MOL    H9738073   6.391   2.374   0.418  0.7068  1.7893 -0.8823
  189MOL    H9838074   6.294   2.134   0.468 -1.6780  1.7180 -0.4323
  189MOL    H9938075   6.324   2.096   0.304  2.5634 -0.5055 -1.2784
  189MOL   H10038076   6.534   2.183   0.511 -1.0483  2.8956 -2.3827
  189MOL   H10138077   6.565   2.141   0.343 -0.3875  0.1553 -1.1556
  189MOL   O10238078   6.497   1.979   0.470  0.1221  0.1904  0.2015
  189MOL   C10338079   6.632   1.935   0.498 -0.1472  0.1527 -0.5728
  189MOL   C10438080   6.635   1.786   0.500 -0.0874  0.0081 -0.8296
  189MOL   C10538081   6.768   1.730   0.557 -0.0410 -0.3178  0.5677
  189MOL   H10638082   6.667   1.965   0.597 -0.3184 -0.7982 -0.2188
  189MOL   H10738083   6.695   1.966   0.414 -1.0707 -0.0986 -1.3639
  189MOL   H10838084   6.555   1.756   0.568 -0.8601 -0.5475 -1.9811
  189MOL   H10938085   6.617   1.738   0.405 -0.6922  2.5480 -2.0484
  189MOL   H11038086   6.752   1.625   0.580 -0.1396 -0.2217  0.9356
  189MOL   H11138087   6.814   1.779   0.644  0.3112  1.8101 -0.7651
  189MOL   O11238088   6.858   1.737   0.446  0.1283 -0.2336 -0.1771
  189MOL   C11338089   6.989   1.754   0.494 -0.1560  0.2967 -0.0086
  189MOL   C11438090   7.070   1.741   0.358 -0.1839  0.1501  0.0694
  189MOL   C11538091   7.220   1.768   0.376  0.9068  0.3030 -0.1063
  189MOL   H11638092   7.019   1.668   0.553 -0.0717 -0.6808 -1.4356
  189MOL   H11738093   7.012   1.834   0.564  0.8779 -1.3373  1.5707
  189MOL   H11838094   7.039   1.645   0.317  1.0291 -1.1415  2.0773
  189MOL   H11938095   7.038   1.811   0.281  1.4548  0.8279 -0.0235
  189MOL   H12038096   7.268   1.708   0.453 -0.2212  1.0994  1.2390
  189MOL   H12138097   7.234   1.874   0.394 -0.4826  0.4532  0.1543
  189MOL   O12238098   7.268   1.729   0.247 -0.2157  1.2090 -0.1932
  189MOL   C12338099   7.390   1.661   0.258 -0.2785  0.3488 -0.3272
  189MOL   C12438100   7.454   1.647   0.123 -0.1674 -0.3966  0.4075
  189MOL   C12538101   7.561   1.542   0.112  0.0399 -0.3347 -0.2145
  189MOL   H12638102   7.384   1.560   0.298  1.8471  0.2112 -0.2836
  189MOL   H12738103   7.456   1.712   0.328 -0.3971  1.2861 -0.8981
  189MOL   H12838104   7.373   1.625   0.054  0.3002 -0.5683 -0.0896
  189MOL   H12938105   7.491   1.739   0.078 -3.7590  0.7869 -0.3421
  189MOL   H13038106   7.591   1.521   0.010  2.3704 -0.5243  0.4785
  189MOL   H13138107   7.536   1.451   0.167 -2.1544  1.0251  1.0821
  189MOL   O13238108   7.675   1.592   0.181  0.4669 -0.4562 -0.4862
  189MOL   C13338109   0.006   1.518   0.189 -0.2889  0.7410 -0.1483
  189MOL   C13438110   0.093   1.611   0.271  0.1351 -0.4673 -0.4466
  189MOL   C13538111   0.145   1.737   0.193  1.3927  0.8089  0.3265
  189MOL   H13638112   0.058   1.471   0.105 -2.4910 -5.9459  1.8829
  189MOL   H13738113   7.778   1.430   0.251  0.2166 -0.3548 -1.5423
  189MOL   H13838114   0.043   1.644   0.362 -0.5402 -2.3090 -0.1365
  189MOL   H13938115   0.183   1.557   0.302 -0.4957 -0.5292  1.3576
  189MOL   H14038116   0.070   1.815   0.183  0.6641 -0.1602 -2.3014
  189MOL   H14138117   0.167   1.704   0.091 -0.2303 -2.1839  0.9003
  189MOL   O14238118   0.265   1.788   0.261  0.1961  0.1131  0.1493
  189MOL   C14338119   0.313   1.909   0.213  0.2619 -0.0387  0.6112
  189MOL   C14438120   0.455   1.921   0.261  0.7164  0.3022  0.7049
  189MOL   C14538121   0.535   1.799   0.210  0.1008 -0.0410 -0.2426
  189MOL   H14638122   0.247   1.991   0.242 -0.1430  1.2022 -3.5024
  189MOL   H14738123   0.310   1.915   0.104 -1.3672  0.5632  0.6831
  189MOL   H14838124   0.501   2.014   0.227 -2.2124  0.8419 -2.0573
  189MOL   H14938125   0.448   1.917   0.370  0.3322 -0.5074  0.6538
  189MOL   H15038126   0.511   1.785   0.104 -0.7511 -0.2279 -0.0300
  189MOL   H15138127   0.502   1.706   0.255  1.4870 -0.6370 -0.4500
  189MOL   O15238128   0.677   1.810   0.238 -0.8271  0.2974  0.5024
  189MOL   C15338129   0.743   1.680   0.227  0.1546 -0.4473  0.5560
  189MOL   C15438130   0.891   1.693   0.272 -0.4636 -0.2424 -0.1179
  189MOL   C15538131   0.950   1.546   0.290 -0.5339  0.1657 -0.3314
  189MOL   H15638132   0.733   1.638   0.127  1.6567  0.8775 -0.1686
  189MOL   H15738133   0.698   1.610   0.297  0.8316 -0.8348  0.6145
  189MOL   H15838134   0.940   1.762   0.203 -1.4140  1.7799  1.1901
  189MOL   H15938135   0.898   1.738   0.371 -2.3334  0.8493 -0.4437
  189MOL   H16038136   0.923   1.497   0.196  0.2066 -1.4268  0.2602
  189MOL   H16138137   0.912   1.493   0.377 -1.1342  1.0867 -0.0194
  189MOL   O16238138   1.095   1.556   0.300 -0.2095 -0.1598 -0.1686
  189MOL   C16338139   1.163   1.440   0.262  0.1382 -0.2556 -0.6643
  189MOL   C16438140   1.321   1.446   0.286  0.5085  0.2135  0.0520
  189MOL   C16538141   1.380   1.313   0.240  0.1514 -0.4519  0.0375
  189MOL   H16638142   1.143   1.423   0.156  0.7689  1.4317 -1.0690
  189MOL   H16738143   1.113   1.356   0.312  1.4822 -0.7479 -0.1129
  189MOL   H16838144   1.359   1.525   0.222 -0.8949  2.4755  1.9278
  189MOL   H16938145   1.360   1.484   0.380 -2.2152 -0.9714  1.7170
  189MOL   H17038146   1.330   1.290   0.146 -1.1813 -1.2736  0.9322
  189MOL   H17138147   1.360   1.227   0.303  2.0183 -0.4127  0.6987
  189MOL   O17238148   1.513   1.328   0.216  0.1164 -0.4308  0.0332
  189MOL   C17338149   1.569   1.235   0.133  1.1165  0.0966 -0.4253
  189MOL   C17438150   1.720   1.272   0.119 -0.6366  0.1510 -0.0984
  189MOL   C17538151   1.801   1.226   0.238  0.4417  0.3042 -0.9242
  189MOL   H17638152   1.518   1.239   0.037  0.8540  1.5742 -0.2346
  189MOL   H17738153   1.563   1.138   0.182  0.4000  0.1696 -0.3691
  189MOL   H17838154   1.753   1.213   0.034 -0.4702 -1.6301  1.1823
  189MOL   H17938155   1.733   1.378   0.094  1.3082 -0.2005 -0.7180
  189MOL   H18038156   1.825   1.120   0.227 -1.2362 -0.5230  2.7037
  189MOL   H18138157   1.745   1.239   0.331  1.3804 -1.4501 -0.0886
  189MOL   O18238158   1.919   1.295   0.227  0.2761  0.0768  0.4974
  189MOL   C18338159   2.012   1.262   0.328  0.7281 -0.0949 -0.6589
  189MOL   C18438160   2.113   1.371   0.341 -0.5468 -0.3557 -0.4291
  189MOL   C18538161   2.203   1.361   0.459  0.6652 -0.1729 -0.1544
  189MOL   H18638162   2.068   1.177   0.288  0.8223 -0.5521  0.4047
  189MOL   H18738163   1.968   1.251   0.427 -2.6700 -2.1621 -2.3290
  189MOL   H18838164   2.174   1.375   0.250 -0.5809 -1.1421 -0.4861
  189MOL   H18938165   2.065   1.469   0.344  0.4752  0.1300  0.7713
  189MOL   H19038166   2.143   1.376   0.549  0.8663  0.4935 -0.1280
  189MOL   H19138167   2.277   1.441   0.468 -1.2986  1.7092 -0.3266
  189MOL   O19238168   2.267   1.236   0.462 -0.2683  0.1412  0.2207
  189MOL   C19338169   2.354   1.206   0.561  0.2430  0.4983 -0.0522
  189MOL   C19438170   2.351   1.053   0.592 -1.3149  0.3466  0.3798
  189MOL   C19538171   2.409   0.964   0.481  0.6473 -0.0280 -0.0688
  189MOL   H19638172   2.326   1.249   0.657 -2.1964  1.4289 -1.1504
  189MOL   H19738173   2.454   1.236   0.530  2.3545 -2.5931  3.3091
  189MOL   H19838174   2.406   1.031   0.684 -0.6616  0.9997  0.1567
  189MOL   H19938175   2.248   1.023   0.608 -1.2999  0.0823 -0.0176
  189MOL   H20038176   2.414   0.864   0.524 -0.1738 -0.2350 -0.4388
  189MOL   H20138177   2.506   0.987   0.437  0.1065  1.2636 -0.5937
  189MOL   H20238178   2.341   0.969   0.395 -0.5660 -1.4997  0.7803
  190MOL     O138179   4.192   6.780   4.398 -0.1052  0.1706 -0.4674
  190MOL     C238180   4.244   6.733   4.274 -0.0818  0.5875  0.4760
  190MOL     C338181   4.320   6.600   4.303  0.2527 -0.6569  0.4100
  190MOL     C438182   4.352   6.504   4.191  0.3917  0.2521 -0.7538
  190MOL     H538183   4.312   6.806   4.230  0.2511  0.4193  0.7090
  190MOL     H638184   4.160   6.711   4.208 -0.0481  2.3141 -0.1608
  190MOL     H738185   4.402   6.610   4.374  1.5732  1.0947 -1.3037
  190MOL     H838186   4.254   6.540   4.365  0.1392 -2.5551 -1.4838
  190MOL     H938187   4.426   6.554   4.129  2.5543 -0.8981  0.8319
  190MOL    H1038188   4.261   6.481   4.135 -0.6628 -0.5275  1.2054
  190MOL    H1138189   4.192   6.874   4.385  2.8916  0.3550  0.4207
  190MOL    O1238190   4.405   6.385   4.246 -0.3729  0.4786  0.1465
  190MOL    C1338191   4.430   6.295   4.139 -0.3540  0.2404 -0.1102
  190MOL    C1438192   4.509   6.169   4.187  0.0420  0.2508 -0.0808
  190MOL    C1538193   4.502   6.069   4.065 -0.4514  0.3084  0.2664
  190MOL    H1638194   4.471   6.350   4.055  0.0797  2.9313  1.7958
  190MOL    H1738195   4.333   6.254   4.111 -0.3200 -0.5960  0.9395
  190MOL    H1838196   4.611   6.201   4.210 -0.0029  0.5746 -0.3428
  190MOL    H1938197   4.465   6.119   4.273 -0.2640  0.3883 -0.1599
  190MOL    H2038198   4.523   6.130   3.978  0.7400 -0.6395 -0.1277
  190MOL    H2138199   4.402   6.027   4.052 -0.5808  1.1715 -1.6120
  190MOL    O2238200   4.594   5.957   4.068 -0.2659 -0.1484 -0.4306
  190MOL    C2338201   4.594   5.869   3.966 -0.2695 -0.3645  0.7942
  190MOL    C2438202   4.697   5.758   4.011 -0.1550  0.3434  0.0696
  190MOL    C2538203   4.710   5.652   3.910 -0.1749  0.3050  0.0095
  190MOL    H2638204   4.621   5.913   3.870  2.7195 -0.8895  1.3657
  190MOL    H2738205   4.496   5.826   3.947 -0.5947 -0.6346  2.9379
  190MOL    H2838206   4.785   5.817   4.038  0.3635 -0.1585 -0.5344
  190MOL    H2938207   4.666   5.716   4.106  1.0566 -0.8350 -0.0424
  190MOL    H3038208   4.734   5.700   3.815  2.7573  0.3468  0.7320
  190MOL    H3138209   4.610   5.609   3.910  0.2039 -0.6091 -0.7470
  190MOL    O3238210   4.805   5.547   3.945  0.1257  0.0330 -0.0451
  190MOL    C3338211   4.765   5.456   4.052 -0.1827 -0.8762 -0.0945
  190MOL    C3438212   4.716   5.330   3.990  0.1390 -0.3670  0.4240
  190MOL    C3538213   4.669   5.224   4.092  0.0534  0.4110  0.6877
  190MOL    H3638214   4.686   5.495   4.116 -0.3349 -1.1278 -0.1284
  190MOL    H3738215   4.846   5.446   4.124 -0.4086  3.5847  0.9303
  190MOL    H3838216   4.642   5.349   3.913 -0.3509 -1.4463  0.6212
  190MOL    H3938217   4.803   5.297   3.934 -0.6654 -2.1604  0.1840
  190MOL    H4038218   4.588   5.262   4.153  0.5974  0.1078  1.6041
  190MOL    H4138219   4.753   5.200   4.156 -0.1059  1.0515  1.1449
  190MOL    O4238220   4.638   5.106   4.006  0.3540 -0.2144  0.6463
  190MOL    C4338221   4.732   5.005   4.011  0.5344 -0.0983  0.0125
  190MOL    C4438222   4.696   4.906   3.902 -0.0942  0.6062  0.8268
  190MOL    C4538223   4.800   4.798   3.875 -0.3237  0.5788 -0.6004
  190MOL    H4638224   4.721   4.964   4.111 -1.2134  0.1866 -0.0471
  190MOL    H4738225   4.833   5.045   4.005  0.6896 -0.4026  0.5997
  190MOL    H4838226   4.605   4.853   3.929 -0.8903  1.5597  0.0695
  190MOL    H4938227   4.671   4.956   3.809 -2.2393  0.6487  1.3974
  190MOL    H5038228   4.855   4.758   3.960  1.1880  2.2393 -0.7842
  190MOL    H5138229   4.861   4.855   3.805 -0.4185  1.5213  0.0755
  190MOL    O5238230   4.731   4.698   3.801  0.2368 -0.0485 -0.2459
  190MOL    C5338231   4.808   4.586   3.766 -0.1274  0.5192 -0.1971
  190MOL    C5438232   4.725   4.468   3.721 -0.2022 -0.2211  0.6124
  190MOL    C5538233   4.792   4.337   3.699  0.2639 -0.2211 -0.0461
  190MOL    H5638234   4.863   4.553   3.854  0.2037 -0.3313 -0.7236
  190MOL    H5738235   4.882   4.609   3.689 -0.5147 -0.2649 -0.8152
  190MOL    H5838236   4.655   4.448   3.802 -0.7696 -1.3798 -0.1541
  190MOL    H5938237   4.669   4.491   3.631 -2.3633 -0.6614  1.8007
  190MOL    H6038238   4.721   4.254   3.705  1.3113 -1.0481  0.8315
  190MOL    H6138239   4.847   4.321   3.791 -1.1560 -0.6090  0.7486
  190MOL    O6238240   4.888   4.344   3.595  0.3513  0.7788 -0.3158
  190MOL    C6338241   4.935   4.219   3.562 -0.0584  0.0378  0.2134
  190MOL    C6438242   5.045   4.160   3.653 -0.2093  0.0168  0.0583
  190MOL    C6538243   5.174   4.233   3.636 -0.3375 -0.3986 -0.3917
  190MOL    H6638244   4.975   4.227   3.461 -0.2149  3.9252  0.3752
  190MOL    H6738245   4.848   4.158   3.536 -0.0887  0.7636 -1.4024
  190MOL    H6838246   5.017   4.165   3.759  1.1311  1.4384  0.3796
  190MOL    H6938247   5.050   4.056   3.622 -2.3767  0.4327 -1.7356
  190MOL    H7038248   5.154   4.341   3.641  0.4865 -0.2691  0.1966
  190MOL    H7138249   5.222   4.227   3.539  0.9069 -1.3606  0.2808
  190MOL    O7238250   5.252   4.198   3.750  0.6217 -0.0934 -0.6057
  190MOL    C7338251   5.361   4.288   3.760  0.3195  0.6532 -0.0790
  190MOL    C7438252   5.342   4.385   3.876 -0.3186 -0.4798 -0.3455
  190MOL    C7538253   5.473   4.470   3.893 -0.5866 -0.4560 -0.1316
  190MOL    H7638254   5.391   4.342   3.670  0.7313  1.7964  0.7247
  190MOL    H7738255   5.452   4.229   3.774  0.9453  1.1816 -1.8073
  190MOL    H7838256   5.258   4.452   3.856 -1.4491 -2.7170 -3.6658
  190MOL    H7938257   5.320   4.332   3.969 -1.6327  0.2674 -0.2212
  190MOL    H8038258   5.461   4.541   3.974  0.3254 -0.9474  0.4526
  190MOL    H8138259   5.495   4.520   3.799 -1.1299  1.0078  0.5168
  190MOL    O8238260   5.582   4.378   3.912  0.0939  0.0469  0.0406
  190MOL    C8338261   5.709   4.443   3.915 -0.4059  0.0712 -0.4443
  190MOL    C8438262   5.822   4.339   3.916 -0.2567 -0.4340  0.0912
  190MOL    C8538263   5.950   4.427   3.929 -0.6013  0.6228  0.3081
  190MOL    H8638264   5.707   4.505   4.005 -0.5082  0.7334 -0.9038
  190MOL    H8738265   5.727   4.506   3.828  1.2016 -1.8065 -1.5396
  190MOL    H8838266   5.799   4.277   4.003 -1.0119  1.2120  1.0919
  190MOL    H8938267   5.808   4.275   3.829 -1.0128  0.6290 -0.5622
  190MOL    H9038268   5.941   4.504   4.006  1.8047  0.0869  1.1663
  190MOL    H9138269   5.977   4.484   3.840 -1.0233  1.2623  0.5865
  190MOL    O9238270   6.063   4.347   3.962  0.1595 -0.2879 -0.6712
  190MOL    C9338271   6.110   4.254   3.864  0.3322 -0.2174 -0.1139
  190MOL    C9438272   6.244   4.192   3.895 -0.5165 -0.9375 -0.2941
  190MOL    C9538273   6.310   4.101   3.793  0.0392 -0.2091  0.4926
  190MOL    H9638274   6.115   4.296   3.764 -1.6775  0.8366  0.1863
  190MOL    H9738275   6.035   4.177   3.843 -0.3740  0.2018  0.8200
  190MOL    H9838276   6.317   4.273   3.899  0.6509 -1.8234 -2.7046
  190MOL    H9938277   6.239   4.146   3.993 -0.2940  0.4971  0.4127
  190MOL   H10038278   6.401   4.056   3.830 -1.2872 -1.1877  2.6744
  190MOL   H10138279   6.327   4.157   3.700 -0.2499 -0.6932  0.1469
  190MOL   O10238280   6.226   3.993   3.778  0.1597 -0.6672  0.2528
  190MOL   C10338281   6.281   3.885   3.700  0.2170 -0.2308  0.1402
  190MOL   C10438282   6.185   3.763   3.686  0.5959  0.0569  0.4170
  190MOL   C10538283   6.083   3.766   3.572 -0.3436  0.4748  0.6216
  190MOL   H10638284   6.383   3.865   3.735  0.8103  1.2950 -0.6707
  190MOL   H10738285   6.303   3.927   3.602  1.1288  2.4191  1.4399
  190MOL   H10838286   6.248   3.677   3.666  1.0335  0.9276 -2.1761
  190MOL   H10938287   6.135   3.727   3.776  1.7975 -3.8286 -0.3626
  190MOL   H11038288   6.121   3.809   3.480  0.6496 -1.7978 -0.0505
  190MOL   H11138289   6.007   3.838   3.603 -1.5327 -1.7056  2.9965
  190MOL   O11238290   6.024   3.641   3.534  0.0289  0.6099 -0.2381
  190MOL   C11338291   5.944   3.644   3.417  0.0838  0.3122  0.4607
  190MOL   C11438292   5.851   3.525   3.388 -0.1849 -0.1319 -0.1984
  190MOL   C11538293   5.782   3.537   3.247  0.1812 -0.0165  0.2335
  190MOL   H11638294   6.010   3.667   3.333 -2.4085 -1.9224 -2.1884
  190MOL   H11738295   5.884   3.734   3.433 -0.6789 -0.0428 -0.3973
  190MOL   H11838296   5.904   3.431   3.372  0.1227 -0.3985  2.1939
  190MOL   H11938297   5.784   3.506   3.471  0.4390 -0.2956  0.2739
  190MOL   H12038298   5.717   3.452   3.231  0.3153 -0.3322  1.2847
  190MOL   H12138299   5.860   3.545   3.171  0.3012  4.2825  0.6579
  190MOL   O12238300   5.704   3.656   3.258  0.6714  0.7767  0.1333
  190MOL   C12338301   5.642   3.697   3.134 -0.4091 -0.1377 -1.2607
  190MOL   C12438302   5.574   3.836   3.170 -0.5184  0.0020  0.3534
  190MOL   C12538303   5.527   3.912   3.041 -0.3601  0.9562 -0.2021
  190MOL   H12638304   5.568   3.625   3.100  0.9731 -0.9429 -2.6537
  190MOL   H12738305   5.719   3.720   3.059  1.0985 -0.7997  0.0432
  190MOL   H12838306   5.485   3.829   3.234 -0.5184 -0.7159  0.2746
  190MOL   H12938307   5.650   3.900   3.214 -1.4458  0.1938  1.7246
  190MOL   H13038308   5.421   3.893   3.026 -0.4724  0.7508  0.8104
  190MOL   H13138309   5.574   3.874   2.950  3.5149  0.2590  1.9638
  190MOL   O13238310   5.549   4.052   3.046 -0.6482 -0.4640 -0.4094
  190MOL   C13338311   5.556   4.118   2.925 -1.6472  0.0738  0.9605
  190MOL   C13438312   5.579   4.267   2.942  0.0889  0.8651 -0.4674
  190MOL   C13538313   5.720   4.283   3.012 -0.5600  0.0191 -0.2351
  190MOL   H13638314   5.471   4.098   2.860 -0.7627 -3.3943  0.8100
  190MOL   H13738315   5.641   4.080   2.868 -0.2482  3.3364  0.7137
  190MOL   H13838316   5.560   4.309   2.844 -1.3727 -0.4665 -0.7738
  190MOL   H13938317   5.501   4.312   3.004 -0.0877 -0.0073 -0.0558
  190MOL   H14038318   5.789   4.232   2.944 -0.4452 -1.3555  0.9082
  190MOL   H14138319   5.740   4.229   3.104 -2.3238  0.2200  0.2749
  190MOL   O14238320   5.745   4.426   3.016  0.1283 -0.0434 -0.5476
  190MOL   C14338321   5.859   4.458   3.092  0.4851  0.1247  0.3134
  190MOL   C14438322   5.878   4.614   3.092  0.5706  0.3930 -0.6402
  190MOL   C14538323   5.979   4.652   3.194  0.9560  0.1688 -0.2208
  190MOL   H14638324   5.950   4.415   3.049  0.9494  1.1706  0.2293
  190MOL   H14738325   5.846   4.434   3.198  2.9497 -2.1369  0.1452
  190MOL   H14838326   5.913   4.643   2.993 -0.0319 -3.0147 -1.9218
  190MOL   H14938327   5.783   4.667   3.101 -0.7601 -1.5113 -2.9138
  190MOL   H15038328   6.030   4.747   3.177  2.1088  0.0762  2.4572
  190MOL   H15138329   6.068   4.589   3.190  2.5400  2.1884  1.3782
  190MOL   O15238330   5.942   4.626   3.333 -0.0808  0.5178  0.4992
  190MOL   C15338331   6.043   4.653   3.429  0.5734  0.4008 -0.3547
  190MOL   C15438332   5.977   4.645   3.565 -0.0374  0.4269 -0.0726
  190MOL   C15538333   6.075   4.692   3.676 -0.6577 -0.0217 -0.4970
  190MOL   H15638334   6.088   4.751   3.417 -0.5680  0.7913 -1.5546
  190MOL   H15738335   6.125   4.583   3.409  0.6739  0.8301 -1.5231
  190MOL   H15838336   5.887   4.705   3.582 -1.0212 -0.1482 -2.8509
  190MOL   H15938337   5.947   4.542   3.584 -2.4049  0.7801 -1.5599
  190MOL   H16038338   6.029   4.696   3.775  1.1064 -1.7764  0.4303
  190MOL   H16138339   6.102   4.795   3.652 -1.1085  0.6979  1.9781
  190MOL   O16238340   6.182   4.597   3.670 -0.1236 -0.6274  0.0109
  190MOL   C16338341   6.275   4.615   3.783 -0.2688 -0.1397  0.3315
  190MOL   C16438342   6.398   4.530   3.759 -0.3361 -0.1684 -0.2817
  190MOL   C16538343   6.489   4.501   3.884 -0.5419  0.3733 -0.3281
  190MOL   H16638344   6.224   4.577   3.871  0.9899 -1.1867  0.6414
  190MOL   H16738345   6.291   4.723   3.788 -1.6918  0.2414 -2.4007
  190MOL   H16838346   6.368   4.442   3.702  0.8599 -1.5090  1.1355
  190MOL   H16938347   6.459   4.581   3.684  0.4727 -1.3989 -0.4600
  190MOL   H17038348   6.567   4.429   3.860 -0.2616  0.4616  0.3152
  190MOL   H17138349   6.421   4.462   3.960 -1.7241 -0.1520 -1.6221
  190MOL   O17238350   6.534   4.622   3.946 -0.0711 -0.5998 -0.1016
  190MOL   C17338351   6.623   4.602   4.055  0.0549 -0.4798  0.1030
  190MOL   C17438352   6.600   4.719   4.157  0.4816  1.0510  0.0280
  190MOL   C17538353   6.702   4.717   4.268 -0.6148 -0.5692  0.2217
  190MOL   H17638354   6.727   4.595   4.021  0.1855  0.5451  0.2970
  190MOL   H17738355   6.600   4.506   4.102  2.5608 -2.4289 -2.4506
  190MOL   H17838356   6.618   4.800   4.087  1.5533  1.8334  1.1932
  190MOL   H17938357   6.497   4.720   4.191 -0.0662 -1.8513 -1.3940
  190MOL   H18038358   6.702   4.616   4.308 -1.0466 -0.9305 -0.6855
  190MOL   H18138359   6.679   4.792   4.344 -0.4117 -1.7264  1.4433
  190MOL   O18238360   6.830   4.747   4.215  0.1308 -0.1152 -0.4656
  190MOL   C18338361   6.931   4.756   4.306 -0.2383 -0.5210 -0.0611
  190MOL   C18438362   6.994   4.613   4.322 -0.4759 -0.0557 -0.2064
  190MOL   C18538363   7.104   4.595   4.431  0.5923  0.1846  0.1030
  190MOL   H18638364   6.901   4.803   4.399 -1.2713 -1.5042  0.1176
  190MOL   H18738365   7.008   4.828   4.279  0.5871 -1.2794  0.2213
  190MOL   H18838366   6.913   4.545   4.346  0.1638 -0.2620  1.4459
  190MOL   H18938367   7.036   4.588   4.224 -1.9280  1.6910 -1.3137
  190MOL   H19038368   7.054   4.611   4.527  1.5149  0.2284  0.5834
  190MOL   H19138369   7.187   4.661   4.411 -0.1006  1.5996  1.7316
  190MOL   O19238370   7.149   4.456   4.453  0.3136  0.0289 -0.3267
  190MOL   C19338371   7.252   4.451   4.553  0.8126 -0.3114 -0.2820
  190MOL   C19438372   7.295   4.308   4.571 -0.0714  0.5182 -0.2502
  190MOL   C19538373   7.189   4.208   4.622  0.1695  0.0430  0.1353
  190MOL   H19638374   7.214   4.489   4.648  0.1398 -0.2107 -0.5862
  190MOL   H19738375   7.340   4.511   4.531 -1.3929  3.2403  0.0731
  190MOL   H19838376   7.329   4.262   4.478  1.7211 -0.1141  0.6986
  190MOL   H19938377   7.381   4.304   4.637  0.8498  0.8715 -1.4056
  190MOL   H20038378   7.161   4.228   4.726 -1.5585 -0.9293 -0.1190
  190MOL   H20138379   7.217   4.103   4.619 -2.4664 -0.7482  1.2153
  190MOL   H20238380   7.097   4.221   4.565  1.0525 -0.7775 -1.5153
  191MOL     O138381   3.509   5.817   6.493 -0.4741  0.4656 -0.2872
  191MOL     C238382   3.484   5.679   6.500 -0.4450 -0.2631 -0.1225
  191MOL     C338383   3.387   5.649   6.382  0.0089  0.0650  0.6304
  191MOL     C438384   3.390   5.510   6.325 -0.0200  0.3517  0.1249
  191MOL     H538385   3.441   5.648   6.595  2.5956 -0.7749  1.1424
  191MOL     H638386   3.579   5.631   6.478  0.5434  1.5867 -0.0143
  191MOL     H738387   3.284   5.662   6.413 -0.2295 -1.3324  0.4407
  191MOL     H838388   3.404   5.724   6.305  0.4220 -1.0447 -0.3841
  191MOL     H938389   3.328   5.504   6.236 -1.2003 -2.5288  1.0983
  191MOL    H1038390   3.353   5.448   6.406 -1.4989  1.9541  0.7000
  191MOL    H1138391   3.551   5.836   6.411  0.0172  1.0747  0.0981
  191MOL    O1238392   3.526   5.480   6.293 -0.4566  0.0416  0.0778
  191MOL    C1338393   3.541   5.347   6.268  0.2821  0.0893 -0.3191
  191MOL    C1438394   3.695   5.325   6.268 -0.0287 -0.1490 -0.0775
  191MOL    C1538395   3.744   5.181   6.236  0.1609 -0.2988  0.3264
  191MOL    H1638396   3.491   5.331   6.173 -2.5002  2.8550  0.5985
  191MOL    H1738397   3.486   5.293   6.345  0.5882  0.3791  0.1145
  191MOL    H1838398   3.737   5.394   6.195  0.0968 -0.0287  0.1081
  191MOL    H1938399   3.738   5.350   6.366  0.6400  1.0157 -0.6519
  191MOL    H2038400   3.712   5.162   6.133  2.5301 -4.3571  0.2231
  191MOL    H2138401   3.713   5.097   6.299  0.1533  0.5786  1.4921
  191MOL    O2238402   3.886   5.191   6.233  1.0250 -0.0156  0.5661
  191MOL    C2338403   3.944   5.092   6.146  0.3819  0.1930 -0.6410
  191MOL    C2438404   4.082   5.151   6.126 -0.5083  0.3657 -0.4302
  191MOL    C2538405   4.176   5.059   6.057  0.1939 -0.4309  0.4205
  191MOL    H2638406   3.898   5.072   6.049 -2.7324 -1.4873  1.0919
  191MOL    H2738407   3.947   4.994   6.194  1.5380 -0.3706 -1.8216
  191MOL    H2838408   4.072   5.244   6.071 -0.3742  0.5017 -0.2230
  191MOL    H2938409   4.123   5.176   6.224 -1.4198  1.1571 -0.2479
  191MOL    H3038410   4.199   4.972   6.119  2.2191 -2.5083 -3.0533
  191MOL    H3138411   4.273   5.107   6.043 -1.0015  1.9315  0.1549
  191MOL    O3238412   4.124   5.016   5.928  0.3252  0.2062  0.3830
  191MOL    C3338413   4.214   4.935   5.848 -0.2899  1.0936 -0.2913
  191MOL    C3438414   4.158   4.866   5.719  0.1660  0.4136  0.0758
  191MOL    C3538415   4.263   4.767   5.659  0.7059 -0.4122  0.6498
  191MOL    H3638416   4.251   4.865   5.923  0.4772  0.7908 -0.9477
  191MOL    H3738417   4.304   4.985   5.814 -0.2408  2.9198  2.3118
  191MOL    H3838418   4.065   4.817   5.749  0.7443  0.1845  1.5018
  191MOL    H3938419   4.131   4.947   5.651 -1.4659 -0.7935 -0.7509
  191MOL    H4038420   4.307   4.704   5.736  4.2266 -1.1727 -1.8236
  191MOL    H4138421   4.356   4.815   5.625  0.3136  0.1332  0.3305
  191MOL    O4238422   4.228   4.690   5.547  0.2879  0.6326  0.8490
  191MOL    C4338423   4.236   4.749   5.415  0.1731 -0.4027 -0.1206
  191MOL    C4438424   4.144   4.690   5.303 -0.2185 -0.4014 -0.1280
  191MOL    C4538425   3.991   4.690   5.318  1.0986  1.3280  0.3404
  191MOL    H4638426   4.336   4.770   5.377 -0.1153  2.7643  0.6965
  191MOL    H4738427   4.199   4.850   5.431 -0.2942 -0.3531 -1.4363
  191MOL    H4838428   4.177   4.734   5.208 -2.2174 -0.5143 -0.8992
  191MOL    H4938429   4.180   4.589   5.289  3.2490  0.6702  0.5978
  191MOL    H5038430   3.961   4.795   5.321 -0.2159  0.9218  2.5777
  191MOL    H5138431   3.963   4.646   5.414 -0.2367 -1.2514 -1.1698
  191MOL    O5238432   3.934   4.626   5.202  0.0025 -0.1354 -0.6246
  191MOL    C5338433   3.792   4.633   5.201  0.6611 -0.2779 -0.2521
  191MOL    C5438434   3.736   4.529   5.102  0.1782 -0.1910 -0.6908
  191MOL    C5538435   3.581   4.535   5.107  0.4993  0.4570  0.9572
  191MOL    H5638436   3.766   4.735   5.173  1.7749  0.7120  2.2157
  191MOL    H5738437   3.745   4.614   5.297  1.7186 -2.6194 -0.1565
  191MOL    H5838438   3.772   4.542   5.000 -1.3170 -0.0766 -1.2193
  191MOL    H5938439   3.781   4.435   5.135 -1.8079 -0.9766 -0.1802
  191MOL    H6038440   3.555   4.628   5.057  1.2688  0.5243  0.6646
  191MOL    H6138441   3.549   4.529   5.211 -1.7882 -0.1340  0.2492
  191MOL    O6238442   3.525   4.434   5.031 -0.0314 -0.8728  0.4665
  191MOL    C6338443   3.381   4.448   5.023 -0.1740  0.4755 -0.0873
  191MOL    C6438444   3.323   4.317   4.958  0.1195  0.3872 -0.0333
  191MOL    C6538445   3.172   4.312   4.980  0.8698  0.4181  0.8786
  191MOL    H6638446   3.361   4.538   4.965 -0.3353  0.3418 -0.2406
  191MOL    H6738447   3.333   4.457   5.120  0.7183  0.4909  0.3570
  191MOL    H6838448   3.342   4.325   4.850  1.6754  0.7288  0.2517
  191MOL    H6938449   3.378   4.229   4.992  1.5544  1.1831 -0.2623
  191MOL    H7038450   3.117   4.394   4.935 -0.2161 -0.8389 -0.1147
  191MOL    H7138451   3.149   4.341   5.083 -0.0216  1.8263  0.2916
  191MOL    O7238452   3.121   4.180   4.956  0.5277 -0.3992 -0.5070
  191MOL    C7338453   2.989   4.152   4.996 -0.2857 -0.5696 -1.1502
  191MOL    C7438454   2.889   4.140   4.874 -0.6073  0.3050  0.0080
  191MOL    C7538455   2.740   4.158   4.908 -0.8033 -0.4248 -0.2828
  191MOL    H7638456   2.946   4.223   5.066 -2.0207 -1.8835 -0.8362
  191MOL    H7738457   3.001   4.054   5.043 -0.0915 -0.5721 -1.2030
  191MOL    H7838458   2.917   4.221   4.807 -0.9857  0.7750  0.4105
  191MOL    H7938459   2.907   4.048   4.819 -1.2976  0.6275 -0.7622
  191MOL    H8038460   2.728   4.253   4.961 -1.7120 -0.3333 -0.6561
  191MOL    H8138461   2.704   4.078   4.972 -3.3051  0.4656 -0.5147
  191MOL    O8238462   2.661   4.145   4.789  0.2842  0.5460  0.0203
  191MOL    C8338463   2.520   4.123   4.803  0.4318  0.4833  0.5114
  191MOL    C8438464   2.487   3.971   4.823  0.1443 -0.6215 -0.2288
  191MOL    C8538465   2.343   3.948   4.870  0.3988  0.0103  0.3577
  191MOL    H8638466   2.486   4.142   4.702 -1.8915 -1.5678  0.8432
  191MOL    H8738467   2.473   4.193   4.871  1.9374  0.4994  1.5627
  191MOL    H8838468   2.504   3.916   4.731  0.3935 -2.5405  0.9535
  191MOL    H8938469   2.566   3.929   4.884 -1.1214 -0.7898  1.3515
  191MOL    H9038470   2.282   3.985   4.787  1.8051  1.1555 -0.1957
  191MOL    H9138471   2.330   3.998   4.966  0.3906 -1.2857  1.0360
  191MOL    O9238472   2.339   3.808   4.891 -0.1061  0.6090  0.4266
  191MOL    C9338473   2.228   3.767   4.974  0.3679  0.0373 -0.0206
  191MOL    C9438474   2.235   3.617   5.016 -0.1480  0.0169  0.2506
  191MOL    C9538475   2.152   3.534   4.909 -0.2839  0.3560  0.2040
  191MOL    H9638476   2.133   3.785   4.923  0.6295  0.0933 -0.4938
  191MOL    H9738477   2.218   3.841   5.054 -1.4301 -0.4982  0.2795
  191MOL    H9838478   2.338   3.581   5.020 -0.5374 -1.0736  0.8994
  191MOL    H9938479   2.190   3.613   5.115 -1.3239  2.3631 -0.1656
  191MOL   H10038480   2.198   3.544   4.811  1.5563  1.5330  1.1458
  191MOL   H10138481   2.052   3.576   4.896 -0.6004 -0.8889 -1.5079
  191MOL   O10238482   2.138   3.405   4.957 -0.2368 -0.2086  0.4253
  191MOL   C10338483   2.047   3.324   4.885  0.3659  0.2188  0.8164
  191MOL   C10438484   2.032   3.190   4.948  0.2986 -0.0794  0.1415
  191MOL   C10538485   1.906   3.119   4.895 -0.3738  0.2480  0.3625
  191MOL   H10638486   2.085   3.316   4.783  1.0054 -0.2195  1.0853
  191MOL   H10738487   1.950   3.372   4.882  0.7285  1.0099  1.4893
  191MOL   H10838488   2.121   3.130   4.929  0.7515  0.4988  0.4286
  191MOL   H10938489   2.016   3.198   5.056 -2.5171 -1.1321 -0.1445
  191MOL   H11038490   1.808   3.164   4.914  0.4096  4.0754 -3.8130
  191MOL   H11138491   1.913   3.019   4.939  1.8879 -0.0813 -0.6802
  191MOL   O11238492   1.928   3.094   4.756  0.6235  0.5454  0.0907
  191MOL   C11338493   1.820   3.021   4.695  0.4516 -0.3401 -0.3865
  191MOL   C11438494   1.847   2.979   4.552  0.6364 -0.3120  0.3285
  191MOL   C11538495   1.858   3.106   4.452 -0.1179  0.3994 -0.5494
  191MOL   H11638496   1.725   3.071   4.713  1.2708  0.6603  1.2572
  191MOL   H11738497   1.807   2.930   4.753  0.2497 -0.1754 -0.1766
  191MOL   H11838498   1.933   2.911   4.552  0.3503 -0.6952 -0.6118
  191MOL   H11938499   1.772   2.914   4.507  0.8266 -0.3137  0.0047
  191MOL   H12038500   1.948   3.165   4.471  0.6716 -1.9106  3.2777
  191MOL   H12138501   1.776   3.176   4.467 -0.2192  0.2688 -0.5023
  191MOL   O12238502   1.860   3.073   4.316 -0.1166  0.1918  0.1922
  191MOL   C12338503   1.859   3.189   4.232 -0.0607  0.2821  0.3346
  191MOL   C12438504   1.847   3.131   4.091  0.3320 -0.3062  0.9059
  191MOL   C12538505   1.711   3.070   4.052 -0.2263  0.5126 -0.2402
  191MOL   H12638506   1.952   3.245   4.244  0.5363 -0.8076  0.9072
  191MOL   H12738507   1.778   3.254   4.263 -2.0285 -2.3129  0.8175
  191MOL   H12838508   1.850   3.218   4.025  2.8144  1.9769  3.9135
  191MOL   H12938509   1.927   3.062   4.066  0.3429  0.4784 -1.4272
  191MOL   H13038510   1.628   3.134   4.083 -1.1699 -0.4977 -0.6078
  191MOL   H13138511   1.718   2.978   4.110  0.5791  1.5456  1.3332
  191MOL   O13238512   1.710   3.051   3.912  0.1860 -0.1614  0.3019
  191MOL   C13338513   1.583   3.023   3.858 -0.2484 -0.3183  0.4526
  191MOL   C13438514   1.610   2.982   3.720  0.2749  0.3966 -0.3232
  191MOL   C13538515   1.707   2.864   3.716 -0.1771  0.3328  0.1270
  191MOL   H13638516   1.526   3.113   3.881  0.2462  0.1562 -0.1604
  191MOL   H13738517   1.544   2.932   3.904 -0.6031 -0.7952 -0.7593
  191MOL   H13838518   1.527   2.955   3.655  0.2883  1.6207 -0.8690
  191MOL   H13938519   1.671   3.056   3.667  0.4967  1.3658  1.2507
  191MOL   H14038520   1.807   2.887   3.754  1.2574 -1.2956 -2.4520
  191MOL   H14138521   1.724   2.845   3.610  0.9376 -0.6533  0.4698
  191MOL   O14238522   1.648   2.750   3.787  0.5240  0.2186 -0.1540
  191MOL   C14338523   1.727   2.633   3.796 -0.4072  0.0943 -0.3707
  191MOL   C14438524   1.643   2.531   3.869 -0.1185 -1.1065  0.2018
  191MOL   C14538525   1.694   2.387   3.882 -0.1752 -0.3270  0.7947
  191MOL   H14638526   1.821   2.657   3.846  0.3560 -1.6384 -0.9396
  191MOL   H14738527   1.759   2.590   3.701  0.4007  1.6853 -0.8348
  191MOL   H14838528   1.632   2.572   3.969 -0.9334 -0.5501 -0.1115
  191MOL   H14938529   1.546   2.531   3.819  0.8806 -0.9587 -1.8144
  191MOL   H15038530   1.742   2.358   3.788 -3.8152  0.4070 -1.3757
  191MOL   H15138531   1.605   2.329   3.907 -2.0424  2.1305  0.0409
  191MOL   O15238532   1.784   2.394   3.993  0.0780 -0.5990 -0.5731
  191MOL   C15338533   1.841   2.266   4.011  0.0576  0.3863 -0.2818
  191MOL   C15438534   1.896   2.241   4.153  0.4974 -0.0860  0.7940
  191MOL   C15538535   1.974   2.100   4.156  0.6099  0.2861  0.2395
  191MOL   H15638536   1.921   2.235   3.943  0.1856 -2.0396  0.9124
  191MOL   H15738537   1.763   2.191   3.999 -0.3474  0.5353  1.2807
  191MOL   H15838538   1.960   2.319   4.193  1.6093 -1.3060  1.4498
  191MOL   H15938539   1.821   2.225   4.231  1.2898 -1.2921  1.3215
  191MOL   H16038540   2.067   2.108   4.100 -0.6024  1.3677 -1.6967
  191MOL   H16138541   1.915   2.016   4.120  0.4386 -0.4977  2.2538
  191MOL   O16238542   2.003   2.076   4.296 -0.4523  0.1956 -0.5080
  191MOL   C16338543   2.099   1.973   4.308  0.6815 -0.4149  0.7441
  191MOL   C16438544   2.130   1.949   4.454  0.2390 -0.1929 -0.3752
  191MOL   C16538545   2.007   1.937   4.550  0.4467  0.3120  0.5722
  191MOL   H16638546   2.194   2.000   4.261 -0.2823  1.4729 -0.1845
  191MOL   H16738547   2.066   1.882   4.258  0.8306  0.5705 -1.2029
  191MOL   H16838548   2.197   1.864   4.470  1.4892  0.9494  0.6787
  191MOL   H16938549   2.191   2.026   4.502  1.1924 -2.4810  2.2574
  191MOL   H17038550   1.944   1.865   4.499 -1.5381 -0.2863  3.7137
  191MOL   H17138551   1.951   2.028   4.571  0.8194  0.5130  0.7131
  191MOL   O17238552   2.031   1.873   4.672  0.0960 -0.1800 -0.8261
  191MOL   C17338553   2.114   1.937   4.769  0.0425 -0.0805 -0.1098
  191MOL   C17438554   2.033   2.026   4.869 -0.5779  0.0744  0.2802
  191MOL   C17538555   1.981   1.945   4.985  0.0291 -0.2015  0.3028
  191MOL   H17638556   2.199   1.991   4.728 -0.5296  1.5039  0.7720
  191MOL   H17738557   2.153   1.854   4.828 -2.3470 -1.1401  0.0341
  191MOL   H17838558   2.107   2.095   4.909 -0.6822 -0.7709  1.9932
  191MOL   H17938559   1.958   2.082   4.814 -0.1205 -0.1911 -0.6225
  191MOL   H18038560   2.069   1.907   5.037 -0.0098 -1.2942 -0.4084
  191MOL   H18138561   1.917   1.866   4.945 -2.1557  0.9877  1.3323
  191MOL   O18238562   1.903   2.030   5.062  0.1889 -0.2940 -0.4928
  191MOL   C18338563   1.853   1.958   5.177 -0.2087 -0.5932 -0.3694
  191MOL   C18438564   1.945   1.960   5.300 -0.4875  0.0891 -0.4451
  191MOL   C18538565   1.877   1.892   5.421 -0.0383 -0.3648  0.0312
  191MOL   H18638566   1.807   1.860   5.161 -0.8759 -0.4652  0.6833
  191MOL   H18738567   1.766   2.021   5.193 -0.0225 -0.5273  0.3936
  191MOL   H18838568   2.040   1.906   5.291  1.4954  3.2492  0.4910
  191MOL   H18938569   1.966   2.062   5.331  2.2339 -0.3098 -0.8453
  191MOL   H19038570   1.780   1.939   5.434 -1.1626 -2.4656 -0.6178
  191MOL   H19138571   1.933   1.902   5.514  1.0153 -0.2273 -0.6096
  191MOL   O19238572   1.862   1.758   5.399  0.0618 -0.4114  0.5938
  191MOL   C19338573   1.777   1.687   5.487 -0.4760 -0.2374 -0.1263
  191MOL   C19438574   1.813   1.534   5.482  0.4849  0.6673 -0.1950
  191MOL   C19538575   1.950   1.506   5.522 -0.1121  0.2483 -0.1776
  191MOL   H19638576   1.674   1.707   5.458 -0.4341  0.0683 -0.0631
  191MOL   H19738577   1.796   1.721   5.589 -2.7075 -2.1668  0.9903
  191MOL   H19838578   1.740   1.470   5.533  0.6659  0.5836 -0.0403
  191MOL   H19938579   1.807   1.515   5.375  0.5375 -0.2728 -0.0381
  191MOL   H20038580   1.979   1.548   5.618 -0.6875  0.7963 -0.2396
  191MOL   H20138581   2.014   1.559   5.451  0.0383 -1.7843 -1.6042
  191MOL   H20238582   1.972   1.400   5.527 -0.4815  0.0769 -1.7857
  192MOL     O138583   2.229   2.063   2.838  0.2394  0.3068 -0.1205
  192MOL     C238584   2.106   2.024   2.900 -0.2685 -0.2485  0.6854
  192MOL     C338585   2.141   1.917   3.002  0.1446 -0.4147 -0.7430
  192MOL     C438586   2.019   1.827   3.039 -0.1799 -0.1638  0.3513
  192MOL     H538587   2.031   1.993   2.828  0.8088  1.6126 -1.2806
  192MOL     H638588   2.069   2.112   2.951 -2.7451 -0.7268 -0.2134
  192MOL     H738589   2.205   1.847   2.947  1.3222  1.2399 -1.5133
  192MOL     H838590   2.189   1.963   3.088 -1.7828  0.1460  0.0493
  192MOL     H938591   2.049   1.744   3.104  1.7819 -0.6742 -1.1396
  192MOL    H1038592   1.980   1.785   2.946 -0.6897  2.1714 -0.5057
  192MOL    H1138593   2.302   2.067   2.897 -0.1432 -0.8323  0.4486
  192MOL    O1238594   1.911   1.909   3.078 -0.5711  0.2132  0.2616
  192MOL    C1338595   1.801   1.842   3.121 -0.5235 -0.2715 -0.0382
  192MOL    C1438596   1.699   1.949   3.159 -0.0686  0.1428  0.3813
  192MOL    C1538597   1.567   1.895   3.225 -0.5794  0.2696  0.0278
  192MOL    H1638598   1.829   1.803   3.219 -2.0739  1.9963  1.3507
  192MOL    H1738599   1.763   1.767   3.051  0.7272  0.1482 -1.1888
  192MOL    H1838600   1.741   2.027   3.223 -1.3571 -0.1007  1.5612
  192MOL    H1938601   1.667   1.994   3.065  0.0875  3.0263  1.6268
  192MOL    H2038602   1.589   1.850   3.322  0.8697  1.3017  0.1892
  192MOL    H2138603   1.530   1.810   3.169 -0.8822 -3.0630  4.9589
  192MOL    O2238604   1.471   1.999   3.251  0.2908  0.4684  0.0669
  192MOL    C2338605   1.411   2.052   3.130 -0.6366  0.1968 -0.0315
  192MOL    C2438606   1.294   2.134   3.174 -0.7393  0.1618 -0.1610
  192MOL    C2538607   1.321   2.283   3.189 -0.0464 -0.1706 -0.0568
  192MOL    H2638608   1.371   1.972   3.067 -0.8858  0.3802 -0.1072
  192MOL    H2738609   1.475   2.115   3.069 -1.6932 -1.0487 -2.5085
  192MOL    H2838610   1.215   2.115   3.102  0.8239 -1.6378 -1.4726
  192MOL    H2938611   1.243   2.095   3.263 -2.2781 -0.1492 -1.1679
  192MOL    H3038612   1.364   2.331   3.101  1.1887  1.1325  1.2258
  192MOL    H3138613   1.384   2.299   3.276  0.1856 -2.3457  0.2088
  192MOL    O3238614   1.199   2.342   3.209  0.4639 -0.0399  0.1686
  192MOL    C3338615   1.194   2.478   3.245 -0.2191  0.1110 -0.0090
  192MOL    C3438616   1.049   2.522   3.278  0.2935 -0.4012  0.1244
  192MOL    C3538617   1.037   2.668   3.329  0.2670 -0.7241  0.2004
  192MOL    H3638618   1.237   2.535   3.162 -0.2699  1.2956  0.7723
  192MOL    H3738619   1.259   2.495   3.331  0.6289  1.2796 -0.8589
  192MOL    H3838620   0.980   2.502   3.196 -2.3338 -0.3351  2.2731
  192MOL    H3938621   1.009   2.459   3.357 -1.6496  0.7008  0.0447
  192MOL    H4038622   1.093   2.679   3.422 -0.8936  1.9506  0.6233
  192MOL    H4138623   0.932   2.696   3.330  0.8521  1.6975 -1.1208
  192MOL    O4238624   1.099   2.750   3.236 -0.3103 -0.5332 -0.1498
  192MOL    C4338625   1.059   2.881   3.255 -0.3536  0.0354  0.3238
  192MOL    C4438626   1.125   2.962   3.147  0.0110 -0.8412  0.1280
  192MOL    C4538627   1.123   3.109   3.174 -0.2566  0.5334  0.2787
  192MOL    H4638628   1.076   2.903   3.360  1.4188  1.2163 -0.1858
  192MOL    H4738629   0.950   2.889   3.245 -0.5621 -0.4934  2.0266
  192MOL    H4838630   1.231   2.947   3.129  0.3070  1.8667 -0.6441
  192MOL    H4938631   1.064   2.953   3.057 -0.8684 -0.5709  0.6835
  192MOL    H5038632   1.204   3.125   3.245  1.6221 -1.1861 -1.4268
  192MOL    H5138633   1.024   3.139   3.209 -0.9931  0.4932 -1.6949
  192MOL    O5238634   1.150   3.180   3.052 -1.0567 -0.5256  0.0126
  192MOL    C5338635   1.152   3.320   3.066 -0.0417 -0.4103  0.0879
  192MOL    C5438636   1.201   3.380   2.934  0.1448 -0.5895 -0.1209
  192MOL    C5538637   1.248   3.523   2.946 -0.4252 -0.1104  0.0414
  192MOL    H5638638   1.227   3.347   3.140 -1.8816 -0.8161  2.1401
  192MOL    H5738639   1.055   3.352   3.104 -0.1529 -0.7074  0.0621
  192MOL    H5838640   1.283   3.323   2.890 -0.3203 -1.2391 -0.1610
  192MOL    H5938641   1.123   3.378   2.858 -0.4667  0.4100  0.4647
  192MOL    H6038642   1.324   3.526   3.024 -0.7337  1.0900  0.3194
  192MOL    H6138643   1.166   3.587   2.978 -2.0308 -0.1225 -3.7517
  192MOL    O6238644   1.298   3.555   2.819 -0.4441 -0.3166  0.0439
  192MOL    C6338645   1.317   3.698   2.799 -0.1619  0.3442 -0.0730
  192MOL    C6438646   1.389   3.713   2.667 -0.1164 -0.1806  0.4342
  192MOL    C6538647   1.441   3.860   2.656 -0.2269  0.3577  1.2414
  192MOL    H6638648   1.372   3.737   2.886  0.0753  0.2987 -0.2022
  192MOL    H6738649   1.219   3.746   2.800 -0.3909 -0.1195  1.1926
  192MOL    H6838650   1.473   3.645   2.662 -1.9361 -2.4820  0.2152
  192MOL    H6938651   1.320   3.708   2.582  2.6244 -2.2205 -1.7447
  192MOL    H7038652   1.480   3.879   2.556  0.8987 -0.2339  1.5596
  192MOL    H7138653   1.504   3.879   2.742  0.7569  0.4777  0.5083
  192MOL    O7238654   1.324   3.944   2.665 -0.5777 -0.5151 -0.0637
  192MOL    C7338655   1.353   4.072   2.618 -0.1175  0.2042  0.2119
  192MOL    C7438656   1.248   4.168   2.670  0.6488 -0.1965  0.0932
  192MOL    C7538657   1.261   4.209   2.817  0.5190  0.1526 -0.4005
  192MOL    H7638658   1.347   4.066   2.509  1.2311  0.7542  0.1055
  192MOL    H7738659   1.456   4.102   2.633 -0.5273  1.2683  0.9390
  192MOL    H7838660   1.251   4.257   2.607  0.1127 -0.6747 -0.6149
  192MOL    H7938661   1.154   4.120   2.644  0.2432 -0.1705  1.4441
  192MOL    H8038662   1.360   4.250   2.835 -0.1388  2.3562 -1.6234
  192MOL    H8138663   1.253   4.124   2.885  0.1621  0.6636  0.1982
  192MOL    O8238664   1.157   4.300   2.862  0.0855  0.2887  0.0592
  192MOL    C8338665   1.060   4.249   2.953  0.5463 -0.1215  0.2051
  192MOL    C8438666   0.961   4.148   2.892  0.2897  0.3830  0.2714
  192MOL    C8538667   0.839   4.135   2.978  0.4241  0.0750 -0.8826
  192MOL    H8638668   1.008   4.337   2.992 -0.6680 -1.5667  1.9760
  192MOL    H8738669   1.106   4.204   3.042 -2.1040  0.0746  1.7339
  192MOL    H8838670   0.930   4.185   2.794  2.2304 -2.3451 -1.4337
  192MOL    H8938671   1.012   4.054   2.874  0.5944  0.2687  1.6909
  192MOL    H9038672   0.764   4.077   2.924  0.4534  0.6004 -1.4909
  192MOL    H9138673   0.798   4.233   3.002  1.4804  0.1221  0.8531
  192MOL    O9238674   0.874   4.062   3.098  0.1168  0.2991  0.0596
  192MOL    C9338675   0.760   4.040   3.182 -0.3744 -0.2390 -0.2816
  192MOL    C9438676   0.816   3.976   3.309 -0.4212  0.3482  0.0643
  192MOL    C9538677   0.710   3.923   3.394 -0.4401  0.2398  0.1537
  192MOL    H9638678   0.680   3.984   3.134  0.6346 -2.1019  0.1634
  192MOL    H9738679   0.719   4.139   3.202 -0.8205 -0.2830 -0.9582
  192MOL    H9838680   0.889   3.900   3.281 -2.4844 -0.7310 -2.5814
  192MOL    H9938681   0.856   4.052   3.377  0.6261 -0.3912  0.2843
  192MOL   H10038682   0.644   3.857   3.337 -1.5421 -0.0685  1.7417
  192MOL   H10138683   0.642   4.004   3.422 -0.8229  0.4720 -1.3829
  192MOL   O10238684   0.760   3.836   3.499  0.2955 -0.1950 -0.0673
  192MOL   C10338685   0.794   3.902   3.616  0.2402  0.8172 -0.3468
  192MOL   C10438686   0.661   3.893   3.699 -0.1237 -0.1371 -0.3393
  192MOL   C10538687   0.698   3.923   3.840  0.0494 -0.4651 -0.0811
  192MOL   H10638688   0.827   4.003   3.595  1.7656 -0.1571 -2.8872
  192MOL   H10738689   0.869   3.838   3.662 -3.0146 -3.6396 -0.8310
  192MOL   H10838690   0.595   3.974   3.668  0.7610  1.0742  0.8616
  192MOL   H10938691   0.605   3.800   3.701 -0.0173 -0.1767  2.9824
  192MOL   H11038692   0.710   4.031   3.845  0.6710 -0.5231 -0.1953
  192MOL   H11138693   0.787   3.874   3.882  1.8434  1.3125 -1.7139
  192MOL   O11238694   0.582   3.893   3.916  0.3721  0.3378 -0.0382
  192MOL   C11338695   0.561   3.970   4.031 -0.1604  0.6693  0.3764
  192MOL   C11438696   0.432   3.917   4.112  0.0076 -0.5314 -0.5025
  192MOL   C11538697   0.431   3.965   4.262  0.3927  0.5011 -0.2278
  192MOL   H11638698   0.547   4.074   4.003 -3.5724  0.3686  0.6924
  192MOL   H11738699   0.654   3.946   4.083  1.0184  0.9752 -1.5465
  192MOL   H11838700   0.342   3.959   4.069 -2.5456 -4.0925  1.1140
  192MOL   H11938701   0.416   3.810   4.110 -1.3406 -0.3752  0.9503
  192MOL   H12038702   0.487   4.057   4.274 -0.0710  0.8328 -0.6086
  192MOL   H12138703   0.486   3.890   4.319 -0.7482 -0.3929 -0.2668
  192MOL   O12238704   0.300   3.978   4.306  0.9472 -0.9170 -0.0057
  192MOL   C12338705   0.284   4.038   4.436  0.0209 -0.5510 -0.1115
  192MOL   C12438706   0.145   4.001   4.500 -0.1985 -0.6660 -0.4072
  192MOL   C12538707   0.135   4.065   4.641 -0.6833  0.6150  0.5015
  192MOL   H12638708   0.281   4.147   4.429 -1.4696 -0.4498  1.7392
  192MOL   H12738709   0.365   4.020   4.508 -0.4045 -1.3643  0.1688
  192MOL   H12838710   0.063   4.033   4.436  0.1316  0.7854 -0.1250
  192MOL   H12938711   0.129   3.894   4.499  1.5615 -0.9364 -2.6885
  192MOL   H13038712   0.136   4.174   4.630  0.1408  0.5240 -0.3600
  192MOL   H13138713   0.209   4.037   4.716 -0.8356 -3.9824 -0.9061
  192MOL   O13238714   0.005   4.040   4.684  0.2173  0.3311 -0.4901
  192MOL   C13338715   7.777   4.085   4.816 -1.2924  0.0043 -0.6935
  192MOL   C13438716   7.627   4.080   4.838  0.1037  0.5428  0.0644
  192MOL   C13538717   7.591   4.141   4.979  0.2799 -0.1875  0.9300
  192MOL   H13638718   0.015   4.190   4.830  0.1046 -0.3184 -0.7649
  192MOL   H13738719   0.055   4.030   4.882 -1.9721  0.6917  0.5767
  192MOL   H13838720   7.568   4.129   4.761  2.4822 -0.0261 -2.1902
  192MOL   H13938721   7.598   3.975   4.839  2.2442 -0.1840 -3.3605
  192MOL   H14038722   7.631   4.243   4.977 -1.5118  0.5125 -0.2876
  192MOL   H14138723   7.635   4.085   5.061  1.1901  0.3129  0.7919
  192MOL   O14238724   7.455   4.129   5.008  0.1812 -0.1716  0.6374
  192MOL   C14338725   7.429   4.185   5.141 -0.2878 -0.2562 -0.0854
  192MOL   C14438726   7.285   4.174   5.171  0.6905  0.0704 -0.2897
  192MOL   C14538727   7.186   4.264   5.098 -0.7878 -0.4911  0.0118
  192MOL   H14638728   7.467   4.284   5.166 -1.2797 -0.0597  0.7136
  192MOL   H14738729   7.468   4.119   5.218  1.5253  2.4101  1.3719
  192MOL   H14838730   7.246   4.076   5.146 -0.1666  0.4957 -0.6561
  192MOL   H14938731   7.276   4.190   5.278  0.1941 -1.9304 -0.0132
  192MOL   H15038732   7.195   4.232   4.994 -2.3584 -1.8987  0.2995
  192MOL   H15138733   7.222   4.367   5.110  0.5260 -1.1929  2.3068
  192MOL   O15238734   7.062   4.225   5.149  0.2665 -0.2739 -0.0427
  192MOL   C15338735   6.961   4.319   5.109  0.2364  0.5855  0.0949
  192MOL   C15438736   6.820   4.264   5.119  0.0693  0.3548 -0.3196
  192MOL   C15538737   6.721   4.369   5.064 -0.1168  0.1446 -0.2242
  192MOL   H15638738   6.980   4.348   5.005 -0.1854  0.7302  0.0585
  192MOL   H15738739   6.980   4.410   5.167  0.2238  0.6844 -0.0552
  192MOL   H15838740   6.817   4.172   5.061  0.9417 -0.5243  1.0033
  192MOL   H15938741   6.810   4.237   5.224  0.5115  0.8211 -0.1520
  192MOL   H16038742   6.717   4.369   4.955  1.4978  1.5463 -0.3067
  192MOL   H16138743   6.750   4.463   5.112 -1.1335  0.4615 -0.2211
  192MOL   O16238744   6.596   4.335   5.117 -0.6554 -0.2141  0.1756
  192MOL   C16338745   6.492   4.418   5.071  0.0995  0.4191 -0.5068
  192MOL   C16438746   6.355   4.388   5.132 -0.7145 -0.5973 -0.0956
  192MOL   C16538747   6.335   4.414   5.280  0.2828 -0.3164  0.1533
  192MOL   H16638748   6.478   4.389   4.966  0.9219 -0.0633 -0.4847
  192MOL   H16738749   6.516   4.524   5.078 -0.1127  0.4542 -0.2957
  192MOL   H16838750   6.278   4.442   5.079 -0.1291  0.2316 -0.1092
  192MOL   H16938751   6.321   4.285   5.121 -0.2199 -0.5729 -1.9740
  192MOL   H17038752   6.413   4.365   5.339  0.2981 -1.5812 -0.8978
  192MOL   H17138753   6.237   4.376   5.308 -0.0073  1.3038  1.4462
  192MOL   O17238754   6.356   4.551   5.304 -0.4585  0.1692 -0.0023
  192MOL   C17338755   6.361   4.587   5.442  0.1554  0.1308 -0.5064
  192MOL   C17438756   6.353   4.736   5.450 -0.0046 -0.2829 -0.4291
  192MOL   C17538757   6.326   4.788   5.594  0.3947  0.7530  0.1685
  192MOL   H17638758   6.451   4.549   5.490 -1.3480 -2.1941  0.5943
  192MOL   H17738759   6.279   4.536   5.494 -1.0004  0.8318 -1.6193
  192MOL   H17838760   6.445   4.778   5.408  0.5778 -1.3251 -0.1993
  192MOL   H17938761   6.269   4.766   5.388 -0.5581  0.0925  0.5016
  192MOL   H18038762   6.219   4.777   5.614  0.4092  2.0705  1.0686
  192MOL   H18138763   6.335   4.896   5.593  0.2802  0.7674  0.4611
  192MOL   O18238764   6.407   4.718   5.693  0.0161 -0.0588 -0.5981
  192MOL   C18338765   6.397   4.770   5.818 -0.1179  0.1779 -0.1789
  192MOL   C18438766   6.473   4.668   5.905 -0.3397 -0.5702  0.1153
  192MOL   C18538767   6.404   4.526   5.911 -0.6286  0.2112  0.0770
  192MOL   H18638768   6.295   4.779   5.854  0.2549  0.8572  0.7334
  192MOL   H18738769   6.435   4.872   5.807  1.0129 -0.0816  1.2070
  192MOL   H18838770   6.578   4.654   5.876 -0.4026  0.0135 -0.4077
  192MOL   H18938771   6.483   4.717   6.001  0.3881 -0.1352 -0.1745
  192MOL   H19038772   6.405   4.482   5.812  2.8775 -2.5663  1.2590
  192MOL   H19138773   6.297   4.539   5.931 -0.6333  3.3068 -1.5913
  192MOL   O19238774   6.464   4.450   6.016  0.0669  0.0612  0.2749
  192MOL   C19338775   6.388   4.336   6.029 -0.5386  0.3419 -0.1344
  192MOL   C19438776   6.431   4.239   6.142 -0.4443 -0.6591 -0.0536
  192MOL   C19538777   6.349   4.109   6.146 -0.3221  0.3797 -0.4448
  192MOL   H19638778   6.401   4.284   5.933 -0.3463  0.6453 -0.2731
  192MOL   H19738779   6.281   4.349   6.044 -1.0679 -1.5552 -1.9948
  192MOL   H19838780   6.533   4.203   6.128  0.0661 -0.4809  2.9344
  192MOL   H19938781   6.423   4.284   6.241  0.3529 -0.7476  0.0550
  192MOL   H20038782   6.367   4.045   6.061 -1.4257 -0.0569 -0.3589
  192MOL   H20138783   6.243   4.135   6.155 -0.9626 -2.0190 -0.7284
  192MOL   H20238784   6.375   4.055   6.237 -0.0342  0.9873 -0.1609
  193MOL     O138785   4.611   1.866   7.399 -0.0738 -0.4893 -0.0019
  193MOL     C238786   4.644   1.995   7.351 -0.8938  0.2191 -0.3159
  193MOL     C338787   4.527   2.047   7.262 -0.6865  1.0713 -0.1356
  193MOL     C438788   4.570   2.177   7.190 -0.2227 -0.9835 -0.1893
  193MOL     H538789   4.732   1.987   7.287 -0.3001 -0.3581  0.5673
  193MOL     H638790   4.677   2.063   7.429  0.3177 -0.9511  0.2122
  193MOL     H738791   4.491   1.982   7.182 -0.6526  0.1418  0.6023
  193MOL     H838792   4.437   2.059   7.321 -0.3499 -0.3116  0.6753
  193MOL     H938793   4.612   2.249   7.260  1.1438 -1.3470 -0.6260
  193MOL    H1038794   4.484   2.222   7.140  0.8065  2.3359  0.9463
  193MOL    H1138795   4.693   1.821   7.390  1.0348  1.4938  0.0898
  193MOL    O1238796   4.669   2.137   7.092  0.0929  0.2547  0.3118
  193MOL    C1338797   4.674   2.227   6.973 -0.7488  0.6419 -0.6236
  193MOL    C1438798   4.777   2.164   6.873  0.0596 -0.1949  0.1095
  193MOL    C1538799   4.927   2.195   6.911  0.3073 -0.4192 -0.2778
  193MOL    H1638800   4.710   2.327   6.998  2.4352 -0.3699 -1.0314
  193MOL    H1738801   4.574   2.228   6.929 -0.8876  0.3510 -0.3211
  193MOL    H1838802   4.762   2.056   6.869  0.7732 -0.3923  2.0521
  193MOL    H1938803   4.750   2.197   6.773 -1.5612 -0.9942  0.2614
  193MOL    H2038804   4.949   2.165   7.013  1.6808 -1.9350 -0.9957
  193MOL    H2138805   4.941   2.303   6.900  0.3999 -0.3912  0.0956
  193MOL    O2238806   5.039   2.142   6.837  0.3400 -0.3686 -0.1459
  193MOL    C2338807   5.016   2.013   6.799 -0.3253 -0.4596  0.3905
  193MOL    C2438808   5.149   1.958   6.741 -0.3744 -0.0482 -0.1024
  193MOL    C2538809   5.136   1.805   6.701  0.1205 -0.0754 -0.5312
  193MOL    H2638810   4.940   2.008   6.720 -0.2787 -1.8921  0.4336
  193MOL    H2738811   4.983   1.957   6.886 -0.1163  0.7450  1.2619
  193MOL    H2838812   5.183   2.013   6.653 -1.4894 -0.7921 -1.0009
  193MOL    H2938813   5.234   1.974   6.808 -1.0713  1.1012  0.5167
  193MOL    H3038814   5.063   1.803   6.620 -1.0674 -0.4625  0.5322
  193MOL    H3138815   5.093   1.760   6.791 -0.6467 -0.2484 -0.9724
  193MOL    O3238816   5.262   1.750   6.667 -0.2753  0.5680  0.6192
  193MOL    C3338817   5.248   1.621   6.604 -0.4681  0.3175 -0.4037
  193MOL    C3438818   5.389   1.562   6.587  0.0490  0.4201  0.1009
  193MOL    C3538819   5.493   1.662   6.549 -0.3956  0.2488 -0.4222
  193MOL    H3638820   5.186   1.632   6.515 -1.3651  1.1142  0.3151
  193MOL    H3738821   5.176   1.559   6.657 -0.2559  1.4078  1.1907
  193MOL    H3838822   5.421   1.505   6.674  1.7460  1.3547  0.0944
  193MOL    H3938823   5.382   1.489   6.505 -0.7368 -0.0203  0.5520
  193MOL    H4038824   5.501   1.730   6.634 -0.3960 -0.9852  0.5740
  193MOL    H4138825   5.449   1.718   6.466  1.5421  0.1603 -1.5290
  193MOL    O4238826   5.609   1.606   6.500  0.3663  0.1919 -0.0634
  193MOL    C4338827   5.695   1.559   6.612 -0.1542 -0.5560  1.1851
  193MOL    C4438828   5.841   1.530   6.566 -0.0028  0.8151  0.3674
  193MOL    C4538829   5.938   1.653   6.538  0.4322 -0.3449 -0.0246
  193MOL    H4638830   5.648   1.474   6.662 -0.5562 -0.4256  1.0269
  193MOL    H4738831   5.702   1.646   6.676  1.9679  1.1514 -1.2814
  193MOL    H4838832   5.883   1.466   6.643 -0.6550 -0.9437 -0.6952
  193MOL    H4938833   5.840   1.471   6.474 -0.0850  0.9665  0.2700
  193MOL    H5038834   6.036   1.616   6.508 -0.4741 -2.1276 -0.8702
  193MOL    H5138835   5.951   1.727   6.616 -0.8518  1.7756 -1.7559
  193MOL    O5238836   5.885   1.710   6.421  0.7858  0.1643 -0.5740
  193MOL    C5338837   5.956   1.834   6.384  0.1019  0.3076 -0.0406
  193MOL    C5438838   5.904   1.893   6.252  0.3219 -0.4450 -0.0151
  193MOL    C5538839   5.973   2.020   6.196 -0.0545  1.4388 -0.8674
  193MOL    H5638840   6.063   1.813   6.387 -0.0555 -0.5783 -0.6968
  193MOL    H5738841   5.927   1.899   6.467 -1.3800 -2.3230  1.5954
  193MOL    H5838842   5.926   1.814   6.180  0.0465 -1.1101  0.6271
  193MOL    H5938843   5.798   1.918   6.248  0.6161  0.7359 -0.6733
  193MOL    H6038844   6.077   1.997   6.172 -0.5036 -0.6437 -0.9619
  193MOL    H6138845   5.982   2.092   6.277  1.9676  0.7161 -0.4212
  193MOL    O6238846   5.900   2.058   6.078  0.0767  0.0089 -0.5426
  193MOL    C6338847   5.952   2.170   6.019 -0.2346 -0.2749  0.3874
  193MOL    C6438848   5.891   2.209   5.889  0.6949 -0.8559  0.2822
  193MOL    C6538849   5.968   2.311   5.803 -0.4353  0.3207  0.1154
  193MOL    H6638850   6.057   2.146   6.003 -0.4260 -1.2228  0.5237
  193MOL    H6738851   5.941   2.247   6.095  1.0982  1.1413 -0.8189
  193MOL    H6838852   5.881   2.129   5.817  2.9098 -1.2669  0.4118
  193MOL    H6938853   5.788   2.241   5.905  0.2440 -1.5934 -1.1713
  193MOL    H7038854   6.060   2.260   5.774  0.2802  0.6016  1.8449
  193MOL    H7138855   6.009   2.388   5.868  0.2872  1.1054 -1.2429
  193MOL    O7238856   5.892   2.361   5.694  0.1861 -0.1745  0.2062
  193MOL    C7338857   5.966   2.360   5.570  0.8592  0.4780 -0.8983
  193MOL    C7438858   5.895   2.438   5.462  0.4102  0.4787 -0.5025
  193MOL    C7538859   5.976   2.462   5.333  0.0954  0.6801 -0.6396
  193MOL    H7638860   5.964   2.253   5.549 -1.9266  0.1040  1.0273
  193MOL    H7738861   6.065   2.404   5.581 -0.0934  2.0310  1.9777
  193MOL    H7838862   5.806   2.385   5.426  0.6134 -0.8172  0.8704
  193MOL    H7938863   5.848   2.528   5.502 -2.4633 -0.3865 -1.8114
  193MOL    H8038864   5.920   2.484   5.242  3.6381 -0.4981 -3.2006
  193MOL    H8138865   6.034   2.373   5.307 -1.5177 -0.1988 -1.3138
  193MOL    O8238866   6.069   2.563   5.361 -0.6641 -0.3239  0.2164
  193MOL    C8338867   6.168   2.559   5.254  0.2309  0.2848  0.3708
  193MOL    C8438868   6.281   2.662   5.282  0.0862 -0.1883  0.0878
  193MOL    C8538869   6.372   2.622   5.400 -0.1445 -0.4171 -0.4477
  193MOL    H8638870   6.129   2.599   5.161 -1.6693 -0.1511  0.9634
  193MOL    H8738871   6.220   2.466   5.231 -2.4255 -1.1343 -0.0944
  193MOL    H8838872   6.336   2.658   5.188  0.3503  1.3647  0.1584
  193MOL    H8938873   6.247   2.766   5.284  0.3728 -0.0847  3.6420
  193MOL    H9038874   6.395   2.515   5.400 -1.1163 -0.6508  1.0440
  193MOL    H9138875   6.310   2.628   5.489  1.6045  0.8602  0.7012
  193MOL    O9238876   6.485   2.709   5.410  0.9995  0.1670 -0.0967
  193MOL    C9338877   6.553   2.689   5.536  0.3837 -0.1418 -0.0496
  193MOL    C9438878   6.674   2.781   5.527 -0.6230 -0.0625 -0.3460
  193MOL    C9538879   6.768   2.761   5.645  1.1342 -0.3726 -0.2321
  193MOL    H9638880   6.590   2.588   5.519  0.1354 -0.1168 -0.7780
  193MOL    H9738881   6.490   2.697   5.624 -2.1396 -3.6778 -1.4237
  193MOL    H9838882   6.730   2.749   5.438  0.3773  0.8689 -0.0712
  193MOL    H9938883   6.654   2.885   5.504 -2.4215  0.0050  1.5023
  193MOL   H10038884   6.724   2.790   5.741 -0.4421 -3.2520 -0.0425
  193MOL   H10138885   6.856   2.819   5.615 -0.4198  0.3213 -3.6872
  193MOL   O10238886   6.803   2.622   5.651  0.3113  0.4168 -0.3895
  193MOL   C10338887   6.877   2.577   5.763 -0.1265 -0.7885  0.3162
  193MOL   C10438888   6.869   2.416   5.782  0.9442 -0.5657 -0.0812
  193MOL   C10538889   6.960   2.333   5.691 -0.1865 -0.0385 -0.0045
  193MOL   H10638890   6.836   2.640   5.842 -1.7305 -0.1546 -0.9766
  193MOL   H10738891   6.984   2.596   5.756 -0.4745  1.1804 -0.0110
  193MOL   H10838892   6.905   2.389   5.881  0.1114 -3.0274 -0.4377
  193MOL   H10938893   6.762   2.396   5.773  0.9788 -1.4888  1.4936
  193MOL   H11038894   6.950   2.227   5.713  0.8449  0.3790  2.7312
  193MOL   H11138895   7.066   2.345   5.711 -0.3435  0.7984  0.3640
  193MOL   O11238896   6.930   2.363   5.551  0.5746  0.1088 -0.0580
  193MOL   C11338897   6.810   2.307   5.500 -0.2467 -0.4936 -1.0696
  193MOL   C11438898   6.771   2.366   5.368  0.0456  0.4931 -0.1223
  193MOL   C11538899   6.660   2.292   5.293 -0.2310  0.6193  0.8260
  193MOL   H11638900   6.724   2.313   5.566 -1.9191 -0.0098 -3.2216
  193MOL   H11738901   6.840   2.202   5.500  0.6461 -0.2422 -1.3236
  193MOL   H11838902   6.744   2.468   5.393  0.6922  0.7287 -0.3642
  193MOL   H11938903   6.867   2.364   5.315 -0.5791  3.4297 -1.4498
  193MOL   H12038904   6.570   2.276   5.352 -0.3379  0.2120  0.5499
  193MOL   H12138905   6.701   2.194   5.269 -2.1858 -0.0384  0.1253
  193MOL   O12238906   6.614   2.362   5.178  0.2377 -0.2109 -0.1217
  193MOL   C12338907   6.490   2.313   5.127 -0.2596 -1.1863  0.5815
  193MOL   C12438908   6.440   2.367   4.992  0.1251  0.3641 -0.5001
  193MOL   C12538909   6.327   2.283   4.921 -0.0688 -0.1261  0.2412
  193MOL   H12638910   6.420   2.342   5.205 -3.5573 -0.0848 -2.6112
  193MOL   H12738911   6.491   2.204   5.119  1.9309 -1.1371 -0.3435
  193MOL   H12838912   6.404   2.468   5.010 -0.3580  0.1675 -0.3513
  193MOL   H12938913   6.509   2.379   4.908  1.9101  0.3768  0.9273
  193MOL   H13038914   6.251   2.254   4.994 -0.7065 -0.8500 -0.6975
  193MOL   H13138915   6.369   2.200   4.865  2.0397 -1.3440  3.4497
  193MOL   O13238916   6.269   2.362   4.818  0.3595  0.1694 -0.0140
  193MOL   C13338917   6.146   2.428   4.859 -0.3124 -0.1262  0.1519
  193MOL   C13438918   6.135   2.566   4.794  0.0541  0.4577 -0.0479
  193MOL   C13538919   6.252   2.662   4.823 -0.0867  0.3356  0.0893
  193MOL   H13638920   6.150   2.458   4.963  0.6623  0.3578 -0.0170
  193MOL   H13738921   6.065   2.359   4.839  1.3263 -1.8212 -0.8217
  193MOL   H13838922   6.140   2.556   4.685  1.6662  1.9128 -0.1347
  193MOL   H13938923   6.038   2.612   4.812 -0.1552 -0.1211  0.3284
  193MOL   H14038924   6.257   2.731   4.739 -0.1834  2.6499  1.9068
  193MOL   H14138925   6.346   2.612   4.842  0.2379  1.4764  1.6031
  193MOL   O14238926   6.206   2.748   4.931 -0.3178 -0.0832  0.3189
  193MOL   C14338927   6.302   2.850   4.944 -0.5430 -0.2705 -0.0234
  193MOL   C14438928   6.235   2.945   5.045  0.1602 -0.1806  0.1929
  193MOL   C14538929   6.110   3.008   4.983 -0.3404  0.6186 -0.4992
  193MOL   H14638930   6.314   2.894   4.844  0.2037 -0.1669  0.1066
  193MOL   H14738931   6.394   2.805   4.981  0.2928  1.1538 -0.3227
  193MOL   H14838932   6.211   2.896   5.140 -0.6073  0.2946  0.2485
  193MOL   H14938933   6.309   3.021   5.064 -0.6440  0.6803 -0.0702
  193MOL   H15038934   6.034   2.933   4.959  0.4602 -1.4854  3.1942
  193MOL   H15138935   6.136   3.053   4.887 -1.1151 -0.3942 -1.1994
  193MOL   O15238936   6.058   3.112   5.070  0.1948 -0.4391 -0.2590
  193MOL   C15338937   5.958   3.197   5.012 -0.2442  0.5815  0.6323
  193MOL   C15438938   5.917   3.289   5.126 -0.0618 -0.3043  0.1554
  193MOL   C15538939   5.823   3.404   5.094 -0.0725  0.1513 -0.1962
  193MOL   H15638940   5.877   3.137   4.970  1.3895 -1.8446  0.8725
  193MOL   H15738941   6.008   3.265   4.944  3.5759  0.3176  3.0117
  193MOL   H15838942   5.870   3.227   5.203 -0.7405  0.4769  0.3765
  193MOL   H15938943   6.006   3.341   5.160 -0.9181 -0.6194  2.9862
  193MOL   H16038944   5.885   3.479   5.043  0.1596 -0.1344 -0.3403
  193MOL   H16138945   5.785   3.460   5.179 -0.7605  1.2569 -1.2138
  193MOL   O16238946   5.719   3.348   5.009  0.2116 -0.2562  1.0606
  193MOL   C16338947   5.664   3.457   4.936 -0.1699  0.5088  0.0988
  193MOL   C16438948   5.560   3.406   4.830 -0.3150 -0.0258 -0.0876
  193MOL   C16538949   5.477   3.522   4.784  0.0833  0.3441 -0.2452
  193MOL   H16638950   5.740   3.525   4.895  0.9408 -1.2115 -0.7568
  193MOL   H16738951   5.606   3.518   5.005 -1.0280  1.0635 -1.0912
  193MOL   H16838952   5.601   3.350   4.746  3.3095  0.6656  1.1181
  193MOL   H16938953   5.494   3.337   4.883  0.5102 -1.0369 -0.3669
  193MOL   H17038954   5.540   3.592   4.729  0.9750  0.3058  0.7238
  193MOL   H17138955   5.442   3.581   4.869  2.5993  0.4170  0.7614
  193MOL   O17238956   5.371   3.468   4.706 -0.5685 -0.4735  0.1921
  193MOL   C17338957   5.324   3.569   4.628 -0.7972  0.8673  0.0387
  193MOL   C17438958   5.253   3.513   4.509  1.0779  0.5230 -0.4386
  193MOL   C17538959   5.174   3.617   4.426 -0.9034 -0.4577  0.7268
  193MOL   H17638960   5.394   3.644   4.590  1.2832 -1.5156 -0.9796
  193MOL   H17738961   5.256   3.626   4.692 -0.3397 -1.0344  2.2777
  193MOL   H17838962   5.320   3.447   4.453  0.0520  0.4226 -1.5687
  193MOL   H17938963   5.188   3.438   4.553  2.1120  1.7354  3.3380
  193MOL   H18038964   5.245   3.691   4.389  0.3926 -1.4477  1.2008
  193MOL   H18138965   5.095   3.657   4.489  0.1424  0.0315  1.7396
  193MOL   O18238966   5.126   3.541   4.320  0.2236  0.0747  0.0980
  193MOL   C18338967   5.051   3.624   4.232 -0.3628 -0.1408 -0.1186
  193MOL   C18438968   4.960   3.561   4.126  0.2745 -0.6701 -0.8400
  193MOL   C18538969   5.044   3.477   4.025 -0.0786 -0.3429 -0.9600
  193MOL   H18638970   5.126   3.689   4.186  1.6727 -2.1032  0.2998
  193MOL   H18738971   4.990   3.686   4.297  1.0730 -1.1420  2.2637
  193MOL   H18838972   4.875   3.504   4.163  0.9121  0.2276  2.2584
  193MOL   H18938973   4.921   3.645   4.069  0.1482  0.4896  0.9023
  193MOL   H19038974   5.082   3.388   4.073 -0.4015  1.3646  2.6360
  193MOL   H19138975   5.128   3.542   4.001 -1.0802  2.3290  2.3398
  193MOL   O19238976   4.956   3.456   3.918  0.6229 -0.0287  0.5091
  193MOL   C19338977   4.998   3.355   3.834 -0.2872 -0.0801  0.2193
  193MOL   C19438978   4.928   3.339   3.704  0.0094  0.6283  0.4235
  193MOL   C19538979   4.786   3.296   3.729  0.1580  0.0182  0.4975
  193MOL   H19638980   5.004   3.258   3.884 -1.6729 -0.4193 -0.2644
  193MOL   H19738981   5.106   3.367   3.820  0.1804 -1.5096  2.4503
  193MOL   H19838982   4.934   3.429   3.643 -0.2163 -1.0657 -2.1661
  193MOL   H19938983   4.979   3.264   3.645 -0.6592  0.1889  0.3971
  193MOL   H20038984   4.772   3.204   3.785 -0.8789 -0.6675 -0.8392
  193MOL   H20138985   4.731   3.285   3.635  2.4867  1.5319 -1.1110
  193MOL   H20238986   4.736   3.358   3.804 -2.3797 -1.3219 -0.0485
  194MOL     O138987   2.056   2.317   1.051 -0.1420 -0.4544 -0.4827
  194MOL     C238988   2.061   2.455   1.015  0.6843 -0.2310 -0.6402
  194MOL     C338989   2.035   2.538   1.138 -0.2090  0.3476 -0.0208
  194MOL     C438990   2.014   2.688   1.108 -0.4865  0.1593 -0.1672
  194MOL     H538991   1.973   2.467   0.952 -0.4519 -0.3565  0.9246
  194MOL     H638992   2.141   2.489   0.949 -0.3831 -1.0770 -2.4034
  194MOL     H738993   1.953   2.493   1.194 -0.7377  1.2066 -0.0960
  194MOL     H838994   2.122   2.527   1.201  1.0120 -0.0554 -1.7357
  194MOL     H938995   1.914   2.710   1.070 -0.8327 -0.3731  0.4211
  194MOL    H1038996   2.079   2.721   1.028  0.1697 -2.6129 -0.8184
  194MOL    H1138997   1.982   2.291   1.104  1.3361  1.2931  2.5516
  194MOL    O1238998   2.027   2.763   1.230 -0.0494  0.5569 -0.4981
  194MOL    C1338999   2.024   2.904   1.226  0.1186 -0.0475  0.4615
  194MOL    C1439000   2.151   2.963   1.156 -0.3151  0.2730  0.4278
  194MOL    C1539001   2.172   3.116   1.175  0.8888  0.2082  0.7439
  194MOL    H1639002   2.024   2.954   1.323 -2.6283  1.3159 -0.1949
  194MOL    H1739003   1.935   2.926   1.167 -0.0740  1.1575  1.1778
  194MOL    H1839004   2.237   2.901   1.182 -1.3291 -0.6937  1.5432
  194MOL    H1939005   2.142   2.945   1.049  0.9184  2.3526 -0.0509
  194MOL    H2039006   2.193   3.146   1.277 -0.0719  0.4497  0.8809
  194MOL    H2139007   2.079   3.172   1.164  0.0878 -0.6989  2.7500
  194MOL    O2239008   2.271   3.161   1.086  0.1250  0.4396 -0.3575
  194MOL    C2339009   2.397   3.171   1.146  0.1046 -0.5686  0.0808
  194MOL    C2439010   2.508   3.206   1.040 -0.4328  1.0406  0.3149
  194MOL    C2539011   2.508   3.090   0.941  0.0872  0.9180  0.5623
  194MOL    H2639012   2.416   3.078   1.199  0.6475 -0.0091  0.8873
  194MOL    H2739013   2.407   3.247   1.224 -0.4190 -0.4821  0.0645
  194MOL    H2839014   2.486   3.301   0.991 -3.8603  0.4714  0.6127
  194MOL    H2939015   2.609   3.201   1.082 -0.2925  0.7434 -0.0500
  194MOL    H3039016   2.411   3.085   0.892 -0.0128  0.7405  0.7760
  194MOL    H3139017   2.532   3.000   0.998  0.2135  2.9341  3.8715
  194MOL    O3239018   2.599   3.115   0.835  0.1414 -0.4759  0.6614
  194MOL    C3339019   2.640   2.997   0.769  0.2650  0.8236  0.5881
  194MOL    C3439020   2.743   3.033   0.662 -0.3332 -0.3138  0.2713
  194MOL    C3539021   2.681   3.122   0.551 -0.7353  0.2002  0.0117
  194MOL    H3639022   2.548   2.953   0.730 -0.0594  0.2996  1.9180
  194MOL    H3739023   2.679   2.924   0.839  0.5401 -0.8489 -1.2622
  194MOL    H3839024   2.829   3.076   0.714 -1.3773  2.2815 -0.0331
  194MOL    H3939025   2.786   2.950   0.607  0.7546  0.4616 -0.0620
  194MOL    H4039026   2.627   3.205   0.596 -0.4701  0.2954  0.1548
  194MOL    H4139027   2.610   3.053   0.505  1.7841 -0.4245 -3.0834
  194MOL    O4239028   2.789   3.165   0.464  0.7255  0.0539 -0.5230
  194MOL    C4339029   2.754   3.280   0.386 -0.7727  0.4979 -0.3134
  194MOL    C4439030   2.861   3.284   0.272 -0.0887  0.1395  0.1519
  194MOL    C4539031   2.826   3.385   0.159 -0.0745  0.3949  0.3613
  194MOL    H4639032   2.754   3.361   0.458 -1.4850 -0.4598  0.7923
  194MOL    H4739033   2.647   3.279   0.365 -1.0735 -0.0675  1.1794
  194MOL    H4839034   2.958   3.311   0.314 -0.2243 -0.4346  0.8386
  194MOL    H4939035   2.883   3.187   0.228  2.5558  1.7882 -2.2699
  194MOL    H5039036   2.911   3.394   0.091 -1.0483 -0.6307 -1.0016
  194MOL    H5139037   2.800   3.482   0.201 -0.4497  0.9427 -1.1036
  194MOL    O5239038   2.719   3.329   0.084 -0.4748 -0.4355  0.1050
  194MOL    C5339039   2.681   3.399   7.755  0.1441  0.5067  0.5065
  194MOL    C5439040   2.571   3.308   7.681  0.1642 -0.0189 -0.0225
  194MOL    C5539041   2.532   3.368   7.544  0.3573 -0.1345  0.5917
  194MOL    H5639042   2.760   3.411   7.681 -0.2532  2.6003  0.4194
  194MOL    H5739043   2.643   3.497   7.782  1.5490  1.3517 -0.5322
  194MOL    H5839044   2.613   3.208   7.669 -0.3815 -0.4706  1.8034
  194MOL    H5939045   2.480   3.296   7.739  0.0967  2.8839  0.5614
  194MOL    H6039046   2.611   3.406   7.479  0.5060  1.2809  1.5772
  194MOL    H6139047   2.464   3.451   7.558 -1.1294 -1.2755  0.2013
  194MOL    O6239048   2.445   3.265   7.488 -0.5378 -0.2288 -0.4735
  194MOL    C6339049   2.400   3.278   7.358 -0.0227 -0.7527  0.6377
  194MOL    C6439050   2.289   3.177   7.321  0.0204 -0.6132  0.3169
  194MOL    C6539051   2.226   3.197   7.184  0.6261 -0.3183 -0.0483
  194MOL    H6639052   2.481   3.276   7.285  0.0144 -1.1650  0.6866
  194MOL    H6739053   2.357   3.378   7.354  0.3669 -0.6157 -0.1413
  194MOL    H6839054   2.329   3.075   7.321 -1.5707 -1.3062 -2.6716
  194MOL    H6939055   2.213   3.168   7.399  0.6860  0.4005  1.0947
  194MOL    H7039056   2.140   3.135   7.159  0.7961 -0.0913 -1.2034
  194MOL    H7139057   2.311   3.180   7.118  2.2832  2.5271  1.2422
  194MOL    O7239058   2.189   3.337   7.171  0.0178  0.1539 -0.1772
  194MOL    C7339059   2.113   3.378   7.061 -0.0835  0.1725  0.2132
  194MOL    C7439060   2.109   3.525   7.036  0.0062  0.0589 -0.2200
  194MOL    C7539061   2.243   3.583   6.978 -0.0917 -0.1396  1.1810
  194MOL    H7639062   2.009   3.343   7.061 -0.0385  0.0094 -1.8884
  194MOL    H7739063   2.160   3.333   6.974  0.6422  2.3918 -0.5682
  194MOL    H7839064   2.029   3.536   6.962 -0.1944  2.0883  0.2691
  194MOL    H7939065   2.072   3.571   7.127  1.7609 -1.9751  1.5720
  194MOL    H8039066   2.283   3.538   6.887  0.7568  5.9273 -1.6341
  194MOL    H8139067   2.330   3.570   7.043 -0.2307  1.0043  1.5997
  194MOL    O8239068   2.227   3.723   6.962 -0.0058  0.2882  0.7144
  194MOL    C8339069   2.238   3.807   7.076 -0.0531  0.1648 -0.0682
  194MOL    C8439070   2.246   3.959   7.037 -0.0474  0.0056  0.1851
  194MOL    C8539071   2.106   4.019   7.001  0.4560  0.1500 -0.2375
  194MOL    H8639072   2.326   3.780   7.134 -1.4520 -0.2599  1.9161
  194MOL    H8739073   2.157   3.792   7.147  2.0068  0.2439  2.3856
  194MOL    H8839074   2.286   4.021   7.117 -1.2607  1.5813 -0.4103
  194MOL    H8939075   2.312   3.973   6.951  1.1073 -1.1377  0.8533
  194MOL    H9039076   2.069   3.982   6.906  0.9023 -0.1904 -0.2755
  194MOL    H9139077   2.118   4.127   7.002  2.5263 -0.0548 -1.0464
  194MOL    O9239078   2.004   3.982   7.095  0.2713 -0.7053 -0.6554
  194MOL    C9339079   2.022   4.039   7.223 -0.3330 -0.0159  0.2175
  194MOL    C9439080   1.907   3.990   7.309 -0.3807  0.5148  0.5637
  194MOL    C9539081   1.906   4.047   7.450  0.0679 -0.0831  0.0767
  194MOL    H9639082   2.013   4.148   7.222  0.3683  0.0403 -0.3229
  194MOL    H9739083   2.114   4.002   7.268  1.2526  2.0612 -1.2002
  194MOL    H9839084   1.823   4.028   7.250 -0.2029 -0.5904 -0.4208
  194MOL    H9939085   1.894   3.882   7.322  1.2028 -0.0226 -1.9452
  194MOL   H10039086   2.007   4.049   7.491  0.0984 -0.5338  0.0185
  194MOL   H10139087   1.849   3.986   7.520 -0.3656  0.7052  0.4245
  194MOL   O10239088   1.859   4.183   7.452  0.0612  0.2499 -0.1767
  194MOL   C10339089   1.833   4.222   7.588 -0.3171  0.0066  0.6230
  194MOL   C10439090   1.761   4.360   7.577 -0.1945  0.3455 -0.5320
  194MOL   C10539091   1.616   4.337   7.526  0.0230  0.1240  0.5152
  194MOL   H10639092   1.931   4.236   7.634 -0.0111 -1.1038  0.3136
  194MOL   H10739093   1.772   4.155   7.648  0.2782 -0.6703  0.4842
  194MOL   H10839094   1.765   4.402   7.677 -1.2495 -1.9564  0.5114
  194MOL   H10939095   1.805   4.435   7.511 -1.3847  1.7094  0.1936
  194MOL   H11039096   1.556   4.299   7.608 -1.8579 -1.6597 -1.6135
  194MOL   H11139097   1.623   4.261   7.448  1.9894 -0.0342  0.8224
  194MOL   O11239098   1.571   4.461   7.475  0.1872 -0.6289  0.1376
  194MOL   C11339099   1.454   4.451   7.394 -0.5042 -0.4554 -0.0201
  194MOL   C11439100   1.383   4.583   7.380  0.1493  0.3453  0.1067
  194MOL   C11539101   1.316   4.630   7.510 -0.1020  0.0165  0.2316
  194MOL   H11639102   1.387   4.375   7.433 -0.6855  0.1402  0.8325
  194MOL   H11739103   1.488   4.425   7.294  1.4386 -2.4311  1.1036
  194MOL   H11839104   1.451   4.660   7.341  2.1516 -0.5916  1.6916
  194MOL   H11939105   1.290   4.568   7.325  0.2613 -0.9238  0.2634
  194MOL   H12039106   1.388   4.661   7.586  1.2445 -0.1030 -0.9794
  194MOL   H12139107   1.265   4.551   7.564  0.6453 -0.0829  0.8048
  194MOL   O12239108   1.223   4.731   7.496 -0.2212 -0.2051  0.0801
  194MOL   C12339109   1.116   4.738   7.593 -0.2185 -0.2188 -1.0648
  194MOL   C12439110   1.030   4.858   7.558  0.1100  0.1166  0.2044
  194MOL   C12539111   0.902   4.885   7.627 -0.7920 -0.2269 -0.2881
  194MOL   H12639112   1.157   4.735   7.694  1.3000 -0.9717 -1.6854
  194MOL   H12739113   1.053   4.650   7.593  1.5686 -1.5719  1.7740
  194MOL   H12839114   1.094   4.946   7.557 -0.3752  0.5196  2.4252
  194MOL   H12939115   1.001   4.853   7.453 -0.6519  2.0422  0.2963
  194MOL   H13039116   0.913   4.931   7.725  0.2621  0.4974 -0.7348
  194MOL   H13139117   0.848   4.791   7.638 -1.0305 -0.3050 -2.0345
  194MOL   O13239118   0.826   4.981   7.546 -0.2958  0.2079  0.0822
  194MOL   C13339119   0.721   5.038   7.618 -0.3834  0.6024 -0.7594
  194MOL   C13439120   0.636   5.087   7.502  0.6428 -0.2277  0.6958
  194MOL   C13539121   0.498   5.154   7.550  0.5524 -0.0615 -0.4011
  194MOL   H13639122   0.758   5.112   7.689  2.0985 -0.5783 -0.7498
  194MOL   H13739123   0.670   4.963   7.677 -0.5685 -0.4338 -2.2187
  194MOL   H13839124   0.689   5.162   7.443  2.1585 -0.7168  1.3948
  194MOL   H13939125   0.609   5.010   7.430 -0.4243  0.5259  0.2694
  194MOL   H14039126   0.525   5.231   7.623  0.7258 -0.9864  0.5073
  194MOL   H14139127   0.450   5.069   7.598  1.5543 -0.6860 -0.4739
  194MOL   O14239128   0.405   5.203   7.446 -0.0430 -0.0885 -0.1900
  194MOL   C14339129   0.276   5.218   7.502 -0.1691  0.3020 -0.0648
  194MOL   C14439130   0.180   5.287   7.413  0.6309 -0.3924  0.3482
  194MOL   C14539131   0.033   5.256   7.456  0.0992 -0.2421  0.3233
  194MOL   H14639132   0.281   5.267   7.600 -0.3650  0.7262 -0.2674
  194MOL   H14739133   0.237   5.116   7.503  0.7906 -0.1189  4.2718
  194MOL   H14839134   0.205   5.393   7.405  0.1599  0.0786  4.3198
  194MOL   H14939135   0.194   5.246   7.313 -1.1407  3.0956 -1.4367
  194MOL   H15039136   0.012   5.300   7.553 -0.2802  1.4704 -0.5128
  194MOL   H15139137   0.029   5.150   7.481 -0.3660 -0.3029  0.0041
  194MOL   O15239138   7.733   5.295   7.357  0.8017  0.7569  0.5136
  194MOL   C15339139   7.601   5.258   7.396 -0.8206 -0.1249  0.1759
  194MOL   C15439140   7.513   5.275   7.273  0.5235  0.1081  0.3988
  194MOL   C15539141   7.367   5.256   7.291  0.9544  0.4157 -0.7038
  194MOL   H15639142   7.555   5.313   7.478 -1.4112 -0.9894  0.4343
  194MOL   H15739143   7.601   5.161   7.446  1.6994  0.3387  1.1399
  194MOL   H15839144   7.532   5.370   7.224 -0.4728  0.3714  0.5205
  194MOL   H15939145   7.548   5.201   7.201  1.7780  1.8624 -0.8288
  194MOL   H16039146   7.336   5.306   7.383  0.7776 -2.1853  0.6933
  194MOL   H16139147   7.355   5.150   7.312  1.5782  0.0303 -2.2173
  194MOL   O16239148   7.310   5.291   7.164 -0.2159 -0.2570  0.2069
  194MOL   C16339149   7.175   5.278   7.156  0.0720  0.2662  0.3903
  194MOL   C16439150   7.132   5.135   7.121 -0.4360  0.9171 -0.0195
  194MOL   C16539151   6.985   5.141   7.106 -0.7577  0.5306 -0.5686
  194MOL   H16639152   7.134   5.351   7.086 -0.7492  0.7951  1.4070
  194MOL   H16739153   7.118   5.306   7.245 -0.4886  1.2640 -0.2738
  194MOL   H16839154   7.170   5.093   7.028  1.9191  1.8722  0.4713
  194MOL   H16939155   7.149   5.058   7.196 -0.5882  0.3251 -0.5948
  194MOL   H17039156   6.956   5.211   7.028 -0.1725  2.8001  1.1686
  194MOL   H17139157   6.941   5.176   7.200 -1.0841 -1.1840 -0.0552
  194MOL   O17239158   6.936   5.012   7.081  0.0274  0.5950 -0.0106
  194MOL   C17339159   6.826   5.012   6.990 -0.3080  0.0864 -0.5472
  194MOL   C17439160   6.750   4.883   6.974 -0.6620  0.3830  0.6452
  194MOL   C17539161   6.637   4.873   6.875  0.4404  0.9861 -0.2743
  194MOL   H17639162   6.855   5.044   6.890 -0.2621 -1.2658 -0.9779
  194MOL   H17739163   6.758   5.087   7.029  0.0616 -0.3733  0.9956
  194MOL   H17839164   6.815   4.800   6.946 -0.0642  0.5725  1.4514
  194MOL   H17939165   6.718   4.842   7.069  0.4186 -0.6897  0.5526
  194MOL   H18039166   6.660   4.903   6.772 -0.3017 -2.1152 -1.3888
  194MOL   H18139167   6.555   4.936   6.909 -0.7730 -0.8246  0.1960
  194MOL   O18239168   6.596   4.733   6.885  0.2993  0.1609 -0.3378
  194MOL   C18339169   6.471   4.713   6.821  0.8339  0.8821  0.0313
  194MOL   C18439170   6.455   4.555   6.803  0.1505  0.4499 -0.5566
  194MOL   C18539171   6.307   4.517   6.769 -0.5675  0.0562  0.0548
  194MOL   H18639172   6.451   4.778   6.736 -0.9499  0.2394 -0.0618
  194MOL   H18739173   6.398   4.738   6.898  0.8653  0.0977  0.3247
  194MOL   H18839174   6.516   4.535   6.715  1.7568  2.6021  0.0107
  194MOL   H18939175   6.503   4.496   6.880 -0.3497  1.8410  0.8518
  194MOL   H19039176   6.279   4.587   6.690 -0.7296  0.0028  0.0636
  194MOL   H19139177   6.247   4.530   6.860  0.6328 -0.8499  0.9863
  194MOL   O19239178   6.300   4.384   6.726 -0.2537 -0.2959  0.4656
  194MOL   C19339179   6.164   4.346   6.722  0.6737  0.4722 -0.8016
  194MOL   C19439180   6.169   4.199   6.669  0.4025 -0.1956  0.2954
  194MOL   C19539181   6.180   4.203   6.518  0.1012 -0.1285 -0.1442
  194MOL   H19639182   6.095   4.412   6.669 -1.6940 -0.2030  1.3167
  194MOL   H19739183   6.123   4.342   6.823 -1.3609  0.1504 -1.6201
  194MOL   H19839184   6.255   4.141   6.706  0.2193 -0.7985 -0.2144
  194MOL   H19939185   6.090   4.136   6.710  0.4287  1.1043  2.4422
  194MOL   H20039186   6.151   4.114   6.463 -2.4468  1.0195 -0.7531
  194MOL   H20139187   6.281   4.231   6.487 -0.4240  0.0328 -1.7291
  194MOL   H20239188   6.113   4.279   6.478 -1.4773 -0.1001  2.4596
  195MOL     O139189   2.900   6.921   3.395  0.0580 -0.4369  0.3240
  195MOL     C239190   2.862   6.975   3.267  0.0113  0.8047 -0.3407
  195MOL     C339191   2.869   6.859   3.160  0.2877 -0.0341 -0.1917
  195MOL     C439192   2.776   6.897   3.044 -0.0174  0.1607  0.9289
  195MOL     H539193   2.923   7.063   3.245  0.1382  0.9591  0.6269
  195MOL     H639194   2.756   7.001   3.276  0.2077  0.9293  1.8602
  195MOL     H739195   2.971   6.842   3.125  1.2366 -0.0938  2.4558
  195MOL     H839196   2.821   6.771   3.202  0.7814 -1.0113 -1.6474
  195MOL     H939197   2.835   6.872   2.956  1.1720  0.6519  1.5830
  195MOL    H1039198   2.754   7.003   3.034 -0.9484 -0.0525  0.5970
  195MOL    H1139199   2.988   6.891   3.376  0.4283 -0.1897  1.6262
  195MOL    O1239200   2.664   6.811   3.035 -0.1607  0.2953  0.1196
  195MOL    C1339201   2.549   6.871   2.969 -0.1500  0.4334  0.3793
  195MOL    C1439202   2.577   6.883   2.816 -0.3212  0.2156 -0.3950
  195MOL    C1539203   2.446   6.863   2.739 -0.1589  0.1842  0.5822
  195MOL    H1639204   2.529   6.972   3.004  2.3863  1.2896 -0.5634
  195MOL    H1739205   2.460   6.808   2.982 -0.3982  0.8842  0.8827
  195MOL    H1839206   2.630   6.976   2.796  1.0560 -0.5467 -0.3148
  195MOL    H1939207   2.645   6.805   2.782 -3.2815 -1.6052 -2.3691
  195MOL    H2039208   2.363   6.916   2.787 -1.4503 -2.0254  0.8509
  195MOL    H2139209   2.420   6.757   2.739  1.6397 -0.2812 -1.6111
  195MOL    O2239210   2.469   6.919   2.606  0.1424  0.3609 -0.3763
  195MOL    C2339211   2.353   6.901   2.526 -0.1545 -0.2315  0.0359
  195MOL    C2439212   2.371   7.001   2.410 -0.0510 -0.4035  0.1872
  195MOL    C2539213   2.262   7.016   2.301 -0.0137 -0.0171 -0.1680
  195MOL    H2639214   2.260   6.924   2.577 -0.1226 -0.3605  0.1514
  195MOL    H2739215   2.343   6.807   2.473  1.3018  0.0386 -0.7580
  195MOL    H2839216   2.399   7.096   2.456  3.4527 -0.1252 -2.3012
  195MOL    H2939217   2.460   6.958   2.363  0.2462  2.2132 -1.7656
  195MOL    H3039218   2.177   7.075   2.335 -1.0949 -2.0538  0.7188
  195MOL    H3139219   2.228   6.918   2.268 -0.0243 -0.0611 -0.0280
  195MOL    O3239220   2.321   7.084   2.186 -0.2845  0.5754 -0.1575
  195MOL    C3339221   2.251   7.077   2.067 -0.2065 -0.3203 -0.3516
  195MOL    C3439222   2.314   7.158   1.954  0.6578 -0.4419 -0.0689
  195MOL    C3539223   2.336   7.306   1.998  0.1241  0.0674  0.1742
  195MOL    H3639224   2.149   7.113   2.085  0.5430  0.9430  1.4297
  195MOL    H3739225   2.238   6.974   2.035 -1.8384  0.4211 -2.2473
  195MOL    H3839226   2.402   7.099   1.925  0.6909 -0.5688  0.2913
  195MOL    H3939227   2.252   7.161   1.864 -1.5134 -1.4914  1.3598
  195MOL    H4039228   2.389   7.357   1.918  0.1942 -1.4794 -0.7775
  195MOL    H4139229   2.401   7.317   2.085  0.7373 -1.2551 -0.1047
  195MOL    O4239230   2.204   7.356   2.023 -0.4847 -0.4054  0.4741
  195MOL    C4339231   2.204   7.473   2.100 -0.6079  0.9806  0.3497
  195MOL    C4439232   2.061   7.519   2.102  0.7176  0.3106  0.2265
  195MOL    C4539233   2.051   7.665   2.170  0.0978  0.7369 -0.4010
  195MOL    H4639234   2.251   7.543   2.031 -2.0024 -0.8663 -2.5879
  195MOL    H4739235   2.243   7.464   2.201  2.8258 -2.2078 -1.1404
  195MOL    H4839236   2.038   7.537   1.997 -1.5806  1.1996  0.8497
  195MOL    H4939237   1.994   7.452   2.155 -2.6434  2.3023 -1.3916
  195MOL    H5039238   2.107   7.673   2.263 -0.2703  1.8484 -0.2780
  195MOL    H5139239   1.947   7.683   2.194 -0.5470 -3.1305  0.0295
  195MOL    O5239240   2.124   7.755   2.083  0.4118 -0.7021  0.4765
  195MOL    C5339241   2.081   0.102   2.107  1.0876  0.5664 -0.2508
  195MOL    C5439242   2.156   0.207   2.025  0.1626  0.8568 -0.3622
  195MOL    C5539243   2.113   0.349   2.062  0.4243  0.7871 -0.5933
  195MOL    H5639244   2.084   0.122   2.214  0.1293 -1.6764  0.2301
  195MOL    H5739245   1.977   0.103   2.075  0.8759  0.0956  0.4266
  195MOL    H5839246   2.263   0.190   2.033 -0.0069  0.7549  1.9923
  195MOL    H5939247   2.136   0.188   1.920  1.2752  0.8761 -0.5834
  195MOL    H6039248   2.139   0.367   2.167  0.0666  1.5528 -0.6362
  195MOL    H6139249   2.005   0.357   2.060  0.2988 -0.6143 -0.2418
  195MOL    O6239250   2.180   0.447   1.981  0.4364  0.1708  0.4533
  195MOL    C6339251   2.115   0.473   1.856 -0.2719  0.1353  0.2637
  195MOL    C6439252   2.193   0.587   1.781  0.3620 -0.4428 -0.4129
  195MOL    C6539253   2.324   0.541   1.724  0.1176 -0.1449 -0.8351
  195MOL    H6639254   2.017   0.513   1.880 -1.5345 -2.4271 -0.4956
  195MOL    H6739255   2.110   0.378   1.801  0.2435  1.0774 -1.4506
  195MOL    H6839256   2.127   0.636   1.710  0.4225  0.6892  0.2897
  195MOL    H6939257   2.208   0.671   1.849 -0.1763  1.1448 -2.2375
  195MOL    H7039258   2.302   0.468   1.646 -0.0112 -0.0382 -0.8989
  195MOL    H7139259   2.379   0.484   1.799 -1.7203 -0.4057  0.3645
  195MOL    O7239260   2.397   0.649   1.671 -0.4508  0.5709 -0.1475
  195MOL    C7339261   2.532   0.606   1.646 -0.3206 -0.4489 -0.0112
  195MOL    C7439262   2.608   0.721   1.586 -0.1964  0.4777  0.3874
  195MOL    C7539263   2.760   0.707   1.572  0.4348  0.5869 -0.0985
  195MOL    H7639264   2.536   0.515   1.585 -2.6815 -0.2563 -0.5113
  195MOL    H7739265   2.591   0.590   1.736 -1.6574 -2.5660  0.5314
  195MOL    H7839266   2.565   0.747   1.490 -0.7224  0.4903  0.6254
  195MOL    H7939267   2.590   0.813   1.642 -1.1040 -0.4463  1.6537
  195MOL    H8039268   2.773   0.625   1.503  0.5276 -1.4327  2.2487
  195MOL    H8139269   2.797   0.677   1.670  0.5222  1.3260  0.1022
  195MOL    O8239270   2.820   0.832   1.536 -0.1093 -0.0416  0.0525
  195MOL    C8339271   2.959   0.831   1.491 -0.3176 -0.8423  0.6439
  195MOL    C8439272   3.017   0.971   1.477 -0.0738 -0.1211  0.1141
  195MOL    C8539273   3.167   0.960   1.443  0.4498 -0.2515 -0.6404
  195MOL    H8639274   2.968   0.764   1.406  0.7728  0.1429 -0.0348
  195MOL    H8739275   3.037   0.790   1.555  1.6833  0.3878 -0.9365
  195MOL    H8839276   2.961   1.018   1.397  1.8223 -1.3049 -1.9589
  195MOL    H8939277   3.003   1.026   1.570 -0.8129 -1.6544  0.9313
  195MOL    H9039278   3.187   0.916   1.346 -2.4699 -1.4844 -0.7333
  195MOL    H9139279   3.209   0.893   1.518  1.1975  1.4503  0.5044
  195MOL    O9239280   3.228   1.094   1.436 -0.3774  0.2123 -0.2757
  195MOL    C9339281   3.226   1.156   1.312  0.3075 -0.3951 -0.4314
  195MOL    C9439282   3.319   1.276   1.315 -0.1841  0.8209  0.8358
  195MOL    C9539283   3.363   1.320   1.178  0.4328  0.4102  0.1934
  195MOL    H9639284   3.124   1.186   1.287  0.1864 -0.2282  0.2339
  195MOL    H9739285   3.258   1.086   1.236  0.5869  1.1554 -1.7652
  195MOL    H9839286   3.279   1.357   1.376 -1.3189  0.2389  0.8623
  195MOL    H9939287   3.411   1.245   1.366  0.4397  0.7881 -0.2975
  195MOL   H10039288   3.274   1.352   1.124  0.6501  2.3232  0.9288
  195MOL   H10139289   3.403   1.244   1.111 -2.4844 -0.1807 -0.9706
  195MOL   O10239290   3.439   1.442   1.181 -0.8732 -0.0112  0.3961
  195MOL   C10339291   3.576   1.403   1.199 -0.0300 -0.1215 -0.3793
  195MOL   C10439292   3.665   1.522   1.232 -0.0510  0.5671  0.0114
  195MOL   C10539293   3.810   1.491   1.201 -0.0429  0.3068 -0.3364
  195MOL   H10639294   3.605   1.365   1.101 -0.1359 -3.6138  0.8485
  195MOL   H10739295   3.595   1.324   1.272  1.8477  1.0355  0.4185
  195MOL   H10839296   3.629   1.605   1.171 -0.7819  0.9345  0.9257
  195MOL   H10939297   3.652   1.546   1.338  0.7746  1.1782 -0.0194
  195MOL   H11039298   3.807   1.489   1.092 -2.2139  1.9664 -0.3509
  195MOL   H11139299   3.836   1.389   1.230 -0.0878 -0.1517 -1.8599
  195MOL   O11239300   3.898   1.591   1.262  0.8025  0.8357  0.1094
  195MOL   C11339301   4.037   1.568   1.263  0.4546  0.0137 -0.3321
  195MOL   C11439302   4.082   1.466   1.377 -0.5765  0.0781 -0.4607
  195MOL   C11539303   4.037   1.516   1.518 -0.0619  0.4689 -0.7244
  195MOL   H11639304   4.100   1.656   1.276  1.2377 -0.5076 -0.6280
  195MOL   H11739305   4.057   1.539   1.160 -1.1498  1.5552 -1.1116
  195MOL   H11839306   4.037   1.369   1.360 -0.1695 -0.0833 -0.6261
  195MOL   H11939307   4.190   1.458   1.369 -0.2502  2.2226  1.1935
  195MOL   H12039308   3.929   1.523   1.529 -0.2113  4.5726 -3.5772
  195MOL   H12139309   4.074   1.618   1.530  0.7422 -0.1088  1.9638
  195MOL   O12239310   4.120   1.449   1.606  0.7936  0.7769 -0.0971
  195MOL   C12339311   4.117   1.495   1.745  0.4769  0.6865 -1.1258
  195MOL   C12439312   4.125   1.374   1.849 -0.1012  0.0004  0.7435
  195MOL   C12539313   4.217   1.260   1.803  0.2713  0.6595  0.1270
  195MOL   H12639314   4.027   1.554   1.762 -1.1923 -2.0952  0.1745
  195MOL   H12739315   4.195   1.570   1.756 -0.2760  1.3396 -0.0969
  195MOL   H12839316   4.136   1.405   1.952  1.7480  0.2286  0.4873
  195MOL   H12939317   4.027   1.328   1.861 -1.0094  1.1342 -1.8932
  195MOL   H13039318   4.319   1.293   1.782  0.2943  1.9974  2.2383
  195MOL   H13139319   4.181   1.234   1.703  2.7605  0.3482 -0.7329
  195MOL   O13239320   4.203   1.141   1.879 -0.7000  0.1888 -0.2027
  195MOL   C13339321   4.260   1.027   1.825  0.3735 -0.3352 -0.1593
  195MOL   C13439322   4.218   0.899   1.898  0.3035 -1.0057 -0.5721
  195MOL   C13539323   4.255   0.783   1.819 -0.4967  0.6420 -0.5124
  195MOL   H13639324   4.368   1.029   1.809  0.2652 -0.8043 -0.9720
  195MOL   H13739325   4.215   1.015   1.726 -1.5210 -1.0405  0.7811
  195MOL   H13839326   4.270   0.888   1.993 -1.1577  0.2947  0.4016
  195MOL   H13939327   4.113   0.900   1.928  0.2948 -0.9228 -0.6052
  195MOL   H14039328   4.174   0.779   1.746 -0.8400  2.4832 -0.2445
  195MOL   H14139329   4.228   0.692   1.873 -0.0186 -0.2765 -1.7869
  195MOL   O14239330   4.383   0.783   1.773  0.6744 -0.3443 -0.4837
  195MOL   C14339331   4.434   0.661   1.712  0.5240  0.7157 -0.2955
  195MOL   C14439332   4.575   0.686   1.646 -0.2138 -0.6802  0.3386
  195MOL   C14539333   4.578   0.823   1.575  0.1593 -0.0756 -0.5874
  195MOL   H14639334   4.369   0.610   1.642 -0.1979 -0.9530  1.5259
  195MOL   H14739335   4.442   0.602   1.804  0.5646  2.7666  1.0714
  195MOL   H14839336   4.661   0.677   1.712 -0.4326 -1.9478  0.4674
  195MOL   H14939337   4.589   0.614   1.565  3.4034  1.2291 -0.8469
  195MOL   H15039338   4.565   0.910   1.640  0.7649 -1.4269  1.3741
  195MOL   H15139339   4.495   0.829   1.504 -0.1816  0.4293 -0.1540
  195MOL   O15239340   4.703   0.824   1.513 -0.1363  0.4268  0.0265
  195MOL   C15339341   4.808   0.878   1.595  0.7818  0.2379 -0.0095
  195MOL   C15439342   4.936   0.845   1.521 -0.3041  0.4021  0.0569
  195MOL   C15539343   5.076   0.901   1.574 -0.8253  0.2446  0.0953
  195MOL   H15639344   4.815   0.824   1.689 -1.8505 -0.4100 -0.1410
  195MOL   H15739345   4.780   0.982   1.615 -1.2647  0.3203 -2.9279
  195MOL   H15839346   4.936   0.736   1.519  1.2772  0.3926 -0.2331
  195MOL   H15939347   4.912   0.882   1.421  0.1928 -0.1995 -0.2895
  195MOL   H16039348   5.154   0.843   1.525 -0.6512 -0.5185  1.2494
  195MOL   H16139349   5.073   0.872   1.679 -3.8012  0.9795  0.2695
  195MOL   O16239350   5.081   1.040   1.575 -0.4623 -0.3980 -0.1341
  195MOL   C16339351   5.183   1.088   1.661 -0.2568  0.2973 -0.0497
  195MOL   C16439352   5.197   1.235   1.636 -0.3734  0.4932 -0.3097
  195MOL   C16539353   5.306   1.291   1.734 -0.2109 -0.2965 -0.1978
  195MOL   H16639354   5.273   1.027   1.648 -2.0376 -2.4193 -0.0611
  195MOL   H16739355   5.139   1.084   1.761 -0.0210  0.3253  0.0560
  195MOL   H16839356   5.232   1.255   1.535 -1.6827  3.0862 -0.2915
  195MOL   H16939357   5.107   1.297   1.639 -0.0530  0.9483  0.1242
  195MOL   H17039358   5.402   1.240   1.725 -1.1276 -1.8796 -1.3319
  195MOL   H17139359   5.279   1.272   1.838  0.8669  0.1407  0.1735
  195MOL   O17239360   5.332   1.424   1.704  0.5231  0.4554 -0.3885
  195MOL   C17339361   5.375   1.500   1.821  0.0309  0.2690 -0.8941
  195MOL   C17439362   5.534   1.484   1.853 -0.2419 -0.6548  0.9448
  195MOL   C17539363   5.564   1.362   1.935  0.2114  0.5122 -0.5325
  195MOL   H17639364   5.302   1.474   1.897  0.9088  1.3153  0.3179
  195MOL   H17739365   5.369   1.607   1.805 -0.7765  0.5074  0.9271
  195MOL   H17839366   5.600   1.483   1.767 -0.3107 -3.1470  0.8915
  195MOL   H17939367   5.557   1.577   1.904  1.3925 -0.8856  0.6560
  195MOL   H18039368   5.571   1.269   1.878  2.1595  0.4218 -0.1912
  195MOL   H18139369   5.491   1.341   2.013  0.4040  4.1437  0.7200
  195MOL   O18239370   5.691   1.366   1.998 -0.3932 -0.0567  0.2111
  195MOL   C18339371   5.695   1.443   2.117  0.5692  0.1503  0.7925
  195MOL   C18439372   5.838   1.440   2.176  0.1919 -0.5194 -0.2808
  195MOL   C18539373   5.846   1.459   2.333  0.6558 -0.1490 -0.5421
  195MOL   H18639374   5.624   1.399   2.187 -1.5848  0.2279 -1.2626
  195MOL   H18739375   5.658   1.544   2.098 -2.3389 -1.5964 -3.3931
  195MOL   H18839376   5.865   1.335   2.169 -0.8888 -1.0153  2.1696
  195MOL   H18939377   5.907   1.504   2.122 -1.3510 -0.9288 -2.8211
  195MOL   H19039378   5.946   1.426   2.359  1.6770  2.2062 -1.3438
  195MOL   H19139379   5.781   1.386   2.381  1.5143 -0.3377  0.3353
  195MOL   O19239380   5.816   1.594   2.372 -0.3541 -0.4751 -0.3794
  195MOL   C19339381   5.825   1.605   2.509  0.2940 -0.4049 -0.2775
  195MOL   C19439382   5.834   1.749   2.558 -0.1508 -0.5468 -0.0936
  195MOL   C19539383   5.701   1.819   2.565 -0.2630  0.3982 -0.4203
  195MOL   H19639384   5.907   1.546   2.551 -0.0463 -0.0327  0.9164
  195MOL   H19739385   5.741   1.566   2.566  0.2087  0.8208  0.4533
  195MOL   H19839386   5.898   1.751   2.647 -1.7758 -4.0338  1.2196
  195MOL   H19939387   5.884   1.810   2.483 -0.2232 -0.9553 -0.4754
  195MOL   H20039388   5.684   1.867   2.468  2.2028  0.9752 -0.5837
  195MOL   H20139389   5.718   1.905   2.630  1.1980 -0.6895  0.6693
  195MOL   H20239390   5.618   1.760   2.605 -1.9765  0.3931 -3.7856
  196MOL     O139391   6.494   3.855   0.028  0.0843 -0.0789 -0.0498
  196MOL     C239392   6.616   3.806   0.064  0.4914  0.2815  0.1268
  196MOL     C339393   6.732   3.874   7.774 -0.3623  1.1164 -0.2219
  196MOL     C439394   6.877   3.834   0.030  0.3818  0.1103  0.4042
  196MOL     H539395   6.613   3.698   0.068  1.9241  0.1570 -1.3268
  196MOL     H639396   6.631   3.830   0.169  0.8561  2.2281 -0.3385
  196MOL     H739397   6.721   3.845   7.669 -0.9022 -2.0602  0.6322
  196MOL     H839398   6.714   3.981   7.784  0.2203  1.2387 -0.5067
  196MOL     H939399   6.966   3.869   7.765 -1.0971  0.7446 -1.7187
  196MOL    H1039400   6.871   3.726   0.017 -2.5954  0.5441 -2.5293
  196MOL    H1139401   6.432   3.814   0.086 -1.2352  2.1131  0.1461
  196MOL    O1239402   6.893   3.873   0.165  0.2416  0.0893  0.1130
  196MOL    C1339403   7.015   3.817   0.211 -0.3188  0.5035 -0.5187
  196MOL    C1439404   7.025   3.833   0.365  0.0029 -0.0387 -0.0527
  196MOL    C1539405   6.946   3.722   0.441  0.9204  0.0694 -0.9027
  196MOL    H1639406   7.108   3.847   0.164 -1.4293  2.4612 -1.5364
  196MOL    H1739407   7.023   3.710   0.192  1.6207  0.4656  0.4950
  196MOL    H1839408   7.128   3.814   0.395  0.2735  0.7229 -0.4725
  196MOL    H1939409   6.997   3.929   0.410 -0.4785 -0.4469  0.5130
  196MOL    H2039410   6.991   3.623   0.434  1.1873  0.1189  0.0775
  196MOL    H2139411   6.842   3.721   0.406  1.2655  2.7057 -2.1235
  196MOL    O2239412   6.957   3.758   0.568  0.0739  0.2654 -0.4773
  196MOL    C2339413   6.884   3.674   0.661 -0.4760  0.2586  0.7173
  196MOL    C2439414   6.906   3.734   0.801 -0.0593  0.2262  0.2670
  196MOL    C2539415   6.812   3.677   0.909  0.5830  0.1810 -0.0333
  196MOL    H2639416   6.916   3.570   0.652  1.8905  1.0760 -0.7608
  196MOL    H2739417   6.777   3.664   0.639 -0.3061 -2.1309  0.7535
  196MOL    H2839418   7.007   3.706   0.830 -0.7134 -3.6292 -0.8025
  196MOL    H2939419   6.879   3.839   0.791 -1.8833 -0.2551 -0.0543
  196MOL    H3039420   6.856   3.585   0.948  0.3873  0.5678  1.1208
  196MOL    H3139421   6.717   3.640   0.870  0.1590  0.7532  0.4378
  196MOL    O3239422   6.803   3.784   1.008  0.2393  0.1979  0.4539
  196MOL    C3339423   6.748   3.738   1.128 -0.5658  0.0925  0.6661
  196MOL    C3439424   6.722   3.857   1.218  0.9753  0.9054 -0.0069
  196MOL    C3539425   6.831   3.888   1.323  1.3023 -0.0067 -0.3032
  196MOL    H3639426   6.811   3.666   1.180  1.1244  1.1019  0.0380
  196MOL    H3739427   6.652   3.690   1.107 -1.6099  2.8715 -1.2047
  196MOL    H3839428   6.694   3.946   1.163  2.1043  1.1698 -0.1724
  196MOL    H3939429   6.634   3.821   1.271  0.3811 -0.5260 -1.8948
  196MOL    H4039430   6.921   3.936   1.284  1.7716 -0.5767  0.0668
  196MOL    H4139431   6.849   3.795   1.376  1.7962 -0.2834 -0.9558
  196MOL    O4239432   6.769   3.962   1.420  0.0864 -0.4367 -0.0246
  196MOL    C4339433   6.864   4.019   1.508  0.0011  0.6167  0.3396
  196MOL    C4439434   6.774   4.103   1.597  0.2870 -0.6725  0.1433
  196MOL    C4539435   6.847   4.183   1.706  0.1473  0.7953 -0.4396
  196MOL    H4639436   6.941   4.074   1.454 -0.5219  0.6553 -0.3817
  196MOL    H4739437   6.918   3.936   1.553  0.6234  0.1864 -1.1805
  196MOL    H4839438   6.709   4.168   1.539 -1.8666 -0.2240  2.9559
  196MOL    H4939439   6.710   4.031   1.647  1.3451 -1.7355  0.0058
  196MOL    H5039440   6.923   4.246   1.660  1.0926  0.6516  0.8982
  196MOL    H5139441   6.883   4.110   1.778 -2.0601  0.9576  0.8803
  196MOL    O5239442   6.745   4.264   1.767  0.1919  0.3735  0.3536
  196MOL    C5339443   6.789   4.333   1.881  0.3533 -0.2562  0.2737
  196MOL    C5439444   6.663   4.416   1.929  0.4340 -0.0545 -0.1203
  196MOL    C5539445   6.695   4.481   2.062 -0.1873 -0.2510  0.6664
  196MOL    H5639446   6.867   4.400   1.844  0.4282  0.1542  1.1526
  196MOL    H5739447   6.818   4.259   1.956  1.1252  0.5537  0.7757
  196MOL    H5839448   6.655   4.490   1.850  0.5275  1.2483  1.0654
  196MOL    H5939449   6.570   4.359   1.927  0.3004  0.1686 -0.2190
  196MOL    H6039450   6.783   4.546   2.054 -0.4613  0.0154 -0.2762
  196MOL    H6139451   6.720   4.393   2.121 -0.4135 -1.6962 -1.3404
  196MOL    O6239452   6.584   4.544   2.110 -0.8452 -0.3084 -0.7601
  196MOL    C6339453   6.613   4.622   2.227 -1.0227  0.2121 -0.2895
  196MOL    C6439454   6.496   4.712   2.253 -0.4412 -0.6203 -0.7756
  196MOL    C6539455   6.494   4.797   2.387 -0.1385 -0.8100  0.5371
  196MOL    H6639456   6.698   4.691   2.224 -2.4079  1.9584  0.0546
  196MOL    H6739457   6.636   4.556   2.311  2.9893 -0.0321 -1.4815
  196MOL    H6839458   6.476   4.782   2.172 -0.9462 -1.3593 -1.2902
  196MOL    H6939459   6.407   4.651   2.235 -1.3443  1.0358 -2.1170
  196MOL    H7039460   6.575   4.868   2.372  2.1806 -3.6001 -0.8212
  196MOL    H7139461   6.517   4.737   2.475  0.3215  0.6563  1.4340
  196MOL    O7239462   6.367   4.856   2.389 -0.1344 -0.0387  0.5959
  196MOL    C7339463   6.348   4.943   2.502 -0.6232  0.3444 -0.1201
  196MOL    C7439464   6.234   5.049   2.487  0.2106  0.1517 -0.0869
  196MOL    C7539465   6.273   5.163   2.388  0.6185  0.0632 -0.0295
  196MOL    H7639466   6.447   4.982   2.524  0.3883 -1.6584 -1.0187
  196MOL    H7739467   6.327   4.883   2.591  2.5777 -0.7357 -0.0220
  196MOL    H7839468   6.132   5.013   2.476 -0.2392  1.1729  0.5851
  196MOL    H7939469   6.227   5.107   2.580  0.5420 -1.5790  1.0422
  196MOL    H8039470   6.261   5.129   2.286 -0.4640  2.3736 -0.7008
  196MOL    H8139471   6.378   5.178   2.413  0.5361 -2.0483  1.7434
  196MOL    O8239472   6.205   5.279   2.405 -0.6535 -0.4212 -0.5145
  196MOL    C8339473   6.256   5.386   2.321 -0.0724  0.0670  0.0959
  196MOL    C8439474   6.157   5.504   2.317  0.6792  0.0415 -0.1149
  196MOL    C8539475   6.203   5.627   2.236 -0.2015  0.0579  0.6386
  196MOL    H8639476   6.276   5.350   2.220  1.4262 -3.4509  1.5613
  196MOL    H8739477   6.352   5.409   2.366 -1.5737 -0.3803  3.6517
  196MOL    H8839478   6.065   5.469   2.270  0.9741 -1.4728  0.4148
  196MOL    H8939479   6.130   5.532   2.419 -0.0823  0.9781 -0.5631
  196MOL    H9039480   6.212   5.585   2.136 -0.2493 -0.8974  1.0275
  196MOL    H9139481   6.302   5.659   2.269 -0.4420  1.5137  0.0202
  196MOL    O9239482   6.103   5.731   2.235  0.1501  0.5700  0.2854
  196MOL    C9339483   6.127   5.847   2.149  0.2199 -0.2836 -0.2424
  196MOL    C9439484   6.014   5.950   2.179  0.2375  0.6698  0.1854
  196MOL    C9539485   6.022   6.087   2.107 -0.5007  0.3043 -0.2749
  196MOL    H9639486   6.146   5.818   2.046  1.8657  1.6522 -0.5307
  196MOL    H9739487   6.219   5.886   2.192 -0.2293 -0.3398  0.7963
  196MOL    H9839488   5.913   5.911   2.169  0.3685 -0.4120  2.7120
  196MOL    H9939489   6.005   5.965   2.287 -1.6329  0.2581  0.0996
  196MOL   H10039490   6.123   6.124   2.129 -0.3154 -0.0858 -0.4596
  196MOL   H10139491   5.944   6.157   2.137 -1.1321 -0.3288 -0.4415
  196MOL   O10239492   6.013   6.074   1.967 -0.0808  0.2785  0.2028
  196MOL   C10339493   6.091   6.161   1.889  0.3086  0.8549  0.1570
  196MOL   C10439494   6.106   6.130   1.736 -0.0446 -0.1309 -0.1849
  196MOL   C10539495   5.981   6.147   1.653  0.4471  0.1226 -0.0259
  196MOL   H10639496   6.189   6.155   1.935 -0.3965  0.1874  1.6258
  196MOL   H10739497   6.060   6.266   1.895  0.9352  1.1074 -0.9922
  196MOL   H10839498   6.194   6.178   1.694  0.5981  0.4506  1.7569
  196MOL   H10939499   6.141   6.027   1.738  1.3438  0.2301 -2.9987
  196MOL   H11039500   5.953   6.249   1.626  0.6958  1.4300  4.2090
  196MOL   H11139501   5.893   6.120   1.713 -1.4793 -0.9579 -3.2211
  196MOL   O11239502   5.990   6.074   1.526  0.2542 -0.2078 -0.1404
  196MOL   C11339503   5.861   6.047   1.468  0.6761  0.2617  0.0792
  196MOL   C11439504   5.866   6.020   1.318  0.1876 -0.6688  0.1082
  196MOL   C11539505   5.727   6.013   1.248 -0.0206  0.1335  0.3956
  196MOL   H11639506   5.807   6.142   1.474  0.3657  0.1168 -0.4264
  196MOL   H11739507   5.802   5.967   1.513 -1.7181  1.1287 -1.4118
  196MOL   H11839508   5.934   6.079   1.256 -0.8637  0.0164 -0.4214
  196MOL   H11939509   5.909   5.920   1.310 -0.8175 -1.1501  0.6623
  196MOL   H12039510   5.676   6.109   1.240  0.7954  0.6249  1.0414
  196MOL   H12139511   5.659   5.965   1.319 -0.1964  1.3109  1.0359
  196MOL   O12239512   5.738   5.945   1.121 -0.0076 -0.1043  0.1333
  196MOL   C12339513   5.619   5.910   1.063 -0.5541  0.1535 -0.0372
  196MOL   C12439514   5.635   5.820   0.937 -0.2813  0.0626 -0.6837
  196MOL   C12539515   5.683   5.687   0.963  0.3118 -0.4167  0.4907
  196MOL   H12639516   5.564   6.003   1.052  1.3945  1.5003  1.2923
  196MOL   H12739517   5.562   5.860   1.141 -0.3971  1.8811  1.1929
  196MOL   H12839518   5.534   5.810   0.896 -0.7133  0.6117  0.2388
  196MOL   H12939519   5.691   5.876   0.862 -1.5840  0.7691 -1.1498
  196MOL   H13039520   5.619   5.636   1.035  0.1108  0.0458  0.6426
  196MOL   H13139521   5.781   5.696   1.011  0.9313  1.3891 -1.0467
  196MOL   O13239522   5.699   5.632   0.835 -0.4529 -0.1102  1.1815
  196MOL   C13339523   5.745   5.501   0.845 -0.0587 -0.5770  0.0501
  196MOL   C13439524   5.793   5.465   0.709  0.1463  0.0132  0.4757
  196MOL   C13539525   5.839   5.318   0.692  0.1093  0.0690 -0.6264
  196MOL   H13639526   5.666   5.437   0.884  1.1163 -0.7259  2.2563
  196MOL   H13739527   5.834   5.477   0.903  0.3484 -2.1812 -1.1905
  196MOL   H13839528   5.707   5.487   0.646 -1.3257  1.8402  2.9960
  196MOL   H13939529   5.873   5.535   0.684  1.1777 -1.2778  0.1229
  196MOL   H14039530   5.853   5.286   0.589 -0.0426 -0.6794 -0.4222
  196MOL   H14139531   5.763   5.253   0.736  1.9990 -0.6062  1.7161
  196MOL   O14239532   5.947   5.293   0.784 -0.4612 -0.4496 -0.5168
  196MOL   C14339533   5.988   5.158   0.777  0.0877 -0.5646  0.5931
  196MOL   C14439534   6.137   5.142   0.830  0.0609 -0.4110  0.2139
  196MOL   C14539535   6.197   5.005   0.825  0.5271 -0.7290  0.6353
  196MOL   H14639536   6.000   5.131   0.673  2.1622  0.6792  0.4814
  196MOL   H14739537   5.931   5.084   0.832  1.4254 -0.6077  1.9732
  196MOL   H14839538   6.195   5.201   0.760 -2.2542 -1.9724 -3.1819
  196MOL   H14939539   6.124   5.195   0.924  0.2310  2.0919 -1.1318
  196MOL   H15039540   6.193   4.956   0.728  4.0919  2.4228 -1.2444
  196MOL   H15139541   6.138   4.952   0.900  1.5527 -1.9644  0.5771
  196MOL   O15239542   6.334   5.013   0.862  0.0121 -0.4445 -0.0603
  196MOL   C15339543   6.390   4.889   0.897 -0.0170 -0.2741  0.1857
  196MOL   C15439544   6.541   4.873   0.859  0.4492 -0.3359 -0.2300
  196MOL   C15539545   6.603   4.745   0.929  0.0234 -0.7595  0.7379
  196MOL   H15639546   6.341   4.798   0.863  0.5937 -0.1894 -0.9315
  196MOL   H15739547   6.366   4.875   1.003 -2.5279 -1.0767 -0.4308
  196MOL   H15839548   6.554   4.872   0.751 -2.4725  0.7662 -0.6658
  196MOL   H15939549   6.576   4.969   0.899  0.2029 -0.1569 -0.4352
  196MOL   H16039550   6.563   4.653   0.887  1.1386 -0.9124 -0.0256
  196MOL   H16139551   6.581   4.751   1.035  0.1840  1.2546  0.6781
  196MOL   O16239552   6.745   4.745   0.918 -0.0599 -0.0551 -0.0280
  196MOL   C16339553   6.804   4.636   0.981  0.7737  0.0823  0.6098
  196MOL   C16439554   6.954   4.660   1.004  0.1915  0.3871 -0.5263
  196MOL   C16539555   7.039   4.532   1.016  0.1046 -0.0262  0.2691
  196MOL   H16639556   6.790   4.551   0.913 -0.4745  1.7572 -1.2804
  196MOL   H16739557   6.751   4.614   1.073 -3.0363 -0.5340 -1.6367
  196MOL   H16839558   7.006   4.711   0.923 -0.0955  0.5230 -0.6276
  196MOL   H16939559   6.973   4.719   1.094 -0.2730  2.4651 -1.7381
  196MOL   H17039560   7.046   4.474   0.925  2.7480  1.2926 -0.4263
  196MOL   H17139561   7.001   4.470   1.097  1.1235  1.2271  1.7467
  196MOL   O17239562   7.167   4.573   1.041  0.0807 -0.5000 -0.2497
  196MOL   C17339563   7.256   4.469   1.081  0.3132  0.2825  0.1858
  196MOL   C17439564   7.375   4.541   1.128  0.1383  0.9643 -0.2250
  196MOL   C17539565   7.477   4.442   1.184  0.1278  0.3077  0.1350
  196MOL   H17639566   7.290   4.406   0.998  1.3981  1.6550 -0.4223
  196MOL   H17739567   7.222   4.402   1.160  1.4249  0.2923  0.6847
  196MOL   H17839568   7.418   4.594   1.043  0.5863  1.6841  0.4398
  196MOL   H17939569   7.354   4.619   1.202 -0.1782  1.5256 -0.9024
  196MOL   H18039570   7.441   4.409   1.281 -1.9882 -0.1857 -0.7939
  196MOL   H18139571   7.573   4.494   1.185  0.4541 -0.2706 -0.2493
  196MOL   O18239572   7.497   4.342   1.092 -0.4038 -0.1721 -0.3632
  196MOL   C18339573   7.586   4.237   1.126 -0.3842 -0.0020  0.0067
  196MOL   C18439574   7.585   4.137   1.010  0.4548 -0.5126 -0.3464
  196MOL   C18539575   7.684   4.018   1.029 -0.4916 -0.4746 -0.2785
  196MOL   H18639576   7.570   4.195   1.226  0.9723  0.3060  0.3623
  196MOL   H18739577   7.686   4.278   1.120 -0.2900 -0.0945  0.8132
  196MOL   H18839578   7.485   4.095   0.996  0.4861 -0.6455 -0.1650
  196MOL   H18939579   7.597   4.192   0.917 -2.0766 -0.6296 -0.7918
  196MOL   H19039580   7.781   4.063   1.009  0.8550 -2.7282  0.9771
  196MOL   H19139581   7.668   3.941   0.954  1.1925 -0.5952 -0.5276
  196MOL   O19239582   7.667   3.959   1.157  0.5303  0.1897 -0.2870
  196MOL   C19339583   7.746   3.841   1.178  0.1803 -0.8476 -0.5730
  196MOL   C19439584   7.700   3.765   1.303  0.1605 -0.0722  0.3043
  196MOL   C19539585   7.756   3.821   1.429 -0.0785 -0.0569 -0.6920
  196MOL   H19639586   0.064   3.860   1.197  0.0808 -1.3167  0.4909
  196MOL   H19739587   7.731   3.773   1.094  0.0572 -0.0318 -1.2211
  196MOL   H19839588   7.591   3.764   1.309 -0.0508  1.6014 -2.4591
  196MOL   H19939589   7.743   3.665   1.300 -0.8138 -0.4663 -1.1676
  196MOL   H20039590   7.689   3.802   1.513 -1.3991  0.5092 -1.5989
  196MOL   H20139591   7.751   3.930   1.421  1.6745  0.0323 -0.7500
  196MOL   H20239592   0.071   3.790   1.444 -0.7161 -0.7727  2.5650
  197MOL     O139593   2.833   4.171   4.186  0.2153 -0.2922  0.0065
  197MOL     C239594   2.792   4.286   4.254 -0.4349  0.0902  0.0220
  197MOL     C339595   2.641   4.302   4.231  0.4279  0.4233 -0.0347
  197MOL     C439596   2.592   4.432   4.308 -0.1593  0.4563  0.0333
  197MOL     H539597   2.843   4.379   4.231 -2.1619  1.3290  1.0543
  197MOL     H639598   2.819   4.263   4.357  0.3350  2.4759  0.3769
  197MOL     H739599   2.623   4.309   4.124 -0.7065 -0.4857  0.0870
  197MOL     H839600   2.602   4.218   4.289  0.4030  1.4152  1.4304
  197MOL     H939601   2.649   4.443   4.400 -0.9475 -1.2477  0.7484
  197MOL    H1039602   2.487   4.431   4.335  0.2688  2.8364  1.9361
  197MOL    H1139603   2.826   4.094   4.241  0.8296  1.0831  2.0668
  197MOL    O1239604   2.600   4.540   4.212 -0.2299  1.2056 -0.0260
  197MOL    C1339605   2.548   4.666   4.267 -0.2033  0.6635 -0.0401
  197MOL    C1439606   2.657   4.739   4.338 -0.5854  0.5503 -0.1429
  197MOL    C1539607   2.608   4.876   4.381  0.4414 -0.4565  0.3766
  197MOL    H1639608   2.470   4.643   4.340 -0.3180 -1.4867 -0.7932
  197MOL    H1739609   2.506   4.737   4.197  1.5108 -0.1289 -1.9300
  197MOL    H1839610   2.692   4.681   4.423 -0.1201 -0.5950 -1.0971
  197MOL    H1939611   2.745   4.743   4.275 -0.9147 -0.7250 -0.6981
  197MOL    H2039612   2.519   4.872   4.443  0.8078 -0.3610  0.9109
  197MOL    H2139613   2.564   4.939   4.304  0.5301  0.2066  0.8709
  197MOL    O2239614   2.709   4.952   4.446 -0.6051 -0.3937  0.8041
  197MOL    C2339615   2.678   5.091   4.460 -0.6088  0.4560  0.8402
  197MOL    C2439616   2.793   5.155   4.548 -0.3847 -0.2313 -0.5075
  197MOL    C2539617   2.780   5.111   4.688  0.2172 -0.3765 -1.0426
  197MOL    H2639618   2.586   5.114   4.514  0.4374  3.1977  1.5475
  197MOL    H2739619   2.665   5.140   4.364  1.5333  0.0147  0.2853
  197MOL    H2839620   2.896   5.135   4.518 -0.6267 -1.6318 -0.4529
  197MOL    H2939621   2.787   5.263   4.534 -0.6047 -0.0247  1.1353
  197MOL    H3039622   2.749   5.007   4.681  0.3071 -0.4825  0.1030
  197MOL    H3139623   2.690   5.155   4.730  1.1024  0.5194 -0.0783
  197MOL    O3239624   2.904   5.102   4.759  0.2548 -0.1416  0.2072
  197MOL    C3339625   2.899   5.062   4.893 -0.1178 -0.6194  0.0548
  197MOL    C3439626   3.033   5.084   4.961 -0.2903  0.7224 -0.5122
  197MOL    C3539627   3.150   5.007   4.897  0.2126 -0.1331  0.6659
  197MOL    H3639628   2.864   4.960   4.911  1.4927 -0.9009  1.7925
  197MOL    H3739629   2.824   5.129   4.934 -1.0654 -0.6959 -1.4969
  197MOL    H3839630   3.047   5.192   4.957 -2.3855  1.0950  1.1936
  197MOL    H3939631   3.022   5.067   5.068 -0.7058  0.0680 -0.6546
  197MOL    H4039632   3.166   5.024   4.790  0.0865 -2.4098  0.2696
  197MOL    H4139633   3.118   4.903   4.897  0.4622 -0.2125  0.1025
  197MOL    O4239634   3.260   5.045   4.979 -0.4719  0.3683 -0.5033
  197MOL    C4339635   3.387   4.996   4.928  0.6056  0.3766 -0.7906
  197MOL    C4439636   3.503   5.075   4.984 -0.0771 -0.3701 -0.5271
  197MOL    C4539637   3.640   5.010   4.966 -0.4415  0.8613 -0.4873
  197MOL    H4639638   3.385   4.982   4.820  1.5453 -2.4542 -0.4846
  197MOL    H4739639   3.391   4.892   4.961 -0.7310  0.4581 -0.3530
  197MOL    H4839640   3.504   5.176   4.944  2.1386 -0.2475 -0.1952
  197MOL    H4939641   3.474   5.077   5.089  1.4211  0.2977 -0.1273
  197MOL    H5039642   3.674   5.002   4.863  0.9303 -1.9853  0.1229
  197MOL    H5139643   3.629   4.907   5.002 -1.8738  1.1418 -0.0926
  197MOL    O5239644   3.721   5.089   5.045 -0.4872  0.6164  0.4999
  197MOL    C5339645   3.864   5.057   5.033  0.3028 -0.3519  0.2304
  197MOL    C5439646   3.923   5.077   5.174 -0.1562  0.1439  0.3224
  197MOL    C5539647   4.070   5.045   5.185 -0.4235  0.1191  0.0796
  197MOL    H5639648   3.906   5.119   4.953  0.7257 -1.2900 -0.2760
  197MOL    H5739649   3.873   4.957   4.992  1.8466 -0.1454  0.0205
  197MOL    H5839650   3.903   5.179   5.207 -0.2372  0.7483 -1.5308
  197MOL    H5939651   3.877   5.000   5.236  3.1893 -2.0753  0.1986
  197MOL    H6039652   4.131   5.098   5.112 -0.4954 -0.8461 -0.6943
  197MOL    H6139653   4.087   4.939   5.167  0.7645  0.4217 -0.6358
  197MOL    O6239654   4.120   5.074   5.316  0.1696  0.3748 -0.3938
  197MOL    C6339655   4.256   5.084   5.321 -0.7756  0.5607 -0.2279
  197MOL    C6439656   4.307   5.136   5.453 -1.2378  0.3385  0.0740
  197MOL    C6539657   4.457   5.102   5.482 -0.3114  0.0704  0.5953
  197MOL    H6639658   4.290   5.155   5.245  1.3216 -0.3940 -0.2194
  197MOL    H6739659   4.302   4.989   5.294 -1.1942  0.5222 -0.8052
  197MOL    H6839660   4.305   5.245   5.452 -0.8385  0.3464  0.2976
  197MOL    H6939661   4.239   5.090   5.525 -1.0390 -0.6691 -0.3809
  197MOL    H7039662   4.449   4.996   5.509 -1.4007 -0.1174 -0.3950
  197MOL    H7139663   4.491   5.165   5.564 -0.5480 -0.2699  0.9620
  197MOL    O7239664   4.543   5.139   5.372 -0.3187 -0.2551  0.7685
  197MOL    C7339665   4.680   5.120   5.402  0.1817 -0.4951 -1.5709
  197MOL    C7439666   4.770   5.238   5.356 -0.1362 -0.0835 -0.0199
  197MOL    C7539667   4.800   5.334   5.475  0.5251  0.6235  0.1137
  197MOL    H7639668   4.716   5.028   5.355 -0.6906 -0.9761 -1.2980
  197MOL    H7739669   4.696   5.097   5.507  2.2005  0.0813 -1.7162
  197MOL    H7839670   4.872   5.211   5.325  0.3246  1.1655  0.3748
  197MOL    H7939671   4.722   5.296   5.277 -1.9792 -0.7483  0.5826
  197MOL    H8039672   4.808   5.285   5.572  1.5218 -0.0364 -0.2847
  197MOL    H8139673   4.709   5.392   5.489 -1.6461 -1.9478 -2.5554
  197MOL    O8239674   4.909   5.420   5.466  0.0070 -1.0035 -0.7694
  197MOL    C8339675   4.885   5.537   5.388 -0.0121  0.4733  0.3420
  197MOL    C8439676   5.021   5.580   5.351  0.7964 -1.0314  0.1379
  197MOL    C8539677   5.017   5.718   5.280 -0.2454  0.0218  0.0826
  197MOL    H8639678   4.833   5.610   5.450 -1.5098 -1.3699  1.3252
  197MOL    H8739679   4.822   5.519   5.302  0.6719 -0.9621  0.1249
  197MOL    H8839680   5.082   5.604   5.438  0.7658 -0.7672  0.0898
  197MOL    H8939681   5.088   5.511   5.300  0.6523 -0.1770 -1.2387
  197MOL    H9039682   4.977   5.793   5.348 -3.2104 -1.2279 -0.2076
  197MOL    H9139683   4.962   5.719   5.185  1.0589  1.1717 -0.6924
  197MOL    O9239684   5.149   5.756   5.242  0.1769  0.6334 -0.4861
  197MOL    C9339685   5.179   5.887   5.177 -0.1723  0.2900 -0.1045
  197MOL    C9439686   5.176   5.866   5.022 -0.3440  0.2680 -0.7571
  197MOL    C9539687   5.186   5.986   4.925 -0.2611 -0.2979 -0.2190
  197MOL    H9639688   5.281   5.923   5.193 -0.7141  1.4834  0.7474
  197MOL    H9739689   5.113   5.965   5.213 -1.1776  0.0708 -1.4371
  197MOL    H9839690   5.249   5.793   4.986 -0.3723  0.2137 -0.7050
  197MOL    H9939691   5.074   5.828   5.006 -0.3484 -0.2522  0.4116
  197MOL   H10039692   5.167   5.950   4.824  1.8842 -1.9902 -0.0463
  197MOL   H10139693   5.289   6.021   4.919 -1.1208  2.0756 -1.9474
  197MOL   O10239694   5.093   6.097   4.958 -0.3166 -0.4509 -0.4379
  197MOL   C10339695   5.117   6.208   4.873 -0.4949 -0.1692  0.0618
  197MOL   C10439696   5.060   6.181   4.733  0.2213 -0.1424  0.5612
  197MOL   C10539697   5.059   6.318   4.650 -0.6990 -0.3448 -0.1888
  197MOL   H10639698   5.225   6.227   4.875  0.0671 -3.1929  1.9899
  197MOL   H10739699   5.066   6.296   4.912  0.4813  0.5599 -0.2825
  197MOL   H10839700   5.107   6.102   4.675  1.1270  0.0337  1.0462
  197MOL   H10939701   4.954   6.155   4.740 -0.3100  1.6376 -0.4462
  197MOL   H11039702   5.065   6.404   4.718 -1.1643 -1.1914  0.9446
  197MOL   H11139703   4.964   6.318   4.598 -0.0144 -1.5743 -1.4618
  197MOL   O11239704   5.179   6.311   4.574 -0.1478  0.4646 -0.4384
  197MOL   C11339705   5.172   6.389   4.457 -0.1756  0.1924 -0.2208
  197MOL   C11439706   5.312   6.423   4.396 -0.3958 -0.1261 -0.8283
  197MOL   C11539707   5.296   6.519   4.273 -0.7008  0.5051  0.1101
  197MOL   H11639708   5.123   6.484   4.478  2.6617  1.6654  0.0423
  197MOL   H11739709   5.116   6.331   4.385  0.8045 -1.0671  0.0207
  197MOL   H11839710   5.363   6.476   4.477  1.0619  0.3064 -2.0048
  197MOL   H11939711   5.362   6.328   4.379  1.6060  0.9719 -1.1726
  197MOL   H12039712   5.232   6.605   4.293 -1.4258 -0.2699  1.1718
  197MOL   H12139713   5.243   6.478   4.187 -2.3404  0.3153  1.1887
  197MOL   O12239714   5.419   6.578   4.229  0.1763 -0.0693 -0.5070
  197MOL   C12339715   5.519   6.485   4.189 -0.1148 -0.2018  0.3797
  197MOL   C12439716   5.637   6.489   4.286 -0.4269 -0.1667  0.3093
  197MOL   C12539717   5.756   6.401   4.239  0.1014  0.5985  0.8118
  197MOL   H12639718   5.545   6.508   4.086  1.1456 -2.1946  0.2351
  197MOL   H12739719   5.479   6.384   4.194 -1.9825  0.5693  2.0059
  197MOL   H12839720   5.676   6.587   4.312  1.3896 -0.7374 -0.2136
  197MOL   H12939721   5.611   6.438   4.379  1.1941 -0.3458  0.6769
  197MOL   H13039722   5.851   6.413   4.291  0.6236 -1.9749  0.5275
  197MOL   H13139723   5.785   6.427   4.137 -0.3881 -0.2108  0.4588
  197MOL   O13239724   5.714   6.269   4.255 -0.2038 -0.3257  0.1826
  197MOL   C13339725   5.717   6.192   4.140  0.0540 -0.0539  0.0464
  197MOL   C13439726   5.751   6.045   4.174 -0.4327  0.7168  0.0513
  197MOL   C13539727   5.732   5.950   4.056 -0.4109  0.1468  0.0691
  197MOL   H13639728   5.781   6.234   4.063  2.3314 -1.6860  0.9793
  197MOL   H13739729   5.618   6.195   4.095 -0.6607  0.0233  1.5890
  197MOL   H13839730   5.854   6.032   4.207 -0.3756  0.6209 -0.1648
  197MOL   H13939731   5.686   6.018   4.257 -1.6166  1.9115 -0.4616
  197MOL   H14039732   5.813   5.969   3.986 -0.3050 -0.9795 -0.1345
  197MOL   H14139733   5.636   5.967   4.007 -1.0438 -2.8827  0.1088
  197MOL   O14239734   5.733   5.817   4.100 -1.1024  0.5277 -0.4822
  197MOL   C14339735   5.813   5.725   4.023 -0.2795  0.1247 -0.3180
  197MOL   C14439736   5.966   5.728   4.049  0.3921  1.3026  0.0599
  197MOL   C14539737   6.004   5.685   4.185  0.3037 -0.5084  0.4011
  197MOL   H14639738   5.797   5.753   3.919 -1.2658 -1.4744 -0.6207
  197MOL   H14739739   5.781   5.622   4.040  1.8948 -0.3791  0.8171
  197MOL   H14839740   5.998   5.647   3.983  0.9017  0.4426  1.3476
  197MOL   H14939741   6.007   5.825   4.022  1.2224  1.4429  1.7518
  197MOL   H15039742   5.942   5.601   4.214 -0.7868  0.5396  1.1064
  197MOL   H15139743   5.983   5.770   4.250 -0.1057  0.9578 -1.5979
  197MOL   O15239744   6.146   5.657   4.183 -0.1411 -0.4211 -0.7292
  197MOL   C15339745   6.206   5.613   4.302  0.0374 -0.1679  0.1205
  197MOL   C15439746   6.120   5.517   4.380 -0.5871 -0.1370 -0.7519
  197MOL   C15539747   6.208   5.433   4.479  0.6291 -0.0068 -0.1596
  197MOL   H15639748   6.241   5.695   4.365 -0.8741  0.2404  0.1065
  197MOL   H15739749   6.294   5.555   4.275  0.0638  0.3247 -0.8902
  197MOL   H15839750   6.044   5.563   4.443 -0.4589 -2.3005  1.0224
  197MOL   H15939751   6.086   5.449   4.302  2.3507 -1.6106 -0.8419
  197MOL   H16039752   6.298   5.389   4.436  0.0548 -2.5436  1.1185
  197MOL   H16139753   6.151   5.344   4.507 -0.3714  0.7086  0.1267
  197MOL   O16239754   6.259   5.504   4.591 -0.4887 -0.1676  0.3006
  197MOL   C16339755   6.176   5.484   4.706  0.0186  0.5537 -0.5974
  197MOL   C16439756   6.194   5.592   4.816  0.0293  0.0258 -0.4680
  197MOL   C16539757   6.109   5.566   4.940  0.9739  0.4686  0.0174
  197MOL   H16639758   6.207   5.388   4.749  1.5204  0.0574 -2.6936
  197MOL   H16739759   6.069   5.479   4.684 -0.1747  0.1870  0.3844
  197MOL   H16839760   6.297   5.589   4.850 -0.3840 -2.2064  0.7396
  197MOL   H16939761   6.177   5.687   4.767  0.4107  0.3096 -0.0521
  197MOL   H17039762   6.003   5.572   4.918  0.5746 -1.6260  1.1977
  197MOL   H17139763   6.136   5.645   5.011  0.3236 -0.5262  1.4046
  197MOL   O17239764   6.132   5.441   4.995  0.7737  0.4646  0.0049
  197MOL   C17339765   6.048   5.403   5.108  0.2995  0.0340 -0.4214
  197MOL   C17439766   6.085   5.271   5.178 -0.2201 -0.2742 -0.1921
  197MOL   C17539767   5.985   5.229   5.283  0.1969  0.0281  0.0573
  197MOL   H17639768   5.945   5.401   5.071  0.0968  1.7019  0.0194
  197MOL   H17739769   6.060   5.479   5.186  0.2201  0.3658 -0.7296
  197MOL   H17839770   6.094   5.196   5.100 -1.6204 -1.7134  1.0081
  197MOL   H17939771   6.183   5.279   5.225 -1.0672 -0.1409  1.5997
  197MOL   H18039772   5.964   5.305   5.359 -0.5642  0.3362 -0.4614
  197MOL   H18139773   6.022   5.139   5.333 -1.0169 -1.7961 -2.2744
  197MOL   O18239774   5.868   5.199   5.222 -0.3129  0.0874  0.2018
  197MOL   C18339775   5.759   5.199   5.307  0.0179  0.0758 -0.1539
  197MOL   C18439776   5.637   5.149   5.230  0.3270  0.3893 -0.1668
  197MOL   C18539777   5.499   5.190   5.291 -0.4753  0.3566 -0.6373
  197MOL   H18639778   5.735   5.298   5.347  0.7704 -1.0318  3.1768
  197MOL   H18739779   5.763   5.137   5.396  0.2802  2.3445  1.4673
  197MOL   H18839780   5.640   5.202   5.134  1.6028  0.6330 -0.0060
  197MOL   H18939781   5.630   5.043   5.208  0.0205  0.5818 -1.0328
  197MOL   H19039782   5.504   5.190   5.400 -0.3709  0.3629 -0.6421
  197MOL   H19139783   5.428   5.118   5.250  0.2768 -1.0598  0.4880
  197MOL   O19239784   5.479   5.322   5.245 -0.8343  0.0163 -0.1178
  197MOL   C19339785   5.429   5.414   5.343  0.6786 -0.3716 -0.9714
  197MOL   C19439786   5.464   5.553   5.309 -0.2480 -0.1514  0.1364
  197MOL   C19539787   5.415   5.651   5.416 -0.5442  1.3814  0.2888
  197MOL   H19639788   5.452   5.387   5.446  3.7129  0.5704 -1.3470
  197MOL   H19739789   5.321   5.407   5.355  0.6710 -0.1870 -0.9251
  197MOL   H19839790   5.568   5.571   5.282 -0.5686  1.3040 -0.1657
  197MOL   H19939791   5.412   5.574   5.215 -1.6110 -2.4749  0.3081
  197MOL   H20039792   5.307   5.642   5.426 -0.6006 -0.0831 -1.3415
  197MOL   H20139793   5.434   5.754   5.386  0.0482  1.4679  0.9680
  197MOL   H20239794   5.456   5.629   5.514 -0.8502  1.8602  0.5229
  198MOL     O139795   7.369   2.106   5.497 -0.5994  0.2985 -0.7588
  198MOL     C239796   7.265   2.208   5.514  0.8355  0.0572 -0.0970
  198MOL     C339797   7.234   2.256   5.369 -0.2645 -0.1433 -0.2247
  198MOL     C439798   7.137   2.157   5.301 -0.9062  0.0234 -0.5578
  198MOL     H539799   7.314   2.284   5.576  1.5905 -1.3696  1.1017
  198MOL     H639800   7.171   2.172   5.554 -0.2483  1.4786 -1.3319
  198MOL     H739801   7.193   2.355   5.391  2.3887  0.7086  1.0893
  198MOL     H839802   7.326   2.261   5.311  0.7713 -2.7674  1.1094
  198MOL     H939803   7.041   2.150   5.353 -0.6453 -0.8950 -0.1748
  198MOL    H1039804   7.184   2.059   5.296 -1.8912 -0.5606  1.1479
  198MOL    H1139805   7.440   2.164   5.473 -0.3494 -0.3935 -1.6909
  198MOL    O1239806   7.109   2.198   5.167 -0.2467 -0.3466 -0.0556
  198MOL    C1339807   7.011   2.118   5.113  0.6870 -0.4686  0.2349
  198MOL    C1439808   6.951   2.187   4.987 -0.4658  0.1908  0.1604
  198MOL    C1539809   6.853   2.097   4.909 -0.5215 -1.0887 -0.4578
  198MOL    H1639810   6.930   2.085   5.178  1.2193 -1.1768  0.5410
  198MOL    H1739811   7.052   2.022   5.084  2.7187  0.6201 -0.6365
  198MOL    H1839812   6.903   2.277   5.025 -0.7176 -0.2002  0.7643
  198MOL    H1939813   7.034   2.210   4.921  0.5168  1.6924  1.8681
  198MOL    H2039814   6.776   2.060   4.977  1.6299 -2.8863  1.0641
  198MOL    H2139815   6.897   2.004   4.872  0.4809 -0.6716 -0.3300
  198MOL    O2239816   6.804   2.157   4.795  0.1481 -0.2570  0.0492
  198MOL    C2339817   6.688   2.103   4.727 -0.7520 -0.3004 -0.1755
  198MOL    C2439818   6.618   2.194   4.624  1.0233  0.8537  0.0099
  198MOL    C2539819   6.723   2.214   4.509  0.3858 -0.7920 -0.0958
  198MOL    H2639820   6.617   2.081   4.807  0.4362 -1.3745  0.5916
  198MOL    H2739821   6.710   2.010   4.674 -0.0540 -0.2712  0.0699
  198MOL    H2839822   6.523   2.156   4.587 -0.0008  1.4918  1.9027
  198MOL    H2939823   6.594   2.288   4.674  0.0447  1.5650 -1.7427
  198MOL    H3039824   6.759   2.115   4.478  4.0159  0.7076 -0.8874
  198MOL    H3139825   6.819   2.254   4.542 -0.4513  2.5156 -1.5045
  198MOL    O3239826   6.674   2.305   4.407 -0.1108 -0.0254  0.1586
  198MOL    C3339827   6.757   2.337   4.294 -0.4672 -0.3501  0.7537
  198MOL    C3439828   6.701   2.438   4.196  0.0587  0.8066 -0.0870
  198MOL    C3539829   6.577   2.394   4.125  0.2272  0.2585  0.4679
  198MOL    H3639830   6.787   2.247   4.240  0.5332  1.5916 -2.0333
  198MOL    H3739831   6.849   2.373   4.339  1.6462 -2.0156 -2.1009
  198MOL    H3839832   6.681   2.533   4.245  0.0622  1.0236 -0.5121
  198MOL    H3939833   6.777   2.472   4.126 -0.1344  1.9268  0.2392
  198MOL    H4039834   6.501   2.349   4.189 -0.7063  0.6693 -0.3322
  198MOL    H4139835   6.608   2.320   4.052 -0.9104  0.8952 -0.6865
  198MOL    O4239836   6.527   2.494   4.039 -0.0784 -0.1782  0.6892
  198MOL    C4339837   6.391   2.505   4.048 -0.1948 -0.3796 -0.0682
  198MOL    C4439838   6.348   2.632   3.967 -0.0481 -0.3299 -0.2225
  198MOL    C4539839   6.199   2.652   3.981 -0.4979 -0.0364 -0.6605
  198MOL    H4639840   6.357   2.535   4.147 -0.3667  1.7029 -0.7331
  198MOL    H4739841   6.345   2.413   4.013 -0.2309 -0.2303 -0.4117
  198MOL    H4839842   6.405   2.720   3.998  0.3466 -0.4806 -0.5192
  198MOL    H4939843   6.378   2.630   3.863  1.4951  1.3643  0.1629
  198MOL    H5039844   6.174   2.659   4.086 -1.3543  1.3967 -0.9479
  198MOL    H5139845   6.138   2.572   3.938  1.8146 -1.6039 -1.1526
  198MOL    O5239846   6.176   2.772   3.913 -0.4048  0.1757 -0.0220
  198MOL    C5339847   6.051   2.831   3.942  0.3685 -0.0974  0.3505
  198MOL    C5439848   6.056   2.979   3.888  0.2249  0.8171  0.4621
  198MOL    C5539849   5.938   3.065   3.921  0.5396  0.6638  0.5473
  198MOL    H5639850   6.028   2.829   4.048  1.1041  2.5878  0.5953
  198MOL    H5739851   5.971   2.779   3.888 -1.1439  2.1555  0.3427
  198MOL    H5839852   6.149   3.030   3.912 -0.4948  2.7501 -0.7321
  198MOL    H5939853   6.061   2.972   3.779 -0.9623  2.0033  0.3224
  198MOL    H6039854   5.843   3.025   3.886 -0.4288  2.1834  1.4002
  198MOL    H6139855   5.952   3.158   3.866  0.5396  0.3830  0.0643
  198MOL    O6239856   5.927   3.076   4.060 -0.0090 -0.0989  0.4826
  198MOL    C6339857   5.811   3.133   4.101  0.7001  0.1936 -0.5247
  198MOL    C6439858   5.786   3.106   4.255 -0.2648  0.2819 -0.1953
  198MOL    C6539859   5.651   3.132   4.310  0.6198  0.7068 -0.0294
  198MOL    H6639860   5.725   3.096   4.045  1.0456  0.7207 -1.4156
  198MOL    H6739861   5.819   3.238   4.071 -0.4111  0.0762 -1.2435
  198MOL    H6839862   5.813   3.003   4.278 -2.0809 -0.3148 -0.6158
  198MOL    H6939863   5.864   3.170   4.298  0.3769  0.6453 -1.8451
  198MOL    H7039864   5.649   3.240   4.293 -1.1846  0.2921 -2.7051
  198MOL    H7139865   5.642   3.115   4.417  1.4254  0.6417  0.0330
  198MOL    O7239866   5.547   3.057   4.244 -0.0619  0.0747 -0.3603
  198MOL    C7339867   5.421   3.098   4.290  0.4224 -0.0327 -0.5966
  198MOL    C7439868   5.307   3.028   4.213 -0.0295 -0.7074 -0.1747
  198MOL    C7539869   5.160   3.062   4.253 -0.1041 -0.9507  0.0066
  198MOL    H7639870   5.413   3.206   4.294 -1.4305 -0.1819  0.4747
  198MOL    H7739871   5.412   3.054   4.389  1.2023 -3.0829 -1.8062
  198MOL    H7839872   5.320   3.037   4.106  4.2667  0.5565  0.3540
  198MOL    H7939873   5.314   2.919   4.219 -2.9619 -0.8831  0.8412
  198MOL    H8039874   5.141   3.167   4.228  0.8055 -0.3530  1.6886
  198MOL    H8139875   5.148   3.060   4.362  0.5482 -1.2929  0.0724
  198MOL    O8239876   5.068   2.979   4.183  0.2724 -0.6634  0.0511
  198MOL    C8339877   5.030   2.859   4.245  0.7910  0.2486  0.5219
  198MOL    C8439878   4.949   2.763   4.162 -0.2957 -0.2753  0.3777
  198MOL    C8539879   4.995   2.742   4.024  0.0529  0.8626  0.0576
  198MOL    H8639880   4.976   2.881   4.338  1.6538  1.8576  0.6609
  198MOL    H8739881   5.122   2.811   4.278  1.4781 -0.2328 -1.9866
  198MOL    H8839882   4.933   2.670   4.216 -0.3228  0.3262  1.4240
  198MOL    H8939883   4.852   2.808   4.143  0.1420  0.3456 -0.4202
  198MOL    H9039884   5.102   2.725   4.011 -0.4091 -2.1855 -0.1298
  198MOL    H9139885   4.981   2.831   3.962  0.6302 -0.0269 -1.3742
  198MOL    O9239886   4.919   2.633   3.980 -0.3274  0.0566 -0.3431
  198MOL    C9339887   4.930   2.632   3.843 -0.3137  0.0006  0.3074
  198MOL    C9439888   4.852   2.505   3.796 -0.1682  0.2404 -0.8935
  198MOL    C9539889   4.861   2.483   3.645 -0.8722  0.6228 -0.1653
  198MOL    H9639890   5.033   2.619   3.812 -0.1844  0.7454  0.4199
  198MOL    H9739891   4.896   2.721   3.789 -0.7065  0.1979  0.8705
  198MOL    H9839892   4.902   2.420   3.843 -0.4219 -0.2384 -1.4753
  198MOL    H9939893   4.749   2.514   3.831 -0.0842  2.2287 -1.0905
  198MOL   H10039894   4.964   2.476   3.611 -0.2380 -1.2053  1.9900
  198MOL   H10139895   4.802   2.566   3.606  0.1276  1.9803  1.1719
  198MOL   O10239896   4.797   2.360   3.620  0.0436 -0.7757  0.5208
  198MOL   C10339897   4.776   2.345   3.480  0.5425  0.3078 -0.2148
  198MOL   C10439898   4.675   2.241   3.440  0.0122  0.2428  0.5615
  198MOL   C10539899   4.526   2.254   3.489  0.1071  0.3713  0.0780
  198MOL   H10639900   4.879   2.328   3.449  0.4464  0.9578 -0.8670
  198MOL   H10739901   4.747   2.443   3.443  1.4211  0.6523 -0.0046
  198MOL   H10839902   4.670   2.249   3.331  1.6223  3.7289  0.6848
  198MOL   H10939903   4.712   2.143   3.470  1.7057  1.1699  1.5546
  198MOL   H11039904   4.484   2.341   3.438  0.7009  0.2324 -0.6607
  198MOL   H11139905   4.521   2.264   3.598  2.6850  1.7405  0.1185
  198MOL   O11239906   4.459   2.138   3.458  0.1847  0.3442 -0.1234
  198MOL   C11339907   4.328   2.142   3.504  0.8371 -0.1409 -0.1900
  198MOL   C11439908   4.232   2.033   3.454  0.3308  0.4988  0.0229
  198MOL   C11539909   4.262   1.904   3.523  0.3392  0.1833  0.1878
  198MOL   H11639910   4.282   2.240   3.487 -0.6375 -0.7260  0.3427
  198MOL   H11739911   4.326   2.135   3.613  0.6686  1.8389 -0.0353
  198MOL   H11839912   4.128   2.063   3.470 -0.2498 -0.8118 -1.2436
  198MOL   H11939913   4.238   2.022   3.346  1.2372 -3.0091  0.3895
  198MOL   H12039914   4.249   1.928   3.629 -1.6178  0.2276 -0.0460
  198MOL   H12139915   4.366   1.876   3.508 -0.0494 -0.4344 -1.3341
  198MOL   O12239916   4.170   1.803   3.499  0.3135 -0.4005  0.2297
  198MOL   C12339917   4.214   1.672   3.539  0.3216  0.0425 -0.6581
  198MOL   C12439918   4.096   1.578   3.526 -0.3249 -0.5153  0.3357
  198MOL   C12539919   4.142   1.438   3.559  0.0867 -0.0016  0.1122
  198MOL   H12639920   4.239   1.666   3.645  1.7040  1.5848 -0.8873
  198MOL   H12739921   4.298   1.638   3.479  0.6778 -1.2225  0.5282
  198MOL   H12839922   4.003   1.614   3.569 -0.3217 -1.3732  1.0809
  198MOL   H12939923   4.080   1.581   3.418  1.6252 -0.3598  0.0272
  198MOL   H13039924   4.206   1.446   3.647  0.4388  1.2435 -0.2351
  198MOL   H13139925   4.191   1.380   3.481 -1.7776 -3.0154  1.1115
  198MOL   O13239926   4.030   1.357   3.599 -0.1524 -0.5148 -0.0340
  198MOL   C13339927   4.076   1.234   3.660 -0.2049  0.4487  0.0219
  198MOL   C13439928   3.969   1.132   3.634  0.2087 -0.3728  0.4660
  198MOL   C13539929   4.015   0.990   3.674  0.8424 -0.3883 -0.2388
  198MOL   H13639930   4.101   1.231   3.766  1.3491 -1.2493 -0.3705
  198MOL   H13739931   4.163   1.191   3.609  1.9361  1.7618  2.4026
  198MOL   H13839932   3.873   1.157   3.682  0.4037 -1.5129  1.4650
  198MOL   H13939933   3.945   1.134   3.528 -0.3949 -1.5084  0.5763
  198MOL   H14039934   3.926   0.928   3.687  0.1866  0.4500 -0.6729
  198MOL   H14139935   4.079   0.988   3.762 -3.3606  1.0902  3.0065
  198MOL   O14239936   4.087   0.941   3.552  0.5531 -0.2941  0.0378
  198MOL   C14339937   4.085   0.799   3.518  0.3021 -0.8293 -0.7952
  198MOL   C14439938   4.175   0.779   3.395 -0.0834 -0.2589 -0.4763
  198MOL   C14539939   4.101   0.794   3.263  0.0803 -0.0152 -0.6053
  198MOL   H14639940   3.987   0.753   3.511  1.1392 -2.6499 -0.7760
  198MOL   H14739941   4.123   0.747   3.607 -0.2979  0.3066  0.1413
  198MOL   H14839942   4.260   0.847   3.395 -0.1064 -0.2185  0.7040
  198MOL   H14939943   4.212   0.676   3.399  2.0640  0.5271  1.3021
  198MOL   H15039944   4.076   0.900   3.255 -0.2685 -0.0138  0.4349
  198MOL   H15139945   4.003   0.747   3.260  0.0977 -0.0323 -0.8687
  198MOL   O15239946   4.183   0.756   3.157 -0.5920 -0.0315  0.1026
  198MOL   C15339947   4.132   0.757   3.029 -0.5599  0.3665 -0.0386
  198MOL   C15439948   4.094   0.893   2.973  0.3183 -0.8528 -0.0810
  198MOL   C15539949   4.080   0.896   2.824 -0.5411 -0.3510 -0.1552
  198MOL   H15639950   4.037   0.704   3.024 -0.4629  0.3421 -2.5640
  198MOL   H15739951   4.200   0.701   2.965 -1.7340 -0.1421 -0.8643
  198MOL   H15839952   3.999   0.925   3.017  0.9092  1.9754 -0.7331
  198MOL   H15939953   4.167   0.963   3.014 -0.2455 -0.8947  1.0142
  198MOL   H16039954   4.150   0.831   2.772  0.8990  0.7535  0.3909
  198MOL   H16139955   4.106   0.992   2.780  1.2585 -0.2792  1.0214
  198MOL   O16239956   3.948   0.858   2.789  0.4097  0.0015 -0.2849
  198MOL   C16339957   3.912   0.909   2.662 -0.1136 -0.2774  0.0506
  198MOL   C16439958   3.769   0.879   2.626 -0.1119 -0.2175  0.4147
  198MOL   C16539959   3.666   0.884   2.739 -0.1343  0.4752  0.2787
  198MOL   H16639960   3.966   0.847   2.590  0.6478 -1.1572  1.3644
  198MOL   H16739961   3.937   1.014   2.648 -2.1812  0.3652  0.9690
  198MOL   H16839962   3.726   0.933   2.542 -2.7419  0.0070  1.8150
  198MOL   H16939963   3.757   0.773   2.603 -1.5440 -0.6782  2.9919
  198MOL   H17039964   3.696   0.965   2.805  0.7947  1.9742 -1.9321
  198MOL   H17139965   3.676   0.795   2.801  0.1989 -1.6407 -2.6860
  198MOL   O17239966   3.532   0.879   2.684 -0.5281 -0.2340  0.8089
  198MOL   C17339967   3.435   0.827   2.771 -0.4614  0.2119  0.4784
  198MOL   C17439968   3.410   0.674   2.763 -0.6391 -0.2768 -0.3491
  198MOL   C17539969   3.354   0.606   2.631 -0.1542 -0.0924 -0.1656
  198MOL   H17639970   3.342   0.876   2.740 -0.4402  0.8963  1.4677
  198MOL   H17739971   3.445   0.860   2.875  1.2145 -1.7343  0.9550
  198MOL   H17839972   3.510   0.637   2.785  0.0894  2.6519  1.5695
  198MOL   H17939973   3.342   0.643   2.843  0.5291  0.5457  0.9901
  198MOL   H18039974   3.412   0.629   2.542  0.1615 -1.0005 -0.1989
  198MOL   H18139975   3.247   0.612   2.615 -0.4635  0.6587  2.0075
  198MOL   O18239976   3.372   0.467   2.667  0.0892  0.0826 -0.5017
  198MOL   C18339977   3.330   0.379   2.557  0.6204  0.5282 -0.0156
  198MOL   C18439978   3.318   0.227   2.597 -0.0370 -0.2123  0.3021
  198MOL   C18539979   3.271   0.127   2.491 -1.0513  0.1416 -0.3242
  198MOL   H18639980   3.401   0.390   2.475  1.9080 -1.7548  0.7621
  198MOL   H18739981   3.236   0.416   2.515  2.2415  1.7792 -2.6456
  198MOL   H18839982   3.423   0.210   2.620  0.2625  2.1411  0.8612
  198MOL   H18939983   3.260   0.204   2.687  1.4255 -0.8951  1.0872
  198MOL   H19039984   3.335   0.149   2.405 -0.3485 -2.6323 -0.5794
  198MOL   H19139985   3.172   0.151   2.453 -2.3357  0.7456  3.2854
  198MOL   O19239986   3.283   7.782   2.537 -0.5870 -0.0709 -0.3694
  198MOL   C19339987   3.233   7.681   2.449  0.1523 -0.7324  0.2746
  198MOL   C19439988   3.268   7.536   2.493  0.2857 -0.8683 -0.0579
  198MOL   C19539989   3.212   7.439   2.390  0.2003  0.4520  0.3541
  198MOL   H19639990   3.277   7.706   2.352 -1.7053 -0.4731 -0.5074
  198MOL   H19739991   3.126   7.698   2.452  0.1523 -0.5422 -0.5853
  198MOL   H19839992   3.377   7.531   2.495  0.2735 -0.8962  0.7277
  198MOL   H19939993   3.231   7.515   2.593 -0.1967  0.0246 -0.0481
  198MOL   H20039994   3.275   7.352   2.406  0.3766  0.6925  1.0083
  198MOL   H20139995   3.227   7.472   2.287 -1.0698 -1.0087 -0.3143
  198MOL   H20239996   3.108   7.417   2.412  0.1591  0.5413  0.2462
  199MOL     O139997   1.262   6.220   6.730 -0.0510 -0.2020 -0.7158
  199MOL     C239998   1.136   6.238   6.783 -0.1130  0.6606 -0.3555
  199MOL     C339999   1.134   6.343   6.892 -0.0978  0.2397  0.6772
  199MOL     C440000   0.991   6.381   6.941 -0.8393 -0.4810  0.1995
  199MOL     H540001   1.103   6.138   6.809  1.4779  0.3446  0.5085
  199MOL     H640002   1.081   6.265   6.693 -0.1066 -1.6489 -1.0879
  199MOL     H740003   1.191   6.321   6.982 -1.6544 -0.7893  1.4332
  199MOL     H840004   1.180   6.435   6.856 -1.0751 -0.5781 -2.9476
  199MOL     H940005   0.952   6.287   6.982  1.2768 -3.0656 -3.4098
  199MOL    H1040006   0.926   6.401   6.856  1.3740  1.1141 -1.1781
  199MOL    H1140007   1.316   6.163   6.784  0.7322  0.0167 -1.2502
  199MOL    O1240008   1.003   6.486   7.042  0.1597 -0.4780 -0.3259
  199MOL    C1340009   0.878   6.510   7.093  0.5425  0.3362 -0.4507
  199MOL    C1440010   0.876   6.617   7.193  0.1466 -0.1705 -0.7761
  199MOL    C1540011   0.751   6.639   7.268 -0.2754  0.4634 -1.2419
  199MOL    H1640012   0.833   6.419   7.134 -2.0081  0.8801 -1.9463
  199MOL    H1740013   0.806   6.538   7.016  0.7273 -2.3337 -1.6603
  199MOL    H1840014   0.957   6.605   7.264 -0.0026  0.8404 -0.4184
  199MOL    H1940015   0.889   6.713   7.142  0.1914  1.3108  1.9144
  199MOL    H2040016   0.662   6.654   7.206 -1.1880  0.5654  0.0646
  199MOL    H2140017   0.758   6.723   7.337  1.0347 -1.8723  1.5267
  199MOL    O2240018   0.728   6.523   7.345 -0.3851  0.1556 -0.3838
  199MOL    C2340019   0.630   6.523   7.442  0.4083 -0.0436  0.0965
  199MOL    C2440020   0.492   6.524   7.382 -0.1309  1.3393 -0.1094
  199MOL    C2540021   0.381   6.528   7.490 -0.0101 -0.3955  0.8395
  199MOL    H2640022   0.641   6.604   7.514  0.0647 -0.3648  0.5111
  199MOL    H2740023   0.650   6.433   7.500  0.4465  1.2425  2.1188
  199MOL    H2840024   0.480   6.616   7.326  0.4382  0.9500 -0.8681
  199MOL    H2940025   0.478   6.437   7.319  0.9528  0.4949  0.7858
  199MOL    H3040026   0.378   6.628   7.532  1.3918  0.8943 -1.9732
  199MOL    H3140027   0.401   6.449   7.563 -0.2930 -0.0966  1.2398
  199MOL    O3240028   0.254   6.490   7.424 -0.7802  0.4526  0.1048
  199MOL    C3340029   0.146   6.501   7.514 -0.2471  0.9469 -0.3883
  199MOL    C3440030   0.022   6.456   7.448  0.4419 -0.3034  0.1452
  199MOL    C3540031   7.716   6.371   7.532  0.1512  0.3834  0.3668
  199MOL    H3640032   0.133   6.602   7.552 -1.0158  0.4728  0.6534
  199MOL    H3740033   0.162   6.427   7.593 -1.7328  1.6383  0.5677
  199MOL    H3840034   7.761   6.534   7.391 -0.7962 -1.3654 -0.2438
  199MOL    H3940035   0.060   6.389   7.370 -2.9987  0.6127 -2.4101
  199MOL    H4040036   7.775   6.313   7.603  0.6142  0.4653  0.0563
  199MOL    H4140037   7.665   6.299   7.468  0.0274  2.1014 -1.5235
  199MOL    O4240038   7.632   6.464   7.604 -0.3275 -0.4609 -0.2741
  199MOL    C4340039   7.532   6.400   7.690  0.4971  0.3200 -0.3373
  199MOL    C4440040   7.597   6.341   0.027  0.5281  0.6523  1.1241
  199MOL    C4540041   7.491   6.318   0.134 -0.1025  0.3817 -0.7964
  199MOL    H4640042   7.466   6.334   7.635 -0.3864  2.6082 -2.1014
  199MOL    H4740043   7.464   6.480   7.717  3.2136  3.2300 -1.7678
  199MOL    H4840044   7.647   6.248   7.787 -1.1895 -0.2327  0.8943
  199MOL    H4940045   7.675   6.407   0.065 -0.2741  1.9705  0.5180
  199MOL    H5040046   7.527   6.250   0.211  2.6664  0.3566 -2.0306
  199MOL    H5140047   7.399   6.265   0.108  0.4108  0.5724 -3.1248
  199MOL    O5240048   7.460   6.445   0.183  0.2048 -0.1006  0.0227
  199MOL    C5340049   7.389   6.434   0.306 -0.0763  0.2378  0.0596
  199MOL    C5440050   7.242   6.383   0.292  0.7173 -0.1383 -0.5725
  199MOL    C5540051   7.176   6.369   0.430  0.5053 -0.4981 -0.3018
  199MOL    H5640052   7.381   6.531   0.354  1.9886 -0.5361  2.0611
  199MOL    H5740053   7.439   6.367   0.376 -1.3516  1.1648  1.9224
  199MOL    H5840054   7.181   6.432   0.216  0.5650 -0.7795 -0.8705
  199MOL    H5940055   7.257   6.281   0.256  1.5857 -0.1437 -0.2099
  199MOL    H6040056   7.143   6.466   0.468 -1.6908 -1.1980 -0.3141
  199MOL    H6140057   7.238   6.317   0.503 -0.6288 -1.4786 -0.0181
  199MOL    O6240058   7.052   6.302   0.422 -0.2411 -0.7875  0.3956
  199MOL    C6340059   6.991   6.282   0.548 -0.1046 -1.1854  0.4806
  199MOL    C6440060   6.849   6.215   0.521 -0.4873  1.0866  0.3944
  199MOL    C6540061   6.728   6.313   0.493  0.1365  0.0900  0.1080
  199MOL    H6640062   6.993   6.362   0.622  1.3455 -2.5349  1.9496
  199MOL    H6740063   7.053   6.207   0.597  0.7912 -0.9706 -0.3098
  199MOL    H6840064   6.869   6.160   0.429  2.4275  1.1991  0.9175
  199MOL    H6940065   6.830   6.152   0.608 -2.1276 -0.6831 -1.2046
  199MOL    H7040066   6.763   6.395   0.431 -1.3422  0.2254 -0.5729
  199MOL    H7140067   6.696   6.374   0.578  0.9782 -0.7556  1.0450
  199MOL    O7240068   6.620   6.242   0.446  0.1089 -0.3311  0.4948
  199MOL    C7340069   6.515   6.329   0.407 -0.9955 -0.3951 -0.1354
  199MOL    C7440070   6.390   6.249   0.381  0.0802 -0.2633  0.3158
  199MOL    C7540071   6.258   6.338   0.364  0.0987  0.1736  0.0366
  199MOL    H7640072   6.549   6.381   0.317  1.0540  1.7189  1.7759
  199MOL    H7740073   6.494   6.418   0.467 -2.5137  0.1983 -1.5034
  199MOL    H7840074   6.408   6.174   0.304  2.4225  0.6439 -0.0682
  199MOL    H7940075   6.372   6.182   0.465  0.2559  0.5141  0.9779
  199MOL    H8040076   6.176   6.271   0.338  0.1432  0.7720 -1.7110
  199MOL    H8140077   6.274   6.405   0.279  2.9281 -0.6513 -0.1341
  199MOL    O8240078   6.230   6.401   0.486 -0.2116  0.2855 -0.9704
  199MOL    C8340079   6.135   6.338   0.572 -0.0590  0.0200  0.8530
  199MOL    C8440080   6.130   6.395   0.717  0.8484  0.6012 -0.2108
  199MOL    C8540081   6.035   6.323   0.812 -0.2137  0.0581  0.7606
  199MOL    H8640082   6.164   6.233   0.570 -2.2908 -0.5909 -0.5915
  199MOL    H8740083   6.040   6.342   0.520  0.7009  0.8967 -0.5199
  199MOL    H8840084   6.234   6.394   0.750  0.7133 -0.9567  0.2000
  199MOL    H8940085   6.093   6.498   0.710  0.7455  0.6273  0.6761
  199MOL    H9040086   6.067   6.221   0.834 -1.0132 -0.0306  1.5778
  199MOL    H9140087   5.935   6.314   0.769 -0.3526  0.1178  1.0667
  199MOL    O9240088   6.025   6.381   0.935 -0.1414  0.0438 -0.3808
  199MOL    C9340089   5.934   6.308   1.016 -0.4701 -0.9485 -0.2247
  199MOL    C9440090   5.895   6.384   1.150  0.0975 -0.3675  0.0488
  199MOL    C9540091   5.793   6.494   1.145  0.0093  0.3979 -0.1317
  199MOL    H9640092   5.973   6.209   1.040 -2.0613 -1.4064  0.6021
  199MOL    H9740093   5.839   6.290   0.966 -1.4009 -2.6430  2.0719
  199MOL    H9840094   5.869   6.316   1.232  1.1380 -0.1023  0.5995
  199MOL    H9940095   5.988   6.417   1.195  0.0944 -2.2519  1.5099
  199MOL   H10040096   5.818   6.573   1.074 -2.1464  0.4590 -0.8459
  199MOL   H10140097   5.774   6.542   1.241  0.9087 -0.8778  0.7046
  199MOL   O10240098   5.672   6.436   1.101 -0.1535 -0.4217  0.0984
  199MOL   C10340099   5.555   6.492   1.154 -0.0147 -0.8660 -0.5959
  199MOL   C10440100   5.435   6.435   1.089 -0.0732  0.1877 -0.0674
  199MOL   C10540101   5.308   6.467   1.161  0.3399 -0.4619 -0.8231
  199MOL   H10640102   5.570   6.598   1.133  2.3190 -1.1074 -0.1756
  199MOL   H10740103   5.560   6.484   1.262 -1.0117  0.3506 -0.4477
  199MOL   H10840104   5.428   6.461   0.983 -0.0780  1.0104  0.1388
  199MOL   H10940105   5.424   6.326   1.093 -1.2147  0.1403 -2.9451
  199MOL   H11040106   5.322   6.436   1.264 -0.2918 -1.1381 -0.9315
  199MOL   H11140107   5.220   6.416   1.121 -1.1886  2.5836 -1.5446
  199MOL   O11240108   5.290   6.614   1.152  0.4849  0.3099  0.6111
  199MOL   C11340109   5.170   6.647   1.218  0.1044 -0.4963  0.0582
  199MOL   C11440110   5.147   6.804   1.231 -0.0839  0.8542  0.7188
  199MOL   C11540111   5.012   6.834   1.297 -0.2027  0.1239 -0.1885
  199MOL   H11640112   5.175   6.617   1.323 -0.2240  1.1033  0.5340
  199MOL   H11740113   5.079   6.599   1.181 -0.2415  0.1476  0.0759
  199MOL   H11840114   5.224   6.860   1.284  0.4030  0.2470  0.6499
  199MOL   H11940115   5.146   6.844   1.130 -1.7532 -1.0801 -0.0634
  199MOL   H12040116   5.002   6.782   1.393  0.1206  0.2100 -0.1092
  199MOL   H12140117   4.935   6.784   1.238 -1.1563  2.1743 -0.7077
  199MOL   O12240118   4.977   6.966   1.305 -0.0876 -0.4156 -0.0024
  199MOL   C12340119   4.855   6.997   1.364  0.2683  0.3066 -0.0920
  199MOL   C12440120   4.828   7.152   1.387 -0.0740  0.7079 -0.5513
  199MOL   C12540121   4.696   7.176   1.450  0.7999 -0.5933  0.2534
  199MOL   H12640122   4.848   6.953   1.464  0.8858 -2.8358 -1.3512
  199MOL   H12740123   4.771   6.969   1.300 -1.0865  2.4053  0.7350
  199MOL   H12840124   4.900   7.187   1.461  2.1131 -0.6935 -1.9671
  199MOL   H12940125   4.835   7.214   1.298  2.6891 -0.0322 -0.8781
  199MOL   H13040126   4.692   7.110   1.537  2.8824  0.3263  1.0695
  199MOL   H13140127   4.623   7.139   1.378 -0.3756 -1.9302  2.0904
  199MOL   O13240128   4.687   7.313   1.483  0.1012  0.1035 -0.5732
  199MOL   C13340129   4.555   7.361   1.458  0.5339 -0.1605 -0.3140
  199MOL   C13440130   4.571   7.516   1.469 -0.0487 -0.5422 -0.1147
  199MOL   C13540131   4.654   7.576   1.356 -0.2118  0.1168  0.0550
  199MOL   H13640132   4.479   7.316   1.522  1.2996 -1.8592 -0.5804
  199MOL   H13740133   4.521   7.336   1.357  0.9757 -2.6107  0.0986
  199MOL   H13840134   4.475   7.567   1.463  0.6325  1.1125  2.3814
  199MOL   H13940135   4.624   7.538   1.562  0.5700  0.2930 -0.6618
  199MOL   H14040136   4.590   7.585   1.268 -2.1027  1.6133  1.5478
  199MOL   H14140137   4.741   7.515   1.333  0.0443 -0.3985  2.3029
  199MOL   O14240138   4.710   7.696   1.397 -0.0083 -0.0996 -0.3524
  199MOL   C14340139   4.778   7.745   1.285  0.1014  0.6297  0.9848
  199MOL   C14440140   4.840   0.089   1.334  0.7441  0.0115  0.2645
  199MOL   C14540141   4.924   0.148   1.220  0.1646  0.0704  0.0322
  199MOL   H14640142   4.713   7.759   1.199 -1.0528  0.6794  1.8575
  199MOL   H14740143   4.856   7.674   1.255 -1.1864 -0.1336 -0.6413
  199MOL   H14840144   4.766   0.160   1.372 -0.1444 -0.5889 -0.3433
  199MOL   H14940145   4.893   0.058   1.424  0.4320  0.1689  0.5000
  199MOL   H15040146   4.857   0.196   1.148 -1.3200  0.5839  1.7324
  199MOL   H15140147   4.985   0.079   1.161 -0.2018 -1.9503  1.9795
  199MOL   O15240148   5.000   0.257   1.277 -0.2321 -0.6524  0.3259
  199MOL   C15340149   5.058   0.332   1.172  0.0126  0.3440 -0.0683
  199MOL   C15440150   5.128   0.456   1.234  0.0211 -0.9452  0.3675
  199MOL   C15540151   5.231   0.423   1.343  0.5180 -0.4045  0.1484
  199MOL   H15640152   4.986   0.346   1.091 -0.9840 -0.3071  0.6883
  199MOL   H15740153   5.143   0.282   1.126  0.2145 -2.1164  2.8592
  199MOL   H15840154   5.184   0.503   1.153 -1.4425 -0.5622 -0.4468
  199MOL   H15940155   5.056   0.530   1.270  0.0180 -1.0501  0.5740
  199MOL   H16040156   5.306   0.352   1.306  1.1831 -0.0867  0.8820
  199MOL   H16140157   5.185   0.373   1.428 -0.3850 -0.7578 -0.5306
  199MOL   O16240158   5.299   0.540   1.382  0.0847 -0.1831  0.3650
  199MOL   C16340159   5.394   0.512   1.478  0.6004  0.3245 -0.5559
  199MOL   C16440160   5.458   0.651   1.508  0.5562  0.1153 -0.0965
  199MOL   C16540161   5.576   0.628   1.599 -0.2822  0.3067  0.0152
  199MOL   H16640162   5.475   0.454   1.433  0.1178  0.1745 -1.2375
  199MOL   H16740163   5.345   0.464   1.563  0.3849  0.5899 -0.5324
  199MOL   H16840164   5.489   0.686   1.409 -0.0585 -1.1698 -0.7634
  199MOL   H16940165   5.383   0.717   1.551 -0.0242 -0.8626  0.4066
  199MOL   H17040166   5.654   0.571   1.548  0.5272 -0.5017  2.0729
  199MOL   H17140167   5.548   0.579   1.693 -1.0914 -0.2292 -0.4940
  199MOL   O17240168   5.625   0.759   1.631 -0.1960  0.6406  0.1677
  199MOL   C17340169   5.726   0.763   1.734  0.6687 -0.2259 -0.3042
  199MOL   C17440170   5.749   0.912   1.761 -0.7269  0.3007 -0.3290
  199MOL   C17540171   5.847   0.941   1.871  0.8620  0.4531 -0.6855
  199MOL   H17640172   5.818   0.707   1.720  0.3080 -0.8328 -0.2983
  199MOL   H17740173   5.697   0.716   1.829  1.8556 -1.0120 -0.3292
  199MOL   H17840174   5.798   0.948   1.670 -1.8389  2.7672  0.0140
  199MOL   H17940175   5.653   0.962   1.773 -1.3857 -0.9253 -0.3466
  199MOL   H18040176   5.865   1.048   1.885 -1.8418  0.7328  0.9625
  199MOL   H18140177   5.934   0.888   1.833 -0.1399 -0.9596 -1.0343
  199MOL   O18240178   5.804   0.884   1.988 -0.0360  0.2568 -0.0723
  199MOL   C18340179   5.796   0.969   2.101 -0.6646  0.7118 -0.5137
  199MOL   C18440180   5.715   0.918   2.215  0.9068  0.6526 -0.0517
  199MOL   C18540181   5.707   1.009   2.341 -0.2327 -0.4334 -0.4434
  199MOL   H18640182   5.747   1.063   2.076 -1.4071  0.6368  0.6286
  199MOL   H18740183   5.896   0.988   2.140  0.1583 -3.4022 -0.4018
  199MOL   H18840184   5.609   0.904   2.193  0.1513  2.0656  2.4073
  199MOL   H18940185   5.741   0.814   2.236  0.3090 -0.4359 -4.3737
  199MOL   H19040186   5.661   1.105   2.317 -0.7628 -0.9331 -1.5002
  199MOL   H19140187   5.812   1.031   2.357  0.1311 -2.0494 -0.5073
  199MOL   O19240188   5.662   0.946   2.458 -0.5246  0.1171  0.4139
  199MOL   C19340189   5.528   0.976   2.485 -0.2850  0.4762  0.8000
  199MOL   C19440190   5.494   0.920   2.629 -0.0739 -0.1096  0.1819
  199MOL   C19540191   5.465   0.771   2.627  0.4471 -0.8194  0.5824
  199MOL   H19640192   5.467   0.927   2.409 -0.7273  1.7560  0.3119
  199MOL   H19740193   5.520   1.085   2.481  1.4432  0.6502  1.3378
  199MOL   H19840194   5.579   0.934   2.696 -0.5360  2.5259  0.2615
  199MOL   H19940195   5.406   0.976   2.661 -0.7000 -1.0641  0.1313
  199MOL   H20040196   5.404   0.738   2.543  0.3334 -0.6832  0.6109
  199MOL   H20140197   5.408   0.747   2.718 -0.2283  1.1964  0.7009
  199MOL   H20240198   5.551   0.704   2.629  0.6373 -0.6399 -1.1719
  200MOL     O140199   4.022   0.691   4.956  0.1861 -0.1662 -0.2568
  200MOL     C240200   4.118   0.665   4.859  0.6905  0.5250 -0.0435
  200MOL     C340201   4.063   0.546   4.777 -0.5581  0.0392  0.1170
  200MOL     C440202   4.166   0.484   4.678 -0.2527 -0.6022  0.5940
  200MOL     H540203   4.219   0.641   4.892  1.2024  0.7976 -1.3973
  200MOL     H640204   4.129   0.750   4.792 -1.2418 -0.1251 -1.2111
  200MOL     H740205   4.039   0.470   4.851 -2.3795  1.0803  0.6230
  200MOL     H840206   3.980   0.581   4.717 -0.6932  0.3079  0.4579
  200MOL     H940207   4.190   0.546   4.592 -0.1291 -0.5908  0.6360
  200MOL    H1040208   4.137   0.387   4.638  0.9668 -1.0980  0.8696
  200MOL    H1140209   4.000   0.613   5.006  1.4199  0.6073  1.5754
  200MOL    O1240210   4.286   0.452   4.754  0.2722  0.2699  0.1964
  200MOL    C1340211   4.401   0.431   4.677  0.2062  0.5539  0.1252
  200MOL    C1440212   4.504   0.344   4.751 -0.1408  0.2576  0.2816
  200MOL    C1540213   4.648   0.338   4.695 -0.0344 -0.2680  0.4720
  200MOL    H1640214   4.448   0.526   4.653  2.2842 -0.1999  1.0146
  200MOL    H1740215   4.383   0.399   4.575 -2.9968 -0.4749  0.9519
  200MOL    H1840216   4.519   0.397   4.846  1.7703  2.5180 -1.1998
  200MOL    H1940217   4.476   0.239   4.758  2.5847 -0.8067 -3.0766
  200MOL    H2040218   4.705   0.274   4.762  0.0168  1.0627  1.7121
  200MOL    H2140219   4.695   0.436   4.693 -0.1418 -0.2208  0.2325
  200MOL    O2240220   4.657   0.267   4.571  0.4709  0.0599 -0.1438
  200MOL    C2340221   4.789   0.266   4.517  0.0900 -0.5398 -0.0246
  200MOL    C2440222   4.791   0.153   4.412  0.1360 -0.5266  0.3797
  200MOL    C2540223   4.922   0.150   4.332  0.4522  1.2471 -0.3344
  200MOL    H2640224   4.866   0.251   4.593  0.5565 -0.2011 -0.4315
  200MOL    H2740225   4.822   0.354   4.462  1.6201 -0.0560  1.6271
  200MOL    H2840226   4.783   0.055   4.459 -0.9266  0.2156  1.7477
  200MOL    H2940227   4.710   0.168   4.340  0.8966  0.8525 -0.2093
  200MOL    H3040228   4.933   0.244   4.278 -0.7496  1.9257  0.5629
  200MOL    H3140229   4.916   0.074   4.255  1.0488  1.4124 -0.5449
  200MOL    O3240230   5.025   0.114   4.427 -0.1254  0.2307 -0.0749
  200MOL    C3340231   5.142   0.194   4.400 -0.2989  0.5596  0.1938
  200MOL    C3440232   5.135   0.341   4.438 -0.4364 -0.7588 -0.3452
  200MOL    C3540233   5.158   0.376   4.587  0.6707 -0.4768  0.8146
  200MOL    H3640234   5.174   0.174   4.297  1.6895 -0.0147  0.8906
  200MOL    H3740235   5.218   0.150   4.464  0.2514 -0.3020 -1.0264
  200MOL    H3840236   5.212   0.407   4.397 -0.0583 -0.9245  0.1011
  200MOL    H3940237   5.045   0.398   4.416  1.5926  2.9127  0.4120
  200MOL    H4040238   5.261   0.351   4.613  0.2891 -1.3919  1.4376
  200MOL    H4140239   5.093   0.305   4.638 -0.0643 -1.3014 -1.2383
  200MOL    O4240240   5.144   0.515   4.607  0.2564  0.3139 -0.1982
  200MOL    C4340241   5.132   0.561   4.738  0.5409  0.3469 -0.3946
  200MOL    C4440242   4.991   0.603   4.784  0.0337  0.2215  0.0301
  200MOL    C4540243   4.979   0.626   4.939  0.4259  0.9497  0.2435
  200MOL    H4640244   5.202   0.644   4.747  0.3465  0.5128 -0.3946
  200MOL    H4740245   5.168   0.489   4.812  0.8507 -0.9112 -1.7499
  200MOL    H4840246   4.954   0.691   4.731 -2.1025 -1.1859 -0.8870
  200MOL    H4940247   4.920   0.525   4.758  0.2964  0.1317 -0.4235
  200MOL    H5040248   5.052   0.559   4.985  0.3669  0.3711 -0.5124
  200MOL    H5140249   4.881   0.599   4.978  0.5791  1.1908  0.8093
  200MOL    O5240250   5.014   0.764   4.951  0.1576 -0.4286 -0.1548
  200MOL    C5340251   4.990   0.823   5.082  0.1026  1.0504  0.6756
  200MOL    C5440252   5.035   0.975   5.083  0.0479  0.0664 -0.3121
  200MOL    C5540253   5.037   1.026   5.232  0.4537 -0.4553 -0.0905
  200MOL    H5640254   5.045   0.760   5.151 -0.0347  0.1818 -0.0017
  200MOL    H5740255   4.882   0.817   5.099  0.2189  2.9338  2.1668
  200MOL    H5840256   5.130   0.989   5.030 -1.5635  2.6657 -2.6518
  200MOL    H5940257   4.966   1.036   5.025  1.1639  2.5273  0.8559
  200MOL    H6040258   5.043   1.135   5.233  0.1905 -0.4417 -0.0044
  200MOL    H6140259   5.126   0.976   5.271 -0.4832 -1.8320  0.3552
  200MOL    O6240260   4.920   0.982   5.297  0.2243 -0.2982  0.4920
  200MOL    C6340261   4.853   1.081   5.379  0.6501  0.1157 -0.7969
  200MOL    C6440262   4.775   1.181   5.294  0.4633  0.0762  0.2102
  200MOL    C6540263   4.698   1.297   5.369 -0.2433  0.0729  0.7286
  200MOL    H6640264   4.932   1.125   5.440  2.5569 -2.0664 -1.6272
  200MOL    H6740265   4.785   1.029   5.446  2.4887  1.5846  2.3210
  200MOL    H6840266   4.834   1.231   5.217 -1.6538  1.6144 -0.4738
  200MOL    H6940267   4.689   1.132   5.247  0.3456 -1.1918  1.7085
  200MOL    H7040268   4.758   1.365   5.429 -0.4274  0.7592  0.1283
  200MOL    H7140269   4.637   1.245   5.444  0.5710  1.0355  2.0742
  200MOL    O7240270   4.610   1.361   5.281 -0.8714  0.3903  0.4329
  200MOL    C7340271   4.533   1.468   5.340 -0.7066 -0.0211 -0.0395
  200MOL    C7440272   4.417   1.507   5.251  0.0154 -0.2349  0.2323
  200MOL    C7540273   4.356   1.642   5.305 -0.9903  0.6776  0.3452
  200MOL    H7640274   4.603   1.552   5.343  1.8117 -2.0207 -1.2555
  200MOL    H7740275   4.500   1.449   5.443 -0.1714 -1.3550 -0.1062
  200MOL    H7840276   4.464   1.523   5.155 -1.9333 -1.8998 -1.0354
  200MOL    H7940277   4.354   1.418   5.248 -0.0516 -0.2128  0.8331
  200MOL    H8040278   4.430   1.721   5.319 -0.7802  0.2256  1.7941
  200MOL    H8140279   4.318   1.618   5.404  2.4407 -0.6858  1.3870
  200MOL    O8240280   4.246   1.674   5.220  0.4166 -0.3467 -0.4170
  200MOL    C8340281   4.284   1.735   5.096  0.5329 -0.3250 -0.3244
  200MOL    C8440282   4.172   1.719   5.001  0.2361  0.3751  0.3843
  200MOL    C8540283   4.111   1.568   5.000  0.7984 -0.1092  0.6549
  200MOL    H8640284   4.374   1.687   5.057  0.6510  1.1901 -1.9460
  200MOL    H8740285   4.315   1.839   5.107  0.0408 -0.1562 -0.5354
  200MOL    H8840286   4.092   1.787   5.029  0.0242  0.0842  0.4889
  200MOL    H8940287   4.214   1.743   4.903 -0.4863 -0.9776 -0.2778
  200MOL    H9040288   4.019   1.583   4.944  1.4205  1.8659  0.1395
  200MOL    H9140289   4.085   1.531   5.099 -2.9654 -0.3499 -0.3358
  200MOL    O9240290   4.204   1.475   4.945 -0.6376  0.1535  0.1068
  200MOL    C9340291   4.158   1.338   4.952 -0.2363  0.7983 -0.1252
  200MOL    C9440292   4.281   1.246   4.926 -0.4047  0.6977  0.6758
  200MOL    C9540293   4.242   1.104   4.946 -0.4556 -0.0910  0.0129
  200MOL    H9640294   4.075   1.332   4.882 -0.4836 -0.9127  0.2883
  200MOL    H9740295   4.111   1.316   5.048  1.0144 -1.0930  0.0720
  200MOL    H9840296   4.310   1.252   4.821 -1.4026 -3.8231  0.0550
  200MOL    H9940297   4.363   1.261   4.996  0.3122 -2.0744  0.5060
  200MOL   H10040298   4.318   1.040   4.902 -0.0761  1.6840 -2.0031
  200MOL   H10140299   4.147   1.085   4.897 -0.5739 -1.3222  0.6966
  200MOL   O10240300   4.236   1.065   5.081 -0.0338 -0.1642  0.0218
  200MOL   C10340301   4.200   0.930   5.115 -0.2407  0.2692 -0.5174
  200MOL   C10440302   4.188   0.912   5.265  0.1154  0.0420 -0.1858
  200MOL   C10540303   4.113   0.783   5.312  0.5429 -0.0075  0.1197
  200MOL   H10640304   4.267   0.856   5.070 -0.3274  0.6987 -1.3701
  200MOL   H10740305   4.105   0.905   5.068 -0.6060 -0.2740  0.5085
  200MOL   H10840306   4.284   0.919   5.316  0.5599 -0.7779 -0.8950
  200MOL   H10940307   4.138   1.002   5.300  0.1177  0.2600 -0.7493
  200MOL   H11040308   4.160   0.688   5.288 -0.3394  0.0097 -1.7575
  200MOL   H11140309   4.007   0.776   5.285  0.2029 -0.2651  1.4723
  200MOL   O11240310   4.116   0.782   5.453 -0.4473 -0.1757 -0.2615
  200MOL   C11340311   4.120   0.657   5.528  0.0094  0.5352 -0.2309
  200MOL   C11440312   4.134   0.689   5.675 -0.6328  0.2119  0.4364
  200MOL   C11540313   4.121   0.575   5.767 -0.2706 -0.3403  0.8101
  200MOL   H11640314   4.199   0.589   5.495 -1.4211  0.0791 -2.8543
  200MOL   H11740315   4.037   0.589   5.512 -0.2495  0.3075  1.9473
  200MOL   H11840316   4.232   0.732   5.695 -0.5208  1.6335 -2.9881
  200MOL   H11940317   4.060   0.765   5.697 -1.9829 -0.2254 -2.4490
  200MOL   H12040318   4.202   0.506   5.743 -1.6849 -1.2059 -1.7057
  200MOL   H12140319   4.023   0.530   5.748 -0.3190 -0.0190  0.2755
  200MOL   O12240320   4.137   0.619   5.903  0.8550  0.1469  0.1725
  200MOL   C12340321   4.138   0.507   5.988 -0.3429  0.1819 -0.0362
  200MOL   C12440322   4.107   0.538   6.133 -0.0321 -0.1899  0.1344
  200MOL   C12540323   4.223   0.604   6.209  0.1864 -0.0899  0.0796
  200MOL   H12640324   4.229   0.449   5.976 -1.5065 -1.4982 -0.9263
  200MOL   H12740325   4.060   0.436   5.959 -2.0190  1.3547  1.4525
  200MOL   H12840326   4.014   0.596   6.135 -0.4556 -0.7657 -2.0432
  200MOL   H12940327   4.082   0.442   6.177 -0.5991  0.5760  1.5509
  200MOL   H13040328   4.184   0.631   6.308  0.2321  1.6504 -0.3639
  200MOL   H13140329   4.261   0.692   6.158 -0.5563  0.0975 -0.1556
  200MOL   O13240330   4.330   0.516   6.230  0.4318  0.4558 -0.0196
  200MOL   C13340331   4.392   0.535   6.360 -0.1838 -0.0207 -0.4321
  200MOL   C13440332   4.485   0.417   6.394  0.1611  0.7577  0.1626
  200MOL   C13540333   4.543   0.424   6.532 -0.4097  0.3537  0.7711
  200MOL   H13640334   4.325   0.550   6.444  2.0378  1.6594  1.0938
  200MOL   H13740335   4.447   0.629   6.355 -0.8049  0.2664 -1.9055
  200MOL   H13840336   4.417   0.332   6.383  0.3263  0.8863 -2.2506
  200MOL   H13940337   4.556   0.410   6.312  0.7114  1.1718  0.6026
  200MOL   H14040338   4.464   0.443   6.604 -1.5101 -1.4610  0.0802
  200MOL   H14140339   4.624   0.497   6.530  0.7000 -0.8126 -3.5061
  200MOL   O14240340   4.623   0.315   6.559 -0.1285 -0.6555  0.3446
  200MOL   C14340341   4.681   0.318   6.688  1.3501 -0.1035 -0.2876
  200MOL   C14440342   4.794   0.211   6.697  0.7143 -0.3542  0.6569
  200MOL   C14540343   4.852   0.184   6.837  0.5566  0.1142  0.3952
  200MOL   H14640344   4.608   0.300   6.767  2.9077  0.1539  1.2727
  200MOL   H14740345   4.725   0.416   6.712  1.1020  0.0679 -0.5329
  200MOL   H14840346   4.755   0.118   6.656 -1.3145  0.1413  1.3808
  200MOL   H14940347   4.877   0.239   6.633 -1.0382  1.1775 -1.0126
  200MOL   H15040348   4.777   0.181   6.916 -0.9644 -2.0517 -1.0731
  200MOL   H15140349   4.908   0.277   6.850  0.2701  0.4139 -0.4555
  200MOL   O15240350   4.934   0.067   6.831 -0.6675  0.3485 -0.4841
  200MOL   C15340351   4.994   0.053   6.956  0.0747  0.1343 -0.1967
  200MOL   C15440352   5.063   7.705   6.956 -0.5812  0.8229  0.4901
  200MOL   C15540353   5.144   7.686   7.076  0.7709  0.2592 -0.0978
  200MOL   H15640354   4.909   0.040   7.024  0.2670 -0.4503 -0.0685
  200MOL   H15740355   5.053   0.139   6.987 -2.0199  2.3437 -2.1552
  200MOL   H15840356   4.984   7.631   6.942 -0.0768 -0.0521  2.1436
  200MOL   H15940357   5.130   7.701   6.870  2.0378 -1.5963  2.5585
  200MOL   H16040358   5.144   7.585   7.117  4.7788  0.4184  0.5072
  200MOL   H16140359   5.086   7.748   7.145 -1.8784 -1.8762 -0.3151
  200MOL   O16240360   5.268   7.758   7.057 -0.5254 -0.0737  0.1529
  200MOL   C16340361   5.346   7.758   7.172  0.4960 -0.8538  0.2376
  200MOL   C16440362   5.316   0.108   7.239  1.0981  0.4266  0.5319
  200MOL   C16540363   5.392   0.141   7.373  0.1819 -0.3242 -0.3259
  200MOL   H16640364   5.449   7.748   7.136  0.4278  0.7939 -0.4797
  200MOL   H16740365   5.320   7.676   7.239  0.7038 -0.7384  0.4585
  200MOL   H16840366   5.345   0.173   7.157  3.1225  0.7982  1.5263
  200MOL   H16940367   5.210   0.117   7.263  1.0545 -1.1404  0.9811
  200MOL   H17040368   5.351   0.081   7.455 -1.7463  2.9635  1.2196
  200MOL   H17140369   5.405   0.246   7.402 -0.3739 -0.3450  0.0093
  200MOL   O17240370   5.526   0.095   7.375  0.4719  0.2011  0.3858
  200MOL   C17340371   5.622   0.182   7.316 -0.6148 -0.2904  0.4737
  200MOL   C17440372   5.736   0.109   7.250 -0.1384  0.1284  0.0280
  200MOL   C17540373   5.799   0.175   7.128 -0.2687 -0.5196 -0.2310
  200MOL   H17640374   5.659   0.238   7.402 -1.2695 -0.8422  1.1201
  200MOL   H17740375   5.578   0.258   7.251  0.2361 -0.4163 -0.2577
  200MOL   H17840376   5.813   0.103   7.327  0.3723  0.5537 -0.4383
  200MOL   H17940377   5.703   0.006   7.238  0.7559 -0.0506 -1.1135
  200MOL   H18040378   5.716   0.179   7.057 -1.7826  1.3844  1.5542
  200MOL   H18140379   5.890   0.122   7.100 -0.6999 -2.1299  1.3729
  200MOL   O18240380   5.841   0.307   7.156 -0.4372  0.5396  0.2866
  200MOL   C18340381   5.911   0.365   7.054 -0.0284 -0.8317  0.1806
  200MOL   C18440382   5.947   0.508   7.087 -0.0824 -0.1122 -0.0486
  200MOL   C18540383   5.974   0.584   6.961 -0.0627 -0.3047 -0.1628
  200MOL   H18640384   5.867   0.360   6.955  1.8345 -0.4520 -0.7019
  200MOL   H18740385   6.005   0.312   7.041 -0.1883 -1.2147  0.5945
  200MOL   H18840386   5.870   0.546   7.155  1.8626  4.1983 -0.1559
  200MOL   H18940387   6.040   0.496   7.143  0.9793 -0.6815 -1.9114
  200MOL   H19040388   5.885   0.617   6.908 -0.1119 -1.1565 -0.6068
  200MOL   H19140389   6.024   0.507   6.902 -1.7811 -0.9905 -0.7410
  200MOL   O19240390   6.056   0.698   7.004 -0.6394  0.3860 -0.0394
  200MOL   C19340391   6.110   0.786   6.912  0.4134  0.1982 -0.3364
  200MOL   C19440392   6.196   0.885   6.990  0.2252  0.3023 -1.2098
  200MOL   C19540393   6.302   0.816   7.080 -0.5915  0.5260 -0.6243
  200MOL   H19640394   6.030   0.831   6.852  1.1993  2.3632  0.1707
  200MOL   H19740395   6.172   0.726   6.847  1.5158  0.6204  0.3129
  200MOL   H19840396   6.242   0.953   6.918  0.1791  1.2149 -0.3838
  200MOL   H19940397   6.133   0.947   7.054  2.8226 -1.0932  2.8616
  200MOL   H20040398   6.374   0.776   7.009 -1.1086  0.1405 -0.9356
  200MOL   H20140399   6.265   0.737   7.146 -2.3343  2.2877  0.5926
  200MOL   H20240400   6.349   0.889   7.146 -0.9443 -1.5003  1.9541
  201MOL     O140401   4.488   3.702   1.483  0.2283  0.1727 -0.2487
  201MOL     C240402   4.412   3.615   1.566  0.2412  0.3597 -0.2420
  201MOL     C340403   4.271   3.651   1.548 -0.0843  0.0983  0.0346
  201MOL     C440404   4.185   3.578   1.654 -0.6747  0.0069 -0.4317
  201MOL     H540405   4.438   3.622   1.672  1.5165  0.8381 -0.5678
  201MOL     H640406   4.423   3.509   1.544  2.5950 -0.2929  3.4892
  201MOL     H740407   4.263   3.759   1.560  1.7031  0.1777  0.6078
  201MOL     H840408   4.230   3.636   1.449  0.3168 -0.0584 -0.1089
  201MOL     H940409   4.185   3.473   1.627  1.5405 -0.0734 -0.1869
  201MOL    H1040410   4.077   3.597   1.645 -0.9741 -0.8099  1.3767
  201MOL    H1140411   4.479   3.789   1.517 -0.3866 -0.1003  0.3006
  201MOL    O1240412   4.216   3.625   1.783 -0.4338 -0.2314 -0.1806
  201MOL    C1340413   4.179   3.532   1.891 -1.0226  0.0565  0.2889
  201MOL    C1440414   4.285   3.422   1.926  0.3577 -0.0427  0.5383
  201MOL    C1540415   4.423   3.474   1.970  0.0324  0.0791 -0.6123
  201MOL    H1640416   4.088   3.480   1.863 -0.5145  0.2140 -1.6853
  201MOL    H1740417   4.141   3.579   1.982 -0.6276 -0.1635  0.5671
  201MOL    H1840418   4.244   3.361   2.006  0.2623  1.3582  1.5724
  201MOL    H1940419   4.300   3.365   1.834 -0.1607 -0.2946  0.6091
  201MOL    H2040420   4.454   3.538   1.887 -0.8241 -1.0993 -1.8652
  201MOL    H2140421   4.501   3.401   1.991 -0.3530  0.2087  1.3098
  201MOL    O2240422   4.402   3.559   2.081  0.2231 -0.2174 -0.2645
  201MOL    C2340423   4.422   3.702   2.069 -0.4232 -0.1955  0.3602
  201MOL    C2440424   4.374   3.767   2.199 -0.8733  0.5376  0.4382
  201MOL    C2540425   4.374   3.916   2.194  0.2180 -0.6023 -0.4695
  201MOL    H2640426   4.365   3.738   1.984 -0.2228 -1.9446 -0.5287
  201MOL    H2740427   4.527   3.719   2.049 -0.7396  0.7367 -0.5397
  201MOL    H2840428   4.272   3.733   2.215 -0.0921 -1.7868  0.7005
  201MOL    H2940429   4.440   3.726   2.277  0.3729  0.6987 -0.5121
  201MOL    H3040430   4.330   3.942   2.098  0.0103 -0.0737 -0.2388
  201MOL    H3140431   4.479   3.942   2.202  1.0634 -3.6749 -0.9574
  201MOL    O3240432   4.297   3.953   2.307 -0.0044  0.5375 -0.2124
  201MOL    C3340433   4.283   4.092   2.311  0.2476  0.5579  0.7342
  201MOL    C3440434   4.240   4.141   2.444 -0.0298  0.2285 -0.5413
  201MOL    C3540435   4.220   4.296   2.453 -0.1577  0.1540  0.0964
  201MOL    H3640436   4.197   4.102   2.244  1.2113  0.6477 -0.5122
  201MOL    H3740437   4.375   4.143   2.281  1.7150 -1.5270  1.5517
  201MOL    H3840438   4.140   4.104   2.467 -0.1851  2.3595  2.4122
  201MOL    H3940439   4.302   4.108   2.528 -0.1616  3.5654  0.9528
  201MOL    H4040440   4.155   4.315   2.538 -2.0451 -0.2073 -1.2397
  201MOL    H4140441   4.173   4.336   2.363  1.3294  1.3772 -0.1463
  201MOL    O4240442   4.345   4.361   2.462 -0.1016 -0.4183  0.7150
  201MOL    C4340443   4.327   4.503   2.495  0.4298 -0.2930 -0.0726
  201MOL    C4440444   4.464   4.570   2.466  0.2812  0.4261 -0.9301
  201MOL    C4540445   4.573   4.523   2.561 -0.4974 -0.1741  0.0560
  201MOL    H4640446   4.296   4.506   2.600 -1.6123  0.2513 -0.6661
  201MOL    H4740447   4.249   4.540   2.429 -0.2797 -0.2177  0.7880
  201MOL    H4840448   4.487   4.565   2.360 -2.1958  0.9498 -1.5285
  201MOL    H4940449   4.434   4.672   2.487 -2.5742 -0.7601  1.1759
  201MOL    H5040450   4.587   4.416   2.544  1.6017  0.2516 -1.1410
  201MOL    H5140451   4.547   4.526   2.666  0.0488  0.7494  0.1641
  201MOL    O5240452   4.692   4.592   2.525 -0.1077  0.0068 -0.3966
  201MOL    C5340453   4.805   4.530   2.586 -0.7937 -0.2975  0.4475
  201MOL    C5440454   4.920   4.624   2.552 -0.1229 -0.2965  0.1799
  201MOL    C5540455   4.957   4.612   2.406 -0.4810  0.5737  0.3172
  201MOL    H5640456   4.822   4.433   2.538  0.6910 -0.7121  1.7906
  201MOL    H5740457   4.804   4.537   2.694  3.0937  1.2899  0.4528
  201MOL    H5840458   4.885   4.725   2.575  1.2137  0.8550 -2.6855
  201MOL    H5940459   4.997   4.599   2.625  0.7439 -1.0680 -0.9829
  201MOL    H6040460   4.874   4.647   2.343 -1.7577 -1.2539  0.9301
  201MOL    H6140461   4.989   4.511   2.382  1.0591  0.9604  0.6958
  201MOL    O6240462   5.073   4.696   2.370 -0.0118  0.5573  0.0507
  201MOL    C6340463   5.206   4.660   2.411  0.1569  0.2494 -0.4501
  201MOL    C6440464   5.301   4.756   2.341  0.2554  0.4249 -0.2248
  201MOL    C6540465   5.455   4.732   2.361 -0.2827  0.0657  0.3923
  201MOL    H6640466   5.218   4.559   2.373 -0.0662 -0.1838  0.6141
  201MOL    H6740467   5.221   4.658   2.519  0.4749 -0.7947 -0.5114
  201MOL    H6840468   5.268   4.747   2.238 -1.1379  1.2675  0.1321
  201MOL    H6940469   5.291   4.858   2.377 -0.8849  0.6685 -1.2292
  201MOL    H7040470   5.513   4.797   2.296  1.1344  0.8551  2.4045
  201MOL    H7140471   5.482   4.628   2.343  1.7748  0.4452  1.2125
  201MOL    O7240472   5.486   4.744   2.500 -0.5385 -0.3391 -0.1215
  201MOL    C7340473   5.618   4.714   2.535 -0.4214  0.4432 -0.0458
  201MOL    C7440474   5.650   4.804   2.652  0.0753  0.4255 -0.0874
  201MOL    C7540475   5.797   4.791   2.705  0.8652 -0.3804  0.1607
  201MOL    H7640476   5.687   4.747   2.458 -1.6599  0.1800 -1.2806
  201MOL    H7740477   5.634   4.616   2.580 -1.2009  0.8207  1.0927
  201MOL    H7840478   5.643   4.908   2.619  2.0636  0.3775 -0.7345
  201MOL    H7940479   5.587   4.777   2.736 -1.9374  2.1418 -1.0106
  201MOL    H8040480   5.867   4.804   2.623  1.3996 -0.2089  0.6394
  201MOL    H8140481   5.815   4.689   2.740 -0.6782 -0.6940  0.0848
  201MOL    O8240482   5.816   4.887   2.813 -0.2058  0.1272  1.2787
  201MOL    C8340483   5.870   5.013   2.783  0.2354 -0.5167  0.5012
  201MOL    C8440484   5.850   5.118   2.894  0.1450 -0.0494 -0.0459
  201MOL    C8540485   5.921   5.248   2.872 -0.7233 -0.4690  0.1513
  201MOL    H8640486   5.834   5.050   2.687  0.8642 -2.2582 -0.4323
  201MOL    H8740487   5.976   4.993   2.772  0.8262  2.3394  0.5771
  201MOL    H8840488   5.742   5.127   2.907 -0.2359 -3.1762 -0.7453
  201MOL    H8940489   5.878   5.086   2.994 -1.6926  0.4223  0.6450
  201MOL    H9040490   6.027   5.228   2.855 -1.5560 -4.2803 -0.9706
  201MOL    H9140491   5.901   5.321   2.951  0.5154  1.3830 -1.1974
  201MOL    O9240492   5.872   5.308   2.754  0.2685 -0.8146 -0.1181
  201MOL    C9340493   5.939   5.428   2.702  0.2244  0.4512 -0.3006
  201MOL    C9440494   5.867   5.475   2.583 -0.1239 -0.1221  0.1600
  201MOL    C9540495   5.873   5.366   2.472 -0.3723 -0.1656  0.4525
  201MOL    H9640496   6.041   5.398   2.678  0.2489 -0.8063  1.2688
  201MOL    H9740497   5.948   5.514   2.769  2.6527  0.3028 -0.3658
  201MOL    H9840498   5.766   5.505   2.612  0.4510  0.0646  1.9804
  201MOL    H9940499   5.921   5.564   2.551 -1.6397  1.8198  2.8253
  201MOL   H10040500   5.821   5.278   2.512 -1.0758  0.6541  1.3852
  201MOL   H10140501   5.975   5.342   2.442  0.2852 -0.2761  2.6919
  201MOL   O10240502   5.793   5.409   2.370 -0.5733  0.4731 -0.4509
  201MOL   C10340503   5.793   5.328   2.251  0.0855 -0.2045  0.8098
  201MOL   C10440504   5.703   5.207   2.266  1.1701  0.1397  0.8902
  201MOL   C10540505   5.638   5.181   2.134 -0.5041 -0.3342 -0.4794
  201MOL   H10640506   5.895   5.293   2.237 -0.2757 -0.8120 -0.3540
  201MOL   H10740507   5.759   5.385   2.165  2.3917  0.5288  0.3350
  201MOL   H10840508   5.751   5.115   2.302  1.5499  0.1537  0.4168
  201MOL   H10940509   5.630   5.223   2.345 -0.2964 -1.1720 -0.1675
  201MOL   H11040510   5.703   5.198   2.049 -1.2125  0.9086 -0.7791
  201MOL   H11140511   5.555   5.250   2.119 -0.7636 -0.6171 -0.3672
  201MOL   O11240512   5.597   5.046   2.131  0.7620  0.1798 -0.4871
  201MOL   C11340513   5.588   5.005   1.995 -0.4213 -0.4203 -0.8238
  201MOL   C11440514   5.531   4.863   1.999 -0.4023 -0.5106  0.2872
  201MOL   C11540515   5.497   4.806   1.863 -0.3379  0.0673  0.3702
  201MOL   H11640516   5.688   5.009   1.953  0.3652  1.8596  1.1745
  201MOL   H11740517   5.523   5.081   1.951  0.2168  1.9844  2.2288
  201MOL   H11840518   5.590   4.786   2.047  0.6623 -0.9975 -1.7802
  201MOL   H11940519   5.439   4.884   2.055  0.2375  1.9560  0.4770
  201MOL   H12040520   5.583   4.763   1.810  0.1257  1.9076 -0.4033
  201MOL   H12140521   5.450   4.868   1.787 -0.1698 -0.9609 -0.5958
  201MOL   O12240522   5.400   4.709   1.883 -0.4744 -0.3155 -0.0326
  201MOL   C12340523   5.372   4.619   1.771  0.1945 -0.2974  0.4549
  201MOL   C12440524   5.306   4.700   1.656  0.2084 -0.3926  0.2210
  201MOL   C12540525   5.171   4.760   1.706 -0.0984  0.0104  0.4073
  201MOL   H12640526   5.309   4.533   1.792  0.4803 -0.1102  2.2087
  201MOL   H12740527   5.469   4.582   1.739 -0.4052  0.1685 -1.9715
  201MOL   H12840528   5.380   4.769   1.615  1.6328 -0.4732  2.5279
  201MOL   H12940529   5.281   4.629   1.578  1.1638 -0.1409 -0.3180
  201MOL   H13040530   5.170   4.850   1.767  1.5339  0.9527 -0.8996
  201MOL   H13140531   5.099   4.688   1.745  0.2297 -0.4007  0.2551
  201MOL   O13240532   5.115   4.816   1.583 -0.3361  0.4175  0.0907
  201MOL   C13340533   4.973   4.843   1.589  0.5633 -0.5214 -0.8855
  201MOL   C13440534   4.922   4.915   1.460 -0.6896 -0.3136 -0.1972
  201MOL   C13540535   4.799   5.009   1.486 -0.0329  0.1427 -0.8984
  201MOL   H13640536   4.948   4.905   1.676  0.4346  0.1594 -1.4078
  201MOL   H13740537   4.917   4.750   1.600 -0.9728  0.5090  0.3291
  201MOL   H13840538   5.011   4.958   1.414  0.1923 -1.5984  0.2550
  201MOL   H13940539   4.886   4.831   1.400  1.5451 -0.5558 -1.2673
  201MOL   H14040540   4.762   5.040   1.388 -1.0133  0.5235 -0.4201
  201MOL   H14140541   4.832   5.098   1.541  0.8444 -0.4842 -0.3972
  201MOL   O14240542   4.695   4.944   1.551  0.6532 -0.7325 -0.5248
  201MOL   C14340543   4.586   5.033   1.573 -0.3337 -0.2274 -0.2655
  201MOL   C14440544   4.477   4.959   1.656  0.2000  0.3942  0.0278
  201MOL   C14540545   4.360   5.050   1.696 -0.1625 -0.4463 -0.0991
  201MOL   H14640546   4.531   5.063   1.484  0.8083  1.2494 -0.4865
  201MOL   H14740547   4.609   5.131   1.614  0.6760 -0.6485  0.1960
  201MOL   H14840548   4.434   4.873   1.604  1.2848  0.2025 -0.5445
  201MOL   H14940549   4.517   4.914   1.747  1.3614 -1.6143 -1.4503
  201MOL   H15040550   4.320   5.122   1.624  1.6145  0.2012 -0.4480
  201MOL   H15140551   4.398   5.116   1.774  1.1599  0.0945 -1.1995
  201MOL   O15240552   4.265   4.963   1.746  0.4408  0.2156 -0.1812
  201MOL   C15340553   4.165   5.023   1.822  0.2399  0.2048 -0.3653
  201MOL   C15440554   4.076   5.122   1.732  0.1188  0.2485  0.1013
  201MOL   C15540555   3.938   5.156   1.795  0.4758 -0.7287 -0.3577
  201MOL   H15640556   4.214   5.081   1.900  1.0446  2.2687 -2.3577
  201MOL   H15740557   4.105   4.943   1.865 -0.9990  0.2524 -1.9775
  201MOL   H15840558   4.140   5.207   1.706 -0.8040  0.2808 -2.1391
  201MOL   H15940559   4.060   5.066   1.640  5.1931 -0.3748 -0.5558
  201MOL   H16040560   3.940   5.208   1.891 -0.2191  0.8966 -1.2071
  201MOL   H16140561   3.900   5.056   1.815  2.8446 -1.1186  2.6627
  201MOL   O16240562   3.853   5.209   1.707 -0.0000  0.4972 -0.3119
  201MOL   C16340563   3.724   5.233   1.770 -0.0597 -0.2059  0.6447
  201MOL   C16440564   3.715   5.381   1.815  0.0461  0.2387  0.6406
  201MOL   C16540565   3.576   5.405   1.886  0.3222  0.2621 -0.9950
  201MOL   H16640566   3.705   5.168   1.855  2.1323 -2.0046 -0.1637
  201MOL   H16740567   3.655   5.201   1.691  0.3605  0.9911 -0.2250
  201MOL   H16840568   3.792   5.423   1.879 -1.2673  0.8583  1.8543
  201MOL   H16940569   3.718   5.436   1.720 -2.0039 -0.8918 -0.1130
  201MOL   H17040570   3.518   5.319   1.855 -0.5375 -0.5018  2.5368
  201MOL   H17140571   3.526   5.495   1.851  1.6974  1.2644 -0.4656
  201MOL   O17240572   3.606   5.412   2.028 -0.3376  0.3192 -0.0291
  201MOL   C17340573   3.490   5.416   2.105 -0.2870  0.3029  0.1825
  201MOL   C17440574   3.533   5.428   2.248 -0.2900 -0.0540  0.3611
  201MOL   C17540575   3.409   5.434   2.344 -0.5494  0.6579 -0.2026
  201MOL   H17640576   3.427   5.327   2.099 -2.3671  1.7112  0.5411
  201MOL   H17740577   3.441   5.511   2.079 -0.5755  1.1270  3.5235
  201MOL   H17840578   3.590   5.340   2.277 -2.4189 -1.3040  0.8002
  201MOL   H17940579   3.591   5.517   2.274  2.7967 -1.5151 -1.3090
  201MOL   H18040580   3.331   5.363   2.317 -1.0717  0.6285  1.3842
  201MOL   H18140581   3.357   5.528   2.329 -2.9879 -0.6127 -0.0349
  201MOL   O18240582   3.446   5.419   2.481  0.6080 -0.2365  0.3961
  201MOL   C18340583   3.374   5.322   2.558  0.3120 -0.8523 -0.1029
  201MOL   C18440584   3.437   5.300   2.693 -0.0322  0.2155 -0.5378
  201MOL   C18540585   3.351   5.215   2.791 -0.3934 -0.3418  0.2277
  201MOL   H18640586   3.386   5.237   2.491 -0.1530  0.3954 -1.8163
  201MOL   H18740587   3.269   5.354   2.552  0.0506 -1.2187  2.1303
  201MOL   H18840588   3.535   5.253   2.688 -0.5409 -0.8842 -0.1393
  201MOL   H18940589   3.464   5.394   2.741  2.0565 -1.3240  1.3885
  201MOL   H19040590   3.249   5.254   2.794 -0.3005  0.0503 -1.4508
  201MOL   H19140591   3.377   5.223   2.897  2.8866  0.6859 -0.5990
  201MOL   O19240592   3.347   5.081   2.749 -0.4229  0.0965  0.0310
  201MOL   C19340593   3.276   5.000   2.832 -0.4019 -0.4664  0.2993
  201MOL   C19440594   3.258   4.863   2.775 -0.2747  0.0400  0.1826
  201MOL   C19540595   3.143   4.845   2.673 -0.8203 -0.2983  0.4074
  201MOL   H19640596   3.182   5.050   2.857 -0.2871 -1.4077  2.7646
  201MOL   H19740597   3.329   4.997   2.927  2.0235  1.3745 -0.9340
  201MOL   H19840598   3.351   4.812   2.750 -0.0371 -0.5175  2.1406
  201MOL   H19940599   3.222   4.801   2.856  0.1018  1.7229  1.6672
  201MOL   H20040600   3.117   4.742   2.648  1.9336 -1.3832  1.7678
  201MOL   H20140601   3.155   4.906   2.583  0.7322  2.2402  2.2638
  201MOL   H20240602   3.055   4.885   2.723 -0.2073 -0.7973  1.8938
  202MOL     O140603   2.626   5.069   4.072 -0.1886  0.2915 -0.2956
  202MOL     C240604   2.750   5.015   4.041  0.2369  0.5065  0.2687
  202MOL     C340605   2.865   5.114   4.043 -0.1714 -0.2437 -0.4012
  202MOL     C440606   3.001   5.048   4.006 -0.4657  0.5600  0.2914
  202MOL     H540607   2.751   4.977   3.939 -2.4355 -0.5441  0.5753
  202MOL     H640608   2.764   4.929   4.107  0.9133 -0.1975 -0.7639
  202MOL     H740609   2.848   5.191   3.967 -0.8794 -0.8959 -0.9168
  202MOL     H840610   2.875   5.162   4.140 -0.2038 -1.5466  0.2572
  202MOL     H940611   3.020   4.955   4.060  1.6410 -1.1848 -3.3023
  202MOL    H1040612   3.091   5.105   4.027 -0.0363 -0.6133  1.7327
  202MOL    H1140613   2.565   5.000   4.052  1.2861 -1.0445 -0.2430
  202MOL    O1240614   3.012   5.025   3.868  0.1870 -0.2252 -0.6957
  202MOL    C1340615   3.141   4.969   3.835 -0.0861  0.3834 -0.2358
  202MOL    C1440616   3.173   4.980   3.695  0.0581  0.5241 -0.0971
  202MOL    C1540617   3.246   5.114   3.665 -0.5082 -0.1143  0.1267
  202MOL    H1640618   3.130   4.864   3.862 -0.1702  0.3507 -0.3916
  202MOL    H1740619   3.226   5.004   3.894 -0.8031  0.4742  0.7492
  202MOL    H1840620   3.245   4.907   3.660 -0.7945 -0.2342 -0.2808
  202MOL    H1940621   3.082   4.967   3.637 -0.0998 -0.7323  0.4277
  202MOL    H2040622   3.337   5.116   3.724 -0.6728  0.4227  0.3676
  202MOL    H2140623   3.190   5.200   3.702  0.7511  1.3583 -1.2999
  202MOL    O2240624   3.280   5.125   3.527  0.4228 -0.5854  0.3660
  202MOL    C2340625   3.169   5.144   3.444 -0.0029 -0.1918  0.4241
  202MOL    C2440626   3.215   5.184   3.307 -0.4211 -0.3367 -0.7945
  202MOL    C2540627   3.101   5.254   3.230  0.2991  0.2368  0.1183
  202MOL    H2640628   3.103   5.217   3.490 -1.8793 -0.8151 -1.1960
  202MOL    H2740629   3.107   5.056   3.425  0.3371  0.1795 -2.6168
  202MOL    H2840630   3.291   5.262   3.315 -1.6822  0.7022  1.2644
  202MOL    H2940631   3.258   5.097   3.257 -1.3291 -1.4071  0.2719
  202MOL    H3040632   3.140   5.295   3.137  3.4471  0.7866  1.6273
  202MOL    H3140633   3.057   5.340   3.282  1.3110  0.0894  1.2424
  202MOL    O3240634   3.001   5.160   3.194  0.0820 -0.2783  0.0273
  202MOL    C3340635   2.869   5.206   3.228  0.3746 -0.6909 -0.3603
  202MOL    C3440636   2.762   5.109   3.170 -0.3659 -0.2254 -0.0672
  202MOL    C3540637   2.762   5.103   3.013  0.1017 -0.4637 -0.0361
  202MOL    H3640638   2.860   5.304   3.182 -0.2943  0.2237  1.6511
  202MOL    H3740639   2.854   5.213   3.336 -0.7972  0.4394 -0.5955
  202MOL    H3840640   2.780   5.011   3.213 -1.2263 -0.3902 -0.0713
  202MOL    H3940641   2.665   5.145   3.205  0.2316  1.8132 -0.4415
  202MOL    H4040642   2.865   5.083   2.983 -0.3594  0.9936 -2.7562
  202MOL    H4140643   2.738   5.198   2.966  0.4946  0.6687  1.9789
  202MOL    O4240644   2.671   5.011   2.972 -0.7058 -0.6608 -0.0073
  202MOL    C4340645   2.647   5.007   2.835  0.4619 -0.3554  0.4943
  202MOL    C4440646   2.771   4.984   2.747  0.2456  0.0743 -0.3361
  202MOL    C4540647   2.739   4.960   2.603 -0.2247 -1.1783 -0.2703
  202MOL    H4640648   2.602   5.100   2.799  1.9075 -0.2474 -1.0746
  202MOL    H4740649   2.563   4.940   2.812 -0.5907  0.9006  0.5976
  202MOL    H4840650   2.838   5.069   2.756 -1.7494  1.6097  0.5109
  202MOL    H4940651   2.821   4.895   2.785 -0.6408 -0.3616 -0.1603
  202MOL    H5040652   2.680   4.869   2.594 -2.0878  0.0314 -0.5997
  202MOL    H5140653   2.824   4.949   2.535 -0.1153 -4.0365  0.2532
  202MOL    O5240654   2.667   5.074   2.564 -0.2624  0.3707  0.1240
  202MOL    C5340655   2.596   5.050   2.440  0.1720  0.8505  0.3794
  202MOL    C5440656   2.568   5.191   2.374 -0.5215  0.3454 -0.3539
  202MOL    C5540657   2.492   5.166   2.246  0.1023  0.3069 -0.4983
  202MOL    H5640658   2.501   5.000   2.463  0.3619 -0.1783 -0.9858
  202MOL    H5740659   2.652   4.992   2.366  0.3881  1.0548  0.3861
  202MOL    H5840660   2.523   5.246   2.457 -0.0964 -0.1562  0.2067
  202MOL    H5940661   2.648   5.261   2.349 -0.2625 -0.3513 -1.5259
  202MOL    H6040662   2.505   5.062   2.214 -1.3420 -0.6204  1.7816
  202MOL    H6140663   2.521   5.226   2.160 -1.0157 -0.8885 -1.7411
  202MOL    O6240664   2.344   5.177   2.259 -0.5604  0.1673 -0.1225
  202MOL    C6340665   2.295   5.310   2.257  0.3112  0.4741 -1.2943
  202MOL    C6440666   2.149   5.310   2.306 -0.0956 -0.5810  0.0830
  202MOL    C6540667   2.091   5.450   2.322 -0.1399  0.7009  0.3982
  202MOL    H6640668   2.300   5.355   2.158 -0.8467  0.1591 -1.5055
  202MOL    H6740669   2.350   5.372   2.329  1.5465  0.1803 -1.9776
  202MOL    H6840670   2.078   5.259   2.241 -0.5173  0.7977 -0.5434
  202MOL    H6940671   2.148   5.247   2.396 -1.0538  0.1972  0.6206
  202MOL    H7040672   2.091   5.505   2.228  1.7615 -0.3753 -0.2607
  202MOL    H7140673   2.149   5.521   2.382  1.2474  0.4747 -0.6514
  202MOL    O7240674   1.960   5.432   2.355  0.1502 -0.2858  0.1089
  202MOL    C7340675   1.896   5.542   2.425  0.0338  0.4342  0.4676
  202MOL    C7440676   1.769   5.501   2.495  0.0646 -0.0044  0.3382
  202MOL    C7540677   1.798   5.449   2.631  0.4647 -0.0065  0.7392
  202MOL    H7640678   1.859   5.610   2.348 -0.9948 -0.2745  0.3365
  202MOL    H7740679   1.971   5.592   2.486 -0.8538 -0.2953  2.1844
  202MOL    H7840680   1.716   5.596   2.492  1.0810  0.5420 -0.6576
  202MOL    H7940681   1.717   5.426   2.436  1.0217 -0.0201 -0.4823
  202MOL    H8040682   1.878   5.508   2.676 -0.0809  1.7627 -0.5297
  202MOL    H8140683   1.849   5.356   2.608  1.1372  0.9017 -1.5833
  202MOL    O8240684   1.675   5.448   2.693  0.4661  0.4949 -0.4001
  202MOL    C8340685   1.681   5.383   2.813  0.3919 -0.0647 -0.3971
  202MOL    C8440686   1.546   5.404   2.887 -0.5078  0.1046  1.3013
  202MOL    C8540687   1.555   5.330   3.019 -0.1432 -0.1279  0.4171
  202MOL    H8640688   1.756   5.436   2.872 -1.7465  0.5213  1.8870
  202MOL    H8740689   1.712   5.279   2.807 -0.8310 -0.4739  0.2492
  202MOL    H8840690   1.516   5.507   2.907 -0.7666  0.4534 -0.7632
  202MOL    H8940691   1.467   5.376   2.817  1.7807 -0.7760 -0.9907
  202MOL    H9040692   1.626   5.386   3.081 -1.8104 -0.1736  2.4358
  202MOL    H9140693   1.594   5.229   3.008  1.8351  0.6725 -0.2473
  202MOL    O9240694   1.435   5.344   3.091  0.4963  0.7452 -0.2790
  202MOL    C9340695   1.445   5.250   3.206  0.0072 -0.0930 -0.0058
  202MOL    C9440696   1.385   5.314   3.332 -0.2759  0.5400  0.7289
  202MOL    C9540697   1.234   5.352   3.309  0.3226 -0.3269 -0.4046
  202MOL    H9640698   1.547   5.217   3.226  0.4722  0.2746 -1.7027
  202MOL    H9740699   1.381   5.167   3.178  0.1295 -0.4364  0.7317
  202MOL    H9840700   1.388   5.239   3.411 -0.8580 -1.2079 -0.9050
  202MOL    H9940701   1.446   5.398   3.368 -0.2194  0.5135  0.6934
  202MOL   H10040702   1.173   5.265   3.286  1.3940 -0.7664 -1.6469
  202MOL   H10140703   1.224   5.419   3.223  1.4227 -1.8737 -1.7651
  202MOL   O10240704   1.178   5.413   3.422  0.1192 -0.1666  0.2182
  202MOL   C10340705   1.050   5.468   3.398  0.1069 -1.0929  0.8199
  202MOL   C10440706   0.970   5.533   3.517 -0.0751  0.7158  0.0918
  202MOL   C10540707   0.829   5.575   3.484  1.1361  0.7087  0.3497
  202MOL   H10640708   0.990   5.383   3.367  1.8376 -2.0364  0.0269
  202MOL   H10740709   1.055   5.539   3.316 -2.6393 -1.3530  0.3934
  202MOL   H10840710   0.962   5.470   3.605 -2.1642 -1.1942 -1.4226
  202MOL   H10940711   1.026   5.616   3.561 -3.4003  1.5246  2.9378
  202MOL   H11040712   0.772   5.614   3.568  0.3847  0.2897  0.0421
  202MOL   H11140713   0.765   5.492   3.455  0.5043  0.0810  3.3658
  202MOL   O11240714   0.824   5.675   3.378 -0.1627  0.4091  0.0865
  202MOL   C11340715   0.698   5.732   3.358 -0.8795  0.4570  0.7166
  202MOL   C11440716   0.719   5.849   3.259 -0.3748  0.0806 -0.4986
  202MOL   C11540717   0.593   5.924   3.239  0.1474 -0.2191  0.0579
  202MOL   H11640718   0.649   5.774   3.446  0.7482 -0.8393  2.2711
  202MOL   H11740719   0.636   5.651   3.319 -0.7384  0.4178  0.5730
  202MOL   H11840720   0.798   5.912   3.301  0.3514 -0.6274 -0.7881
  202MOL   H11940721   0.749   5.815   3.160  1.5331  1.3657 -0.3841
  202MOL   H12040722   0.503   5.870   3.209 -0.1816  1.1710 -1.5670
  202MOL   H12140723   0.614   5.993   3.158  2.2755 -0.1146  0.6719
  202MOL   O12240724   0.562   5.997   3.356  0.2898 -0.3723  0.2603
  202MOL   C12340725   0.474   6.107   3.322  0.6174  0.7987  0.8192
  202MOL   C12440726   0.440   6.184   3.445 -0.3194  0.0679 -0.1490
  202MOL   C12540727   0.348   6.103   3.538  0.4432  0.3254 -0.4110
  202MOL   H12640728   0.382   6.066   3.279  1.4735 -1.4218  1.0155
  202MOL   H12740729   0.517   6.174   3.247 -0.7456  0.8055  0.0156
  202MOL   H12840730   0.527   6.223   3.498 -0.9322  1.9974 -0.5244
  202MOL   H12940731   0.383   6.272   3.416 -1.1947 -0.8324 -1.2050
  202MOL   H13040732   0.408   6.024   3.581  0.4216  1.1745  1.2357
  202MOL   H13140733   0.269   6.063   3.475  2.5339 -0.0842 -2.8152
  202MOL   O13240734   0.306   6.181   3.652  0.0742 -0.2624  0.2479
  202MOL   C13340735   0.244   6.095   3.745 -0.2325  0.2277  0.4457
  202MOL   C13440736   0.098   6.116   3.744 -0.3422 -0.2481 -0.3054
  202MOL   C13540737   0.036   6.059   3.873 -0.7342 -0.8924 -0.1560
  202MOL   H13640738   0.291   6.114   3.841 -1.7281  0.6513  1.1100
  202MOL   H13740739   0.265   5.990   3.727 -0.2074  0.6494 -2.1939
  202MOL   H13840740   0.082   6.224   3.749  3.8398  0.4561 -0.4039
  202MOL   H13940741   0.048   6.081   3.653 -1.5130  0.1763  0.1564
  202MOL   H14040742   0.078   6.103   3.964 -4.4727  1.3847  0.5699
  202MOL   H14140743   0.046   5.950   3.873 -0.5373 -0.8750 -0.2102
  202MOL   O14240744   7.690   6.093   3.870 -0.6223 -0.4460 -0.3114
  202MOL   C14340745   7.614   6.068   3.988  0.5664  0.4550  0.8163
  202MOL   C14440746   7.475   6.107   3.954 -0.0784 -0.4218 -0.6741
  202MOL   C14540747   7.376   6.074   4.075  0.2564 -0.3672  0.4910
  202MOL   H14640748   7.652   6.132   4.068  1.2978  0.5161  0.4258
  202MOL   H14740749   7.611   5.963   4.014 -0.1309 -0.0291 -1.1577
  202MOL   H14840750   7.478   6.214   3.931 -0.4025 -0.1678  0.4253
  202MOL   H14940751   7.443   6.057   3.863 -2.3729  1.4556 -0.9471
  202MOL   H15040752   7.276   6.090   4.034  0.1812 -0.2838  0.7059
  202MOL   H15140753   7.379   6.145   4.158  2.4705  1.2820 -0.9500
  202MOL   O15240754   7.391   5.939   4.117  0.0268  0.0005 -0.4193
  202MOL   C15340755   7.309   5.903   4.225 -0.1653 -0.0634  0.3032
  202MOL   C15440756   7.344   5.758   4.263  0.2601  0.3416 -0.5614
  202MOL   C15540757   7.283   5.698   4.398 -0.5556  0.1431  0.3821
  202MOL   H15640758   7.205   5.923   4.199 -0.1380  0.2987  0.4672
  202MOL   H15740759   7.340   5.959   4.314  0.7315 -0.2310  0.1006
  202MOL   H15840760   7.317   5.689   4.183  0.3697 -0.4148  0.0455
  202MOL   H15940761   7.453   5.753   4.268  0.0595 -3.2905  1.4056
  202MOL   H16040762   7.299   5.758   4.487 -3.3328  0.4285  0.7232
  202MOL   H16140763   7.334   5.603   4.413  1.1176  0.4077 -3.0685
  202MOL   O16240764   7.143   5.661   4.395 -0.1102  0.1604  0.6854
  202MOL   C16340765   7.099   5.546   4.316 -0.0509 -0.1701  0.4537
  202MOL   C16440766   7.131   5.424   4.398 -0.3965  0.2739 -0.4401
  202MOL   C16540767   7.073   5.436   4.538 -0.6679  0.7635  1.1864
  202MOL   H16640768   7.158   5.540   4.225 -0.1748  1.8512  0.2209
  202MOL   H16740769   6.994   5.557   4.289  0.3351 -0.3948 -1.1634
  202MOL   H16840770   7.077   5.338   4.357  0.3239 -0.0044 -0.8152
  202MOL   H16940771   7.237   5.402   4.402  0.0166  2.2865  0.1059
  202MOL   H17040772   6.971   5.470   4.521 -0.9779 -0.2895  0.8962
  202MOL   H17140773   7.125   5.519   4.586 -1.0909  2.4403 -1.2082
  202MOL   O17240774   7.079   5.317   4.623 -0.6514 -0.4391 -0.4323
  202MOL   C17340775   6.987   5.331   4.729  0.2394 -0.0107  0.2753
  202MOL   C17440776   6.995   5.203   4.811 -0.5506 -0.4356  0.0374
  202MOL   C17540777   6.932   5.222   4.946 -0.3883 -0.1911 -0.4143
  202MOL   H17640778   6.885   5.333   4.691  0.6825  2.5968 -0.9281
  202MOL   H17740779   7.013   5.417   4.791  0.9224 -0.7475  1.0203
  202MOL   H17840780   6.968   5.121   4.744  0.1832  2.2804 -3.7863
  202MOL   H17940781   7.102   5.194   4.826 -0.7443  0.4127  2.0345
  202MOL   H18040782   6.978   5.305   5.000 -1.2938  0.0789 -0.0414
  202MOL   H18140783   6.957   5.139   5.011 -1.8091  1.4618  2.3436
  202MOL   O18240784   6.794   5.253   4.940 -0.2132  0.3559 -0.2795
  202MOL   C18340785   6.720   5.146   4.892  0.5455 -0.2707  0.0211
  202MOL   C18440786   6.575   5.182   4.871  0.1516 -0.3482 -0.3608
  202MOL   C18540787   6.553   5.261   4.736 -0.2604 -0.9584  0.6249
  202MOL   H18640788   6.740   5.065   4.962 -0.8662 -2.1269 -1.6903
  202MOL   H18740789   6.759   5.109   4.797  0.9179  0.7821 -0.2447
  202MOL   H18840790   6.528   5.084   4.863  0.2987 -0.3660 -1.0292
  202MOL   H18940791   6.535   5.234   4.958  0.7040  1.1420 -0.9881
  202MOL   H19040792   6.632   5.337   4.734 -1.2485  0.0754 -1.9571
  202MOL   H19140793   6.455   5.309   4.734  0.9155  1.4799 -0.0329
  202MOL   O19240794   6.558   5.187   4.616 -0.4925  0.2214 -0.7382
  202MOL   C19340795   6.574   5.257   4.498  0.2199  0.0808 -0.1894
  202MOL   C19440796   6.722   5.297   4.467  0.6567  1.3297 -0.3632
  202MOL   C19540797   6.806   5.168   4.470 -0.4926  0.4143  0.7551
  202MOL   H19640798   6.499   5.335   4.493  0.3660  0.1199 -2.1491
  202MOL   H19740799   6.543   5.189   4.418 -1.8093  2.1750 -1.2474
  202MOL   H19840800   6.718   5.337   4.366 -0.2359 -0.9644 -1.2722
  202MOL   H19940801   6.763   5.372   4.535  0.3631 -0.5222  1.9076
  202MOL   H20040802   6.782   5.100   4.389  2.6201  0.0370  0.0643
  202MOL   H20140803   6.808   5.110   4.563  1.3059  0.1104  0.5571
  202MOL   H20240804   6.910   5.189   4.443 -0.4438 -0.9095 -0.1059
  203MOL     O140805   2.512   3.374   1.662  0.3699  0.1652 -0.3640
  203MOL     C240806   2.577   3.447   1.563  0.4136  0.1662 -0.6105
  203MOL     C340807   2.511   3.417   1.428  0.7094 -1.0697 -0.8703
  203MOL     C440808   2.590   3.457   1.300  0.6685  0.2598 -0.4671
  203MOL     H540809   2.675   3.401   1.556  0.6163  0.2027  1.5189
  203MOL     H640810   2.595   3.549   1.596  1.1195 -0.3443  0.6307
  203MOL     H740811   2.488   3.311   1.420 -1.8651 -0.8780  2.5021
  203MOL     H840812   2.421   3.479   1.433 -0.7649 -2.9138 -3.0791
  203MOL     H940813   2.594   3.566   1.288 -0.1552  0.3116 -0.2484
  203MOL    H1040814   2.539   3.430   1.207 -1.2161 -0.5167  0.7779
  203MOL    H1140815   2.532   3.406   1.749 -1.2460 -1.7260  0.7551
  203MOL    O1240816   2.718   3.399   1.318  0.2895  0.3756  0.2122
  203MOL    C1340817   2.815   3.457   1.238  0.2131  0.0289 -0.7152
  203MOL    C1440818   2.950   3.413   1.296  0.4050  0.2248 -0.7056
  203MOL    C1540819   2.988   3.462   1.445  0.1188 -0.4076 -0.2690
  203MOL    H1640820   2.816   3.566   1.239  1.1559  0.0265 -0.2372
  203MOL    H1740821   2.805   3.422   1.135 -0.5435  1.7829 -1.2539
  203MOL    H1840822   2.952   3.305   1.304  0.4695  0.2395 -0.5111
  203MOL    H1940823   3.019   3.455   1.223  2.2468 -1.6433 -0.0531
  203MOL    H2040824   2.918   3.399   1.498  2.4662 -2.5302  0.4037
  203MOL    H2140825   2.965   3.566   1.469 -0.1434 -0.6705  0.6346
  203MOL    O2240826   3.125   3.427   1.479 -0.2918  0.2009  0.0435
  203MOL    C2340827   3.153   3.473   1.608 -0.3482  0.5716 -0.3474
  203MOL    C2440828   3.189   3.617   1.609  0.1695 -0.0223  0.1822
  203MOL    C2540829   3.271   3.661   1.729 -0.0349  0.0429 -0.2937
  203MOL    H2640830   3.237   3.409   1.636 -0.2951  1.4154  1.4899
  203MOL    H2740831   3.072   3.446   1.676 -0.2481  0.6136 -0.2103
  203MOL    H2840832   3.252   3.621   1.521 -1.3893  0.2489 -0.9573
  203MOL    H2940833   3.101   3.681   1.598 -0.8276 -1.3155  0.4126
  203MOL    H3040834   3.359   3.598   1.744 -1.5199 -1.5092  2.1098
  203MOL    H3140835   3.205   3.664   1.815 -1.0294  3.0939 -1.0993
  203MOL    O3240836   3.318   3.793   1.700  0.1817  0.2320 -0.5503
  203MOL    C3340837   3.258   3.907   1.765  0.4598  0.7881 -0.0271
  203MOL    C3440838   3.314   4.040   1.714 -0.1095 -0.5496 -0.5842
  203MOL    C3540839   3.324   4.058   1.561  0.0762 -0.4283  0.2471
  203MOL    H3640840   3.274   3.907   1.873  1.0832 -0.4400 -0.1024
  203MOL    H3740841   3.153   3.888   1.742  0.5457  0.2011  0.0385
  203MOL    H3840842   3.244   4.116   1.749 -1.0668 -0.1644 -3.2299
  203MOL    H3940843   3.408   4.072   1.759  0.3914 -2.4232 -0.2646
  203MOL    H4040844   3.222   4.049   1.525 -1.0606 -0.2568  3.3601
  203MOL    H4140845   3.390   3.980   1.523 -0.9340 -0.2226 -1.9907
  203MOL    O4240846   3.375   4.188   1.544  0.5367 -0.1819 -0.3817
  203MOL    C4340847   3.397   4.219   1.406  0.4434 -0.3096 -0.7380
  203MOL    C4440848   3.389   4.366   1.376 -0.4706  0.0240 -0.2903
  203MOL    C4540849   3.503   4.443   1.432 -0.2197 -0.4272  1.1633
  203MOL    H4640850   3.323   4.161   1.351 -0.4609  0.4114 -0.2890
  203MOL    H4740851   3.489   4.180   1.362  0.7517 -0.2930 -0.1119
  203MOL    H4840852   3.388   4.376   1.267  2.6014 -1.2635 -0.5003
  203MOL    H4940853   3.291   4.402   1.408 -1.3796  0.1415 -3.0231
  203MOL    H5040854   3.603   4.413   1.401  0.0935  1.0743  0.6837
  203MOL    H5140855   3.511   4.442   1.541 -1.0465 -0.7431  1.2203
  203MOL    O5240856   3.483   4.585   1.405  0.2123 -0.3788  0.1236
  203MOL    C5340857   3.592   4.672   1.449  0.0091 -0.6538 -0.0002
  203MOL    C5440858   3.560   4.821   1.404  0.1407  0.9832  0.5025
  203MOL    C5540859   3.688   4.905   1.423 -0.0491 -0.4338  0.0616
  203MOL    H5640860   3.691   4.651   1.407  0.1430  0.2799 -0.1578
  203MOL    H5740861   3.605   4.653   1.556  1.6022 -0.3689 -0.1342
  203MOL    H5840862   3.536   4.827   1.298 -0.9278  0.4080  0.6993
  203MOL    H5940863   3.472   4.860   1.455  0.1695  2.8156 -0.8091
  203MOL    H6040864   3.715   4.915   1.528 -2.2783 -0.0188  0.6228
  203MOL    H6140865   3.672   5.007   1.391  2.3064 -0.2498 -0.6184
  203MOL    O6240866   3.795   4.858   1.342  0.0140 -0.5762  0.3396
  203MOL    C6340867   3.929   4.901   1.367  0.6037 -0.6406 -0.0085
  203MOL    C6440868   4.042   4.835   1.297  0.5746  0.2513 -0.5848
  203MOL    C6540869   4.174   4.899   1.339  0.0369 -0.1330 -0.3674
  203MOL    H6640870   3.951   4.873   1.470 -3.1363  2.5155  1.8195
  203MOL    H6740871   3.938   5.008   1.351  0.7563 -0.6303  0.1487
  203MOL    H6840872   4.039   4.727   1.312  1.0899  0.2031 -0.8338
  203MOL    H6940873   4.020   4.863   1.194  0.4046  2.9129  0.1571
  203MOL    H7040874   4.180   4.901   1.448  1.2149  1.7686 -0.4439
  203MOL    H7140875   4.170   5.007   1.321  1.8263 -0.1297 -0.8117
  203MOL    O7240876   4.269   4.823   1.273 -0.2232  0.3587  0.5155
  203MOL    C7340877   4.406   4.871   1.275  0.1252 -0.2757 -0.4268
  203MOL    C7440878   4.480   4.759   1.203  0.1309  1.1554  0.4388
  203MOL    C7540879   4.631   4.770   1.220  0.4195 -0.5370  0.5917
  203MOL    H7640880   4.442   4.884   1.378 -2.6268  0.2547  0.5124
  203MOL    H7740881   4.419   4.964   1.220  1.8866  0.6811  1.5191
  203MOL    H7840882   4.457   4.661   1.246  0.1315  1.6717  1.6339
  203MOL    H7940883   4.464   4.766   1.095 -0.0935 -2.8713  0.1279
  203MOL    H8040884   4.663   4.752   1.322  0.9645 -0.8475  0.3689
  203MOL    H8140885   4.661   4.866   1.178 -0.2935 -0.9182 -0.8264
  203MOL    O8240886   4.682   4.673   1.125 -0.1265  0.4953 -0.2102
  203MOL    C8340887   4.826   4.647   1.144  0.6390 -0.2283 -0.3471
  203MOL    C8440888   4.837   4.532   1.242  0.0684 -0.4064  0.1422
  203MOL    C8540889   4.975   4.522   1.300 -0.1993  0.6849  0.5493
  203MOL    H8640890   4.866   4.743   1.176  0.6410 -1.1279  2.4989
  203MOL    H8740891   4.868   4.616   1.048 -0.8817 -0.6962 -0.8723
  203MOL    H8840892   4.772   4.544   1.329 -0.9326  2.1025 -0.8939
  203MOL    H8940893   4.799   4.436   1.208  1.3255 -0.7978 -0.1526
  203MOL    H9040894   5.027   4.617   1.313 -2.2156  1.7675  0.9147
  203MOL    H9140895   5.021   4.458   1.224  0.4377  2.7213 -0.8113
  203MOL    O9240896   4.966   4.449   1.422 -0.5891 -0.3955 -0.0849
  203MOL    C9340897   5.094   4.434   1.478 -0.0978  0.1675 -0.0711
  203MOL    C9440898   5.151   4.291   1.456 -0.1826  0.7165 -0.8874
  203MOL    C9540899   5.051   4.178   1.490  0.5816  0.2480  0.3686
  203MOL    H9640900   5.100   4.452   1.586 -1.0261  2.2530 -0.3469
  203MOL    H9740901   5.175   4.495   1.438  0.3294  0.0646  0.6333
  203MOL    H9840902   5.179   4.292   1.350 -0.1864 -0.1289 -0.8963
  203MOL    H9940903   5.243   4.281   1.513 -0.8469 -2.7150 -0.3210
  203MOL   H10040904   4.964   4.188   1.424  2.4297  0.8971 -2.0335
  203MOL   H10140905   5.049   4.202   1.596  0.8709  1.2088  0.1619
  203MOL   O10240906   5.102   4.054   1.452 -0.1067  0.3685 -0.0536
  203MOL   C10340907   5.040   3.938   1.514  0.2929 -0.1567 -0.5778
  203MOL   C10440908   5.014   3.822   1.421 -0.2564 -0.2427 -0.3907
  203MOL   C10540909   4.919   3.719   1.472 -0.2638  0.3183  0.5567
  203MOL   H10640910   4.938   3.968   1.535  0.1954  0.2282 -1.5623
  203MOL   H10740911   5.079   3.910   1.611 -0.8039 -0.3469 -0.1830
  203MOL   H10840912   4.964   3.855   1.330 -0.8375 -0.1627 -0.0423
  203MOL   H10940913   5.102   3.775   1.376  1.0759 -0.0573  1.9684
  203MOL   H11040914   4.888   3.639   1.405 -1.1218  0.2539  1.0223
  203MOL   H11140915   4.826   3.753   1.519 -1.5885 -1.9302 -0.3853
  203MOL   O11240916   4.995   3.636   1.560 -0.2026  0.3644  0.6239
  203MOL   C11340917   4.939   3.518   1.611  0.1720 -0.4351  0.2410
  203MOL   C11440918   4.851   3.555   1.732  0.0084  0.3572 -0.0976
  203MOL   C11540919   4.794   3.429   1.794  0.2931  0.7475  0.0060
  203MOL   H11640920   5.021   3.456   1.647 -0.1839  0.3231  2.4150
  203MOL   H11740921   4.884   3.469   1.531  0.9958 -1.6462  0.4064
  203MOL   H11840922   4.908   3.600   1.814  1.2877  1.4218 -1.5543
  203MOL   H11940923   4.768   3.611   1.689  1.1176  1.5548 -0.7233
  203MOL   H12040924   4.773   3.369   1.705  0.2297  0.9354 -0.1057
  203MOL   H12140925   4.709   3.449   1.859  1.2226 -0.8405  1.7580
  203MOL   O12240926   4.884   3.371   1.886  0.3174  0.0868  0.5814
  203MOL   C12340927   4.836   3.236   1.922 -0.1624 -0.2750 -0.1322
  203MOL   C12440928   4.923   3.195   2.036 -0.4595  0.5001  0.8275
  203MOL   C12540929   4.901   3.267   2.171  0.4268  0.1039  0.6083
  203MOL   H12640930   4.841   3.170   1.836  2.0822  0.2384 -0.4456
  203MOL   H12740931   4.730   3.239   1.947 -0.2672 -1.2300 -0.4702
  203MOL   H12840932   4.916   3.090   2.066 -0.0342  0.5683  1.1880
  203MOL   H12940933   5.026   3.215   2.006 -0.4226  1.0652  1.3255
  203MOL   H13040934   4.916   3.375   2.176 -0.6061  0.3695 -1.3450
  203MOL   H13140935   4.968   3.224   2.245  0.3413 -0.1110  0.5620
  203MOL   O13240936   4.766   3.242   2.201  0.2789  0.5734 -0.0389
  203MOL   C13340937   4.697   3.349   2.259  0.4526 -0.5980 -0.2323
  203MOL   C13440938   4.555   3.284   2.270 -0.2815 -0.1578  0.3087
  203MOL   C13540939   4.446   3.371   2.332  0.8560  0.1212 -0.4016
  203MOL   H13640940   4.702   3.447   2.211  0.8490 -0.5160 -0.0223
  203MOL   H13740941   4.745   3.361   2.356 -2.7906 -2.7803  1.7289
  203MOL   H13840942   4.532   3.242   2.172  1.4525 -0.1775 -0.1049
  203MOL   H13940943   4.576   3.191   2.322  0.0649 -1.3078 -1.8245
  203MOL   H14040944   4.454   3.470   2.286  0.1713  1.0384  1.3780
  203MOL   H14140945   4.455   3.386   2.440 -0.0718 -2.5827  0.0886
  203MOL   O14240946   4.318   3.318   2.294 -0.3841 -0.1867 -0.0583
  203MOL   C14340947   4.220   3.398   2.353  0.0733  0.4483 -0.0908
  203MOL   C14440948   4.097   3.405   2.261 -0.3089  0.0095  0.5114
  203MOL   C14540949   3.982   3.499   2.301 -0.9526  0.4072  0.1193
  203MOL   H14640950   4.258   3.493   2.391  3.1899 -0.7035 -0.2164
  203MOL   H14740951   4.178   3.362   2.448 -1.4567  3.3994  0.4237
  203MOL   H14840952   4.136   3.455   2.172 -1.0941 -0.0263  0.1445
  203MOL   H14940953   4.066   3.304   2.233 -0.9672  0.0073  1.2350
  203MOL   H15040954   3.947   3.472   2.400  1.8711  1.6561  1.5250
  203MOL   H15140955   3.896   3.495   2.235 -1.0710  0.7159  0.2551
  203MOL   O15240956   4.024   3.636   2.302 -0.3760 -0.0878  0.1976
  203MOL   C15340957   3.921   3.732   2.319  0.3548 -0.2010  0.0018
  203MOL   C15440958   3.968   3.876   2.320 -0.1694 -0.0917  0.6397
  203MOL   C15540959   3.860   3.975   2.282  0.2260  0.0418  0.2155
  203MOL   H15640960   3.867   3.708   2.411 -0.9409 -2.0219 -1.2194
  203MOL   H15740961   3.849   3.726   2.238  3.2589  0.5264 -2.7104
  203MOL   H15840962   4.009   3.893   2.420 -0.1175  0.0408  0.5954
  203MOL   H15940963   4.056   3.893   2.258  0.0632 -0.5974  0.8254
  203MOL   H16040964   3.776   3.988   2.350 -0.1430 -0.4095 -0.1449
  203MOL   H16140965   3.828   3.929   2.189  0.7935 -1.0538  0.5426
  203MOL   O16240966   3.929   4.098   2.264  0.5012 -0.1569  0.7408
  203MOL   C16340967   3.874   4.183   2.168 -0.1815  0.3770  1.1042
  203MOL   C16440968   3.960   4.310   2.165 -0.0312  0.0041 -0.1432
  203MOL   C16540969   3.932   4.431   2.069 -0.1126 -0.7955  0.0090
  203MOL   H16640970   3.768   4.207   2.175  0.0917  2.3860 -1.0628
  203MOL   H16740971   3.891   4.135   2.072 -2.6752  1.9224 -0.1678
  203MOL   H16840972   3.966   4.348   2.267  1.1625  3.4298 -1.3967
  203MOL   H16940973   4.056   4.274   2.128 -0.0617 -0.2169 -0.0045
  203MOL   H17040974   3.827   4.460   2.068 -0.0719 -0.6624 -0.3684
  203MOL   H17140975   3.964   4.417   1.966 -0.9182 -0.1973 -0.3318
  203MOL   O17240976   4.018   4.527   2.119  0.1874 -0.5483  0.0339
  203MOL   C17340977   3.959   4.603   2.230  0.1114  0.4528  0.1037
  203MOL   C17440978   4.045   4.728   2.258 -0.3327  0.5994 -0.0477
  203MOL   C17540979   4.013   4.858   2.180  0.4598 -0.7799  0.1350
  203MOL   H17640980   3.942   4.540   2.317  2.3466  1.7138  1.4997
  203MOL   H17740981   3.856   4.632   2.209  0.0510  1.2454  1.4299
  203MOL   H17840982   4.017   4.732   2.363  1.5580 -0.4381  0.5301
  203MOL   H17940983   4.154   4.715   2.259 -0.4547 -0.6136 -1.5791
  203MOL   H18040984   3.908   4.860   2.151  0.3810  1.1161  0.4743
  203MOL   H18140985   4.073   4.877   2.091  0.5911  2.1318  0.8102
  203MOL   O18240986   4.038   4.975   2.261 -0.7261 -0.2413 -0.1504
  203MOL   C18340987   4.010   5.105   2.194  0.4267  0.6932 -0.4124
  203MOL   C18440988   4.015   5.215   2.302 -0.1812  0.5092 -0.0282
  203MOL   C18540989   3.904   5.201   2.404  0.1263  0.1575 -0.0614
  203MOL   H18640990   3.915   5.100   2.141 -0.9888 -2.6976  2.2077
  203MOL   H18740991   4.094   5.113   2.124  1.2751 -1.0101  0.3558
  203MOL   H18840992   4.115   5.217   2.346  0.1433  1.3150 -0.7565
  203MOL   H18940993   3.995   5.306   2.245  0.9705  0.0027 -1.2908
  203MOL   H19040994   3.908   5.105   2.456  0.9626 -0.9718 -2.1200
  203MOL   H19140995   3.800   5.212   2.373 -0.0341 -0.8912  0.0617
  203MOL   O19240996   3.922   5.307   2.493  0.3218  1.2967 -0.1343
  203MOL   C19340997   3.867   5.286   2.619  0.1380 -0.7041  0.0945
  203MOL   C19440998   3.874   5.420   2.687  0.6695  0.6133  0.2592
  203MOL   C19540999   4.005   5.459   2.747  0.3042  0.3013  0.2955
  203MOL   H19641000   3.913   5.202   2.672  3.1244 -0.2256 -1.6084
  203MOL   H19741001   3.765   5.253   2.599  0.1725 -1.7129  1.4633
  203MOL   H19841002   3.828   5.500   2.628  1.8113  0.5019 -0.7773
  203MOL   H19941003   3.799   5.407   2.765 -1.2792 -2.3855 -2.0101
  203MOL   H20041004   3.987   5.551   2.803 -2.6162 -0.9873  1.5466
  203MOL   H20141005   4.079   5.491   2.673  1.2794 -0.5976  0.8776
  203MOL   H20241006   4.039   5.384   2.818  0.1829  0.2867  0.3373
  204MOL     O141007   7.043   5.906   7.698  0.2363  0.3903 -0.0228
  204MOL     C241008   6.966   5.983   0.011  0.4509 -0.2594  0.0693
  204MOL     C341009   6.846   5.893   0.063  0.0109  0.0125 -0.0211
  204MOL     C441010   6.732   5.967   0.127  0.7440 -0.1984  0.1364
  204MOL     H541011   6.930   6.071   7.748 -0.3781  0.2530  1.4812
  204MOL     H641012   7.018   6.020   0.100 -0.1116  1.2989 -0.2471
  204MOL     H741013   6.806   5.841   7.764 -1.7660  0.0941  0.7413
  204MOL     H841014   6.893   5.824   0.133 -1.3076 -1.6074 -0.7068
  204MOL     H941015   6.777   5.996   0.222 -0.4858 -1.0274  0.9767
  204MOL    H1041016   6.642   5.907   0.142 -0.3843  1.2576 -0.5965
  204MOL    H1141017   7.083   5.832   7.742 -0.7433 -1.0572 -1.5283
  204MOL    O1241018   6.696   6.070   0.037 -0.1836  0.1211  0.7221
  204MOL    C1341019   6.586   6.155   0.078  1.0254 -0.4753 -0.8941
  204MOL    C1441020   6.598   6.292   0.008 -0.1720 -0.6623 -0.0270
  204MOL    C1541021   6.724   6.362   0.060  0.1027  0.1845 -0.4559
  204MOL    H1641022   6.606   6.164   0.184  0.0702 -1.7561 -0.5992
  204MOL    H1741023   6.485   6.114   0.070  0.9314 -0.3564 -0.3515
  204MOL    H1841024   6.605   6.284   7.688 -0.3179  1.2367 -0.1978
  204MOL    H1941025   6.517   6.363   0.022  0.2808 -0.2895  0.8205
  204MOL    H2041026   6.739   6.344   0.167 -3.5531 -0.5321 -0.0198
  204MOL    H2141027   6.712   6.468   0.041 -0.3164  0.5671  1.7902
  204MOL    O2241028   6.835   6.327   7.765  0.4157 -0.1967  0.0074
  204MOL    C2341029   6.953   6.366   0.045  0.0223  0.0038 -0.1568
  204MOL    C2441030   7.059   6.382   7.717 -0.8309  0.1653 -0.0461
  204MOL    C2541031   7.073   6.262   7.630 -0.2779  0.5574 -0.8142
  204MOL    H2641032   6.969   6.293   0.124 -0.7606 -1.6477 -1.4736
  204MOL    H2741033   6.949   6.458   0.102  2.3358 -0.7776  1.3238
  204MOL    H2841034   7.050   6.476   7.663 -0.2215  0.5529  0.5215
  204MOL    H2941035   7.153   6.396   7.769 -1.4664  0.4191  1.0633
  204MOL    H3041036   6.980   6.224   7.587 -0.7577  1.6494 -0.7565
  204MOL    H3141037   7.108   6.178   7.690 -2.1345  0.3018 -0.0473
  204MOL    O3241038   7.165   6.280   7.524 -0.6235  0.5329  0.0731
  204MOL    C3341039   7.186   6.181   7.426  0.5024  0.1129  0.8166
  204MOL    C3441040   7.258   6.238   7.301  0.5685  0.2937  0.2236
  204MOL    C3541041   7.302   6.136   7.190 -0.1006  0.2576 -0.3294
  204MOL    H3641042   7.090   6.144   7.389  0.7458 -0.5633  0.8482
  204MOL    H3741043   7.243   6.105   7.481  1.6647 -0.0704 -0.6262
  204MOL    H3841044   7.207   6.328   7.266 -0.4405 -1.0138 -1.7616
  204MOL    H3941045   7.352   6.282   7.334  0.8882  0.0719 -0.3858
  204MOL    H4041046   7.215   6.100   7.135  0.4732 -2.2477  0.3207
  204MOL    H4141047   7.349   6.059   7.251  1.3182  0.2679 -1.3889
  204MOL    O4241048   7.397   6.190   7.107  0.1335  0.0420  0.1670
  204MOL    C4341049   7.449   6.108   7.008  0.1109  0.0705 -0.0644
  204MOL    C4441050   7.471   6.189   6.878  0.1509  0.0460 -0.3010
  204MOL    C4541051   7.563   6.308   6.900  0.8216 -0.4529  0.1422
  204MOL    H4641052   7.379   6.029   6.980  0.4716 -0.1263 -0.4015
  204MOL    H4741053   7.537   6.065   7.054  0.3634 -0.5791 -1.1436
  204MOL    H4841054   7.512   6.117   6.807  2.0538  1.1318 -0.3412
  204MOL    H4941055   7.373   6.214   6.838 -0.7531 -3.0889 -0.2090
  204MOL    H5041056   7.657   6.257   6.921  1.0559 -0.1646 -0.1985
  204MOL    H5141057   7.534   6.363   6.989  1.7457  0.3885 -0.0662
  204MOL    O5241058   7.562   6.387   6.780  0.0225 -0.0596 -0.2833
  204MOL    C5341059   7.670   6.478   6.785 -0.9317  0.1501 -0.2777
  204MOL    C5441060   7.667   6.549   6.647  1.0699 -0.2994 -0.1440
  204MOL    C5541061   7.779   6.645   6.617 -0.2537  0.1389 -0.3998
  204MOL    H5641062   7.767   6.430   6.776  0.1868  2.3031 -0.0390
  204MOL    H5741063   7.669   6.541   6.874 -0.5106 -1.6652  1.0287
  204MOL    H5841064   7.658   6.469   6.573 -1.1931 -1.3364  1.1894
  204MOL    H5941065   7.575   6.605   6.634  0.8783 -0.2803  1.1917
  204MOL    H6041066   0.079   6.586   6.591  0.3184  1.3734 -1.3169
  204MOL    H6141067   0.013   6.692   6.712  1.4721  1.5169 -1.4573
  204MOL    O6241068   7.746   6.735   6.518  0.3161 -0.1703 -0.0507
  204MOL    C6341069   0.066   6.823   6.501  0.5460  0.3385 -0.6528
  204MOL    C6441070   0.026   6.955   6.428 -0.4362  0.0983  0.1038
  204MOL    C6541071   0.148   7.046   6.401  0.5564 -0.1632 -0.4452
  204MOL    H6641072   0.148   6.786   6.440 -0.3769 -0.3394 -1.5018
  204MOL    H6741073   0.112   6.843   6.598 -0.7470  0.2092  0.0046
  204MOL    H6841074   7.752   6.944   6.339  1.4844  2.0105 -1.5203
  204MOL    H6941075   7.748   7.010   6.495 -1.1301 -1.0113  0.3444
  204MOL    H7041076   0.197   7.077   6.493 -0.9208 -0.1657  0.3610
  204MOL    H7141077   0.102   7.137   6.363  0.6870 -0.2253 -0.7558
  204MOL    O7241078   0.231   6.985   6.301 -0.0090 -0.0932  0.9915
  204MOL    C7341079   0.343   7.067   6.285 -0.7592 -0.4623  0.9462
  204MOL    C7441080   0.391   7.042   6.141 -0.4673  0.1502  0.3552
  204MOL    C7541081   0.439   6.896   6.120  0.0395 -0.1869 -0.4575
  204MOL    H7641082   0.429   7.064   6.351  1.2095 -1.7194 -1.5837
  204MOL    H7741083   0.304   7.169   6.286 -0.4869 -0.3581  1.1568
  204MOL    H7841084   0.310   7.069   6.074  1.8510  0.0588 -2.5793
  204MOL    H7941085   0.468   7.116   6.123 -2.2890  1.6044 -1.6952
  204MOL    H8041086   0.358   6.825   6.139 -0.7604  1.0688  0.9109
  204MOL    H8141087   0.518   6.878   6.193  0.9287  0.8335 -1.1478
  204MOL    O8241088   0.481   6.879   5.989 -0.1463 -0.2928  0.3843
  204MOL    C8341089   0.524   6.747   5.962 -0.1320 -0.5979  0.5861
  204MOL    C8441090   0.529   6.730   5.807  0.0293  0.2268  0.0390
  204MOL    C8541091   0.556   6.592   5.749  0.2853  0.9058 -0.4777
  204MOL    H8641092   0.454   6.674   6.001 -0.0444  0.1760  2.2323
  204MOL    H8741093   0.624   6.732   6.004  0.2252  2.0435  0.7324
  204MOL    H8841094   0.436   6.768   5.764  0.4882  1.6118  0.2372
  204MOL    H8941095   0.605   6.804   5.777 -1.1555  2.4236  2.2692
  204MOL    H9041096   0.656   6.558   5.774  0.1957 -1.5584 -3.2407
  204MOL    H9141097   0.548   6.584   5.641  2.4326 -0.0845 -0.5828
  204MOL    O9241098   0.461   6.505   5.809  0.4124  0.3667  0.2403
  204MOL    C9341099   0.471   6.374   5.767  0.0941 -0.3470  0.2023
  204MOL    C9441100   0.390   6.282   5.855 -0.1574  0.6703 -0.0265
  204MOL    C9541101   0.409   6.134   5.814 -0.6391 -0.8104 -0.8991
  204MOL    H9641102   0.573   6.336   5.770  0.2278 -0.0920 -0.7760
  204MOL    H9741103   0.440   6.362   5.663 -0.4865  0.8598  0.2295
  204MOL    H9841104   0.410   6.281   5.962  3.5664 -2.3342 -0.6877
  204MOL    H9941105   0.291   6.329   5.857 -0.2493  0.5310 -1.1564
  204MOL   H10041106   0.517   6.120   5.810 -0.7132 -1.2200 -1.7032
  204MOL   H10141107   0.381   6.126   5.709  0.6210  1.7823 -1.4794
  204MOL   O10241108   0.320   6.044   5.892  0.6420 -0.0308 -0.0466
  204MOL   C10341109   0.283   5.927   5.823  0.4309  0.5720 -0.4202
  204MOL   C10441110   0.396   5.818   5.832 -0.4947  0.4900  0.2183
  204MOL   C10541111   0.438   5.771   5.973 -0.4840 -0.2357  0.4188
  204MOL   H10641112   0.250   5.948   5.721 -1.2597 -1.0415 -0.2308
  204MOL   H10741113   0.191   5.890   5.869  1.3539 -0.7361  0.4144
  204MOL   H10841114   0.358   5.724   5.790 -1.1760  0.1136  1.6197
  204MOL   H10941115   0.487   5.837   5.776  0.2111 -0.5763  0.9757
  204MOL   H11041116   0.356   5.733   6.034 -0.7514  0.1301  0.2948
  204MOL   H11141117   0.477   5.854   6.032  1.1374  0.3707 -1.4748
  204MOL   O11241118   0.537   5.666   5.944 -0.4074  0.0957 -0.7308
  204MOL   C11341119   0.578   5.591   6.060  0.1295 -0.7582  0.1173
  204MOL   C11441120   0.686   5.489   6.015 -0.1116 -0.0011 -0.4677
  204MOL   C11541121   0.810   5.546   5.946 -0.6293 -0.1867 -0.5536
  204MOL   H11641122   0.499   5.535   6.110 -0.1769 -1.2659 -0.9274
  204MOL   H11741123   0.624   5.657   6.133  0.8214 -1.7370  0.5628
  204MOL   H11841124   0.732   5.433   6.096  0.9678  0.5742 -0.6780
  204MOL   H11941125   0.638   5.417   5.949 -1.3448  0.3333  0.0554
  204MOL   H12041126   0.828   5.644   5.991  0.0883  0.9629 -3.2849
  204MOL   H12141127   0.788   5.566   5.842 -1.0798 -1.3087 -0.6857
  204MOL   O12241128   0.929   5.468   5.965 -0.4146  0.4139 -0.0224
  204MOL   C12341129   1.046   5.523   5.900 -0.1703  0.1383 -0.7567
  204MOL   C12441130   1.164   5.429   5.933 -0.0099 -0.7257 -0.0523
  204MOL   C12541131   1.301   5.487   5.897  0.3443 -0.3583 -0.4202
  204MOL   H12641132   1.080   5.616   5.946 -0.4614  0.4983 -1.2699
  204MOL   H12741133   1.032   5.521   5.792  0.1594 -2.8784 -0.7875
  204MOL   H12841134   1.171   5.411   6.041  1.9178 -2.0652 -0.3767
  204MOL   H12941135   1.147   5.328   5.894 -1.0085 -2.1975  3.9377
  204MOL   H13041136   1.314   5.580   5.952 -0.3395 -1.1339  1.1031
  204MOL   H13141137   1.294   5.522   5.794  0.4068  1.7522  0.2670
  204MOL   O13241138   1.413   5.406   5.915  0.3431  0.0288  0.0422
  204MOL   C13341139   1.443   5.377   6.054 -0.1827  0.1462 -0.1819
  204MOL   C13441140   1.577   5.298   6.070 -0.4573  0.3331 -0.2809
  204MOL   C13541141   1.630   5.309   6.213  0.5951 -0.5992  1.1497
  204MOL   H13641142   1.358   5.325   6.097 -1.1160  3.2432  1.9471
  204MOL   H13741143   1.453   5.473   6.105 -0.2329 -1.3970  2.8255
  204MOL   H13841144   1.551   5.194   6.050  0.8177 -0.0687  0.1555
  204MOL   H13941145   1.648   5.335   5.996  0.1145 -0.9453 -0.3649
  204MOL   H14041146   1.550   5.280   6.280 -1.4338 -0.1479 -0.9948
  204MOL   H14141147   1.668   5.406   6.246 -0.2875 -0.3023  1.2983
  204MOL   O14241148   1.739   5.217   6.237 -0.0073  0.8843 -0.6116
  204MOL   C14341149   1.790   5.209   6.371 -0.5261  0.7782  0.4782
  204MOL   C14441150   1.907   5.106   6.370  0.5893  0.8259 -0.2666
  204MOL   C14541151   2.002   5.125   6.489 -0.5002  0.7571 -0.9550
  204MOL   H14641152   1.719   5.191   6.452 -0.7938 -0.9180 -0.1228
  204MOL   H14741153   1.831   5.305   6.403 -1.2744  0.7309  1.5994
  204MOL   H14841154   1.873   5.003   6.383 -0.6038  1.2022 -0.4319
  204MOL   H14941155   1.962   5.113   6.276 -0.4530 -0.5321 -1.0007
  204MOL   H15041156   2.028   5.230   6.506  0.3094  0.1278  1.9584
  204MOL   H15141157   2.092   5.064   6.495 -0.9500  0.2227  0.6067
  204MOL   O15241158   1.921   5.093   6.603 -0.0512 -0.7376  0.4803
  204MOL   C15341159   1.990   5.034   6.710 -0.1101 -0.5881 -0.7984
  204MOL   C15441160   1.875   5.000   6.820 -0.2274  0.7233 -0.2299
  204MOL   C15541161   1.820   4.847   6.813 -1.0249 -0.0526 -0.2781
  204MOL   H15641162   2.061   5.100   6.760 -0.0744 -1.5803  0.4904
  204MOL   H15741163   2.043   4.946   6.675 -0.3904 -0.2575 -2.0712
  204MOL   H15841164   1.911   5.023   6.921 -1.9375 -1.0165  0.8198
  204MOL   H15941165   1.796   5.075   6.813 -0.9671 -0.0041  0.1111
  204MOL   H16041166   1.918   4.801   6.809 -0.5659  0.8925 -0.0625
  204MOL   H16141167   1.753   4.830   6.729 -0.2318 -2.0908 -0.5198
  204MOL   O16241168   1.751   4.807   6.933 -0.3734  0.2405  0.1075
  204MOL   C16341169   1.779   4.678   6.975  0.0699 -0.3374 -0.2492
  204MOL   C16441170   1.710   4.659   7.103  0.1014  0.4487  0.0138
  204MOL   C16541171   1.745   4.522   7.168 -0.6526  0.3111  0.5699
  204MOL   H16641172   1.886   4.684   6.993  0.0154  0.8179 -0.3185
  204MOL   H16741173   1.758   4.603   6.899 -1.6880 -1.4264  1.2591
  204MOL   H16841174   1.737   4.743   7.167  0.5978 -0.7201  1.3682
  204MOL   H16941175   1.605   4.690   7.096  0.3898  1.1070 -1.5424
  204MOL   H17041176   1.701   4.515   7.267 -1.4184  2.1790  0.3966
  204MOL   H17141177   1.854   4.520   7.170 -0.4926  1.6542 -2.6588
  204MOL   O17241178   1.693   4.421   7.088  0.1733 -0.1609  0.0279
  204MOL   C17341179   1.744   4.292   7.131 -0.0250 -1.1703  0.4686
  204MOL   C17441180   1.744   4.192   7.019 -0.1260  0.0303 -0.9289
  204MOL   C17541181   1.808   4.233   6.882 -0.8232  0.3071  0.4800
  204MOL   H17641182   1.693   4.261   7.223 -2.1129 -0.7999 -0.5342
  204MOL   H17741183   1.850   4.305   7.154  0.0820  0.0429 -0.6863
  204MOL   H17841184   1.782   4.096   7.054  0.2191 -0.3441 -2.2922
  204MOL   H17941185   1.637   4.179   7.001  0.1476 -3.6514 -0.2982
  204MOL   H18041186   1.909   4.271   6.896 -0.0879 -1.5648  0.5187
  204MOL   H18141187   1.742   4.309   6.841 -0.4732  0.2988 -0.1060
  204MOL   O18241188   1.812   4.111   6.811  0.4104 -0.2854  0.3471
  204MOL   C18341189   1.900   4.110   6.700  0.3394  0.1352 -0.1349
  204MOL   C18441190   1.904   3.966   6.641 -0.2502 -0.4402 -0.1219
  204MOL   C18541191   1.768   3.918   6.586  0.5684 -0.0128 -0.5598
  204MOL   H18641192   2.000   4.122   6.743  0.3768 -1.7049  0.3591
  204MOL   H18741193   1.877   4.178   6.618  0.2724 -0.1005 -0.3124
  204MOL   H18841194   1.972   3.948   6.557 -0.6153  1.3096 -0.7998
  204MOL   H18941195   1.941   3.890   6.710  0.3452 -1.6727 -1.7584
  204MOL   H19041196   1.740   3.995   6.514 -0.7910  0.0856  0.0557
  204MOL   H19141197   1.692   3.918   6.665 -0.5385 -0.8486 -1.6006
  204MOL   O19241198   1.769   3.792   6.524 -0.1616  0.2898 -0.2542
  204MOL   C19341199   1.656   3.756   6.447 -0.7845 -0.0581  0.4083
  204MOL   C19441200   1.671   3.612   6.396  0.0985 -0.0025 -0.6940
  204MOL   C19541201   1.546   3.548   6.350  0.1404 -0.4496 -0.0656
  204MOL   H19641202   1.650   3.832   6.368 -2.2409 -1.2752 -0.6824
  204MOL   H19741203   1.567   3.768   6.509 -0.4207 -0.9435  1.1057
  204MOL   H19841204   1.735   3.622   6.308 -0.2924 -0.6769 -1.0563
  204MOL   H19941205   1.719   3.562   6.480 -0.6669 -0.8987 -0.7865
  204MOL   H20041206   1.488   3.609   6.281  1.4761  0.1649 -0.6532
  204MOL   H20141207   1.496   3.517   6.442 -0.3882  0.7791  0.0849
  204MOL   H20241208   1.581   3.459   6.299 -1.0977 -1.0292  0.0521
  205MOL     O141209   0.627   0.979   5.158 -0.1806  0.1141 -0.1554
  205MOL     C241210   0.738   0.996   5.236 -0.1937  0.0847 -0.6675
  205MOL     C341211   0.741   0.887   5.345 -0.4507  0.2808  0.1875
  205MOL     C441212   0.875   0.888   5.422  0.8525  0.1835  0.4595
  205MOL     H541213   0.732   1.095   5.280  0.7126  0.5727 -1.6356
  205MOL     H641214   0.827   0.996   5.174  0.3121  1.2072  0.0333
  205MOL     H741215   0.662   0.882   5.420 -0.7809  0.0931 -0.1697
  205MOL     H841216   0.731   0.791   5.295 -0.6591  1.1766 -1.5284
  205MOL     H941217   0.887   0.990   5.459  0.2058 -0.4759  2.5815
  205MOL    H1041218   0.960   0.860   5.360  1.0903 -2.0371  1.7431
  205MOL    H1141219   0.650   0.933   5.079 -2.1287 -1.4269  0.1267
  205MOL    O1241220   0.859   0.790   5.526 -0.0370 -0.3057 -0.1887
  205MOL    C1341221   0.977   0.786   5.602 -0.2784  0.3565  0.1820
  205MOL    C1441222   0.953   0.670   5.697 -0.6251 -0.4804  0.2375
  205MOL    C1541223   1.044   0.686   5.819  0.0177 -0.1771  0.0920
  205MOL    H1641224   0.999   0.879   5.657  0.7818  0.3154 -0.1552
  205MOL    H1741225   1.068   0.764   5.546  0.2049 -1.0170  1.4755
  205MOL    H1841226   0.852   0.670   5.736  0.2697  0.9893  2.6716
  205MOL    H1941227   0.974   0.572   5.656  0.4817 -0.5039  0.8144
  205MOL    H2041228   1.001   0.624   5.898  0.7139 -2.3288 -1.1565
  205MOL    H2141229   1.045   0.789   5.854  0.2796  0.2859 -1.2566
  205MOL    O2241230   1.180   0.639   5.793 -0.1154 -0.2706 -0.6272
  205MOL    C2341231   1.196   0.506   5.752 -0.2338 -0.7905  0.2376
  205MOL    C2441232   1.346   0.466   5.759  0.2595  0.0580 -0.1746
  205MOL    C2541233   1.380   0.330   5.701 -0.2928 -0.6977  0.1497
  205MOL    H2641234   1.167   0.491   5.648 -0.0591 -1.3612  0.2704
  205MOL    H2741235   1.141   0.432   5.809  0.5631 -1.2985  0.3495
  205MOL    H2841236   1.422   0.532   5.716  1.0048  0.6868  2.0366
  205MOL    H2941237   1.379   0.470   5.863  1.1153 -0.3525 -0.4274
  205MOL    H3041238   1.346   0.315   5.598 -0.5463 -0.4484  0.1983
  205MOL    H3141239   1.326   0.251   5.753  0.0205 -0.8803  0.2028
  205MOL    O3241240   1.520   0.312   5.703  0.1041  0.1360  0.4459
  205MOL    C3341241   1.556   0.190   5.646  0.4766  0.3385  0.6279
  205MOL    C3441242   1.706   0.175   5.637 -0.0304 -0.3592  0.0444
  205MOL    C3541243   1.766   0.036   5.613 -0.6905 -0.1880 -0.6998
  205MOL    H3641244   1.515   0.174   5.546 -0.6604  0.2928  1.0902
  205MOL    H3741245   1.523   0.109   5.710  1.4039 -0.0157  0.6592
  205MOL    H3841246   1.752   0.250   5.573 -0.0640 -0.1120  0.3076
  205MOL    H3941247   1.733   0.203   5.739 -0.5925 -0.0322  0.1039
  205MOL    H4041248   1.754   7.760   5.700 -1.8799  0.4396 -0.3915
  205MOL    H4141249   1.873   0.050   5.595 -0.0753 -2.7398  0.7306
  205MOL    O4241250   1.707   7.736   5.511  0.5061 -0.0359 -0.4911
  205MOL    C4341251   1.707   0.006   5.383 -0.1030  0.2981  0.4658
  205MOL    C4441252   1.653   7.688   5.291  0.6029  0.1803 -1.0213
  205MOL    C4541253   1.644   7.742   5.146 -0.3766 -0.3587 -0.5505
  205MOL    H4641254   1.806   0.034   5.347 -0.3989 -0.3666 -0.9016
  205MOL    H4741255   1.644   0.093   5.364  0.6612  0.5933 -0.7671
  205MOL    H4841256   1.710   7.595   5.289 -0.7291 -0.7584  1.8619
  205MOL    H4941257   1.558   7.642   5.317  1.6336 -0.6764  1.4514
  205MOL    H5041258   1.723   0.022   5.118  0.4879  0.7347  4.0225
  205MOL    H5141259   1.548   0.003   5.131 -0.3182 -0.0460  0.0609
  205MOL    O5241260   1.654   7.620   5.076  1.0550  0.4224  0.1332
  205MOL    C5341261   1.611   7.615   4.940 -0.2065 -0.8571 -0.7597
  205MOL    C5441262   1.527   7.490   4.920 -0.5911 -0.0416 -0.6571
  205MOL    C5541263   1.516   7.454   4.776  0.1352 -0.4775 -0.5126
  205MOL    H5641264   1.702   7.614   4.881  0.6415 -1.1670  0.5459
  205MOL    H5741265   1.543   7.698   4.920 -0.8505 -0.5246  2.5266
  205MOL    H5841266   1.567   7.408   4.978 -1.7883 -1.2526 -1.4995
  205MOL    H5941267   1.428   7.509   4.961 -0.9725 -0.9827 -1.1261
  205MOL    H6041268   1.488   7.349   4.767  1.2148 -0.7002 -1.4928
  205MOL    H6141269   1.611   7.456   4.722  0.6087 -0.8950  0.2955
  205MOL    O6241270   1.427   7.548   4.708  0.2833 -0.5722 -0.4972
  205MOL    C6341271   1.418   7.516   4.567  0.2040 -0.0053 -0.8219
  205MOL    C6441272   1.377   7.637   4.489  0.4890  1.2379  0.6099
  205MOL    C6541273   1.368   7.613   4.339  0.3956  0.3131 -0.3242
  205MOL    H6641274   1.341   7.440   4.558 -0.3649  0.6506 -1.5316
  205MOL    H6741275   1.505   7.473   4.516  0.1794 -2.8491  1.3997
  205MOL    H6841276   1.289   7.680   4.537 -0.3416 -0.7218  0.8811
  205MOL    H6941277   1.449   7.715   4.511 -0.4830  2.7066 -1.2807
  205MOL    H7041278   1.312   7.520   4.323  0.0372  0.5139 -0.2549
  205MOL    H7141279   1.465   7.587   4.298  0.5513 -2.7141  1.8011
  205MOL    O7241280   1.320   7.726   4.271  0.8871 -0.3021  0.0026
  205MOL    C7341281   1.320   7.732   4.126  0.5180  0.3977 -0.0708
  205MOL    C7441282   1.269   0.079   4.088 -0.0431 -0.0798  0.4796
  205MOL    C7541283   1.292   0.100   3.941  0.9027 -0.3775  0.6068
  205MOL    H7641284   1.268   7.647   4.081 -1.7058  1.4091  0.4962
  205MOL    H7741285   1.419   7.711   4.085  0.7294 -0.6593  0.9507
  205MOL    H7841286   1.161   0.079   4.103 -0.0940 -2.0649  0.1342
  205MOL    H7941287   1.324   0.156   4.142 -0.8372  0.0009  1.1826
  205MOL    H8041288   1.222   0.177   3.908 -0.0163 -0.6556  1.8577
  205MOL    H8141289   1.252   0.008   3.899  2.6904 -0.8461 -0.1319
  205MOL    O8241290   1.423   0.119   3.912 -0.0059 -0.4156 -0.2905
  205MOL    C8341291   1.458   0.071   3.789 -0.2517 -1.3128 -0.3014
  205MOL    C8441292   1.496   7.717   3.806 -1.0891  0.5705 -0.0192
  205MOL    C8541293   1.625   7.696   3.893  0.2707 -0.0232  0.1101
  205MOL    H8641294   1.554   0.114   3.762  0.7318 -1.0810  3.2870
  205MOL    H8741295   1.388   0.093   3.708  1.0796  0.9354 -0.8601
  205MOL    H8841296   1.413   7.654   3.839 -1.1852  0.1586 -1.0361
  205MOL    H8941297   1.521   7.690   3.703  1.0799 -0.1179  0.6469
  205MOL    H9041298   1.607   7.724   3.997 -0.2394 -2.8534  0.8392
  205MOL    H9141299   1.707   7.755   3.851  0.7013 -2.3312 -2.4593
  205MOL    O9241300   1.648   7.555   3.884  0.2784 -0.1858 -0.5765
  205MOL    C9341301   1.775   7.516   3.902 -0.9331 -0.8934  0.5710
  205MOL    C9441302   1.806   7.452   3.762 -0.6319  0.0675  0.4666
  205MOL    C9541303   1.936   7.372   3.770  0.0518  0.4636 -0.2196
  205MOL    H9641304   1.778   7.433   3.973 -0.9087 -1.6772 -0.3332
  205MOL    H9741305   1.841   7.595   3.939  1.0507 -2.5132  0.5799
  205MOL    H9841306   1.724   7.390   3.729 -1.4343  0.9147  0.8379
  205MOL    H9941307   1.827   7.526   3.684  2.3640 -0.2985  0.8442
  205MOL   H10041308   1.958   7.307   3.685 -1.0898 -0.3480  0.0823
  205MOL   H10141309   1.919   7.297   3.848  0.4804 -0.0436 -0.6086
  205MOL   O10241310   2.043   7.454   3.810  0.4275  0.5293 -0.2298
  205MOL   C10341311   2.167   7.380   3.816  0.3373  0.1344  0.2047
  205MOL   C10441312   2.284   7.465   3.864 -0.0123  0.3512 -0.1573
  205MOL   C10541313   2.413   7.387   3.889 -0.2880 -0.4518  0.6487
  205MOL   H10641314   2.189   7.356   3.712 -1.4255 -1.2855  0.1490
  205MOL   H10741315   2.159   7.288   3.873  0.5714  0.1462  0.2587
  205MOL   H10841316   2.303   7.543   3.790  0.2367  0.7155  0.2868
  205MOL   H10941317   2.252   7.533   3.942  1.1498  1.0564 -0.2773
  205MOL   H11041318   2.445   7.327   3.804 -1.9380  2.1144 -1.8556
  205MOL   H11141319   2.380   7.306   3.955 -2.9688  1.6353  1.9525
  205MOL   O11241320   2.516   7.467   3.952 -0.5118  0.0637  0.1615
  205MOL   C11341321   2.632   7.394   3.990  0.3645  0.8435  0.8146
  205MOL   C11441322   2.733   7.479   4.055 -0.0352  0.2133  0.1364
  205MOL   C11541323   2.867   7.409   4.074  0.3983 -1.1003  0.3660
  205MOL   H11641324   2.673   7.352   3.898 -0.5073  0.0164  0.8057
  205MOL   H11741325   2.623   7.311   4.059  0.9109 -0.1009 -0.2337
  205MOL   H11841326   2.745   7.568   3.994 -0.5148 -0.4104 -0.8856
  205MOL   H11941327   2.696   7.513   4.151  0.5182  1.6687 -0.1516
  205MOL   H12041328   2.942   7.487   4.089  0.2815 -0.7623 -0.7905
  205MOL   H12141329   2.884   7.359   3.979 -0.2533 -0.8025  0.0898
  205MOL   O12241330   2.855   7.322   4.180 -0.0108  0.4235  0.6406
  205MOL   C12341331   2.916   7.203   4.148  0.2587 -0.5569  0.1688
  205MOL   C12441332   3.068   7.225   4.130  0.5464  0.1123 -0.1295
  205MOL   C12541333   3.144   7.096   4.124  0.1880 -0.2050 -0.5015
  205MOL   H12641334   2.864   7.155   4.065  0.1762  1.6485 -1.0955
  205MOL   H12741335   2.909   7.130   4.228  0.0027 -0.2486  0.4259
  205MOL   H12841336   3.088   7.277   4.036 -1.2743  1.1192  0.0134
  205MOL   H12941337   3.104   7.287   4.212  1.1856 -0.3823 -0.0355
  205MOL   H13041338   3.117   7.041   4.034 -0.1218 -1.5014  0.3801
  205MOL   H13141339   3.123   7.026   4.204 -1.7814 -0.8613 -1.5652
  205MOL   O13241340   3.285   7.123   4.126 -0.4252  0.2735 -0.1376
  205MOL   C13341341   3.376   7.015   4.112 -0.7421  0.1494 -0.1311
  205MOL   C13441342   3.422   7.039   3.969  0.1064 -0.6579 -0.8167
  205MOL   C13541343   3.505   6.921   3.927 -0.8301 -0.2251  0.8746
  205MOL   H13641344   3.337   6.914   4.122  2.7585 -1.2194  0.5374
  205MOL   H13741345   3.459   7.017   4.183  0.7535 -0.4819 -1.8060
  205MOL   H13841346   3.336   7.044   3.902  1.3193  2.5038 -2.2234
  205MOL   H13941347   3.482   7.130   3.966 -0.7597 -0.0410  0.0842
  205MOL   H14041348   3.442   6.834   3.908 -0.7784  0.1232 -1.0480
  205MOL   H14141349   3.567   6.887   4.010  0.4330 -1.0125 -0.3669
  205MOL   O14241350   3.593   6.965   3.823 -0.2652  0.0560 -0.5894
  205MOL   C14341351   3.630   6.854   3.742  0.1783  0.7007 -0.5398
  205MOL   C14441352   3.696   6.912   3.620 -0.1872 -0.1515  1.1424
  205MOL   C14541353   3.729   6.800   3.517 -0.0049  0.0480  0.1620
  205MOL   H14641354   3.542   6.796   3.714  1.2650 -1.1994 -0.1560
  205MOL   H14741355   3.689   6.779   3.796 -0.1535 -1.1087 -2.5988
  205MOL   H14841356   3.627   6.979   3.568  0.8569  0.5463  0.6318
  205MOL   H14941357   3.782   6.974   3.647 -0.3327  0.2064  0.7996
  205MOL   H15041358   3.796   6.727   3.561 -1.8897 -1.9140 -0.1097
  205MOL   H15141359   3.759   6.835   3.418  1.5970  1.3704  1.0999
  205MOL   O15241360   3.610   6.724   3.493  0.1352  0.0924  0.6217
  205MOL   C15341361   3.601   6.652   3.368 -0.2522  0.2881 -0.4016
  205MOL   C15441362   3.708   6.537   3.356 -0.1771  0.4483 -0.0299
  205MOL   C15541363   3.680   6.442   3.233  0.4623 -0.2274 -0.3648
  205MOL   H15641364   3.605   6.722   3.285  0.8045  1.8650  0.9467
  205MOL   H15741365   3.504   6.602   3.371 -1.9428  3.3892 -0.2399
  205MOL   H15841366   3.814   6.562   3.345  0.0646 -0.3999  0.2992
  205MOL   H15941367   3.698   6.465   3.438  2.0246  1.2338  0.9821
  205MOL   H16041368   3.657   6.507   3.148 -0.0475 -0.4206 -0.3757
  205MOL   H16141369   3.593   6.382   3.259 -0.8432  1.1437 -1.4244
  205MOL   O16241370   3.789   6.359   3.211 -0.2636 -0.2623 -0.1759
  205MOL   C16341371   3.759   6.282   3.094  0.2181  0.3326  0.2590
  205MOL   C16441372   3.877   6.201   3.057  0.0291 -0.1349  0.5194
  205MOL   C16541373   3.851   6.125   2.925 -0.2997 -0.1524  0.1958
  205MOL   H16641374   3.727   6.347   3.012 -1.3666 -0.9383 -0.1338
  205MOL   H16741375   3.670   6.220   3.106  1.0750 -0.8773  0.4631
  205MOL   H16841376   3.960   6.271   3.051  0.9648 -1.2782 -0.2431
  205MOL   H16941377   3.903   6.142   3.145  1.8928 -2.6765 -1.6601
  205MOL   H17041378   3.842   6.198   2.844  1.4621 -0.6659 -0.5036
  205MOL   H17141379   3.759   6.068   2.937 -1.4989  1.7045  0.0364
  205MOL   O17241380   3.957   6.035   2.906  0.3415  0.0032 -0.4558
  205MOL   C17341381   3.951   5.965   2.786 -0.2999  0.7792 -0.0129
  205MOL   C17441382   4.093   5.971   2.732 -0.4345  0.0565 -0.7770
  205MOL   C17541383   4.103   5.892   2.597 -0.4380 -0.3397 -0.6856
  205MOL   H17641384   3.897   6.020   2.709  0.1593  0.1155 -0.8072
  205MOL   H17741385   3.917   5.862   2.783  0.4077  0.5903 -2.5872
  205MOL   H17841386   4.120   6.075   2.719 -1.6121  0.4168 -0.4301
  205MOL   H17941387   4.158   5.928   2.809 -1.1063  0.4489  0.0238
  205MOL   H18041388   4.032   5.941   2.530  1.1835  2.1117 -0.6922
  205MOL   H18141389   4.079   5.788   2.617 -1.4287  0.1987  1.0106
  205MOL   O18241390   4.235   5.906   2.552  0.1619  0.3700  0.4583
  205MOL   C18341391   4.307   5.779   2.562  0.6098  0.0433  0.1231
  205MOL   C18441392   4.352   5.752   2.711  0.8512  0.5939  0.7047
  205MOL   C18541393   4.449   5.856   2.770 -0.2179 -0.1841 -0.4664
  205MOL   H18641394   4.391   5.793   2.493  0.0542  1.1680 -0.3465
  205MOL   H18741395   4.247   5.702   2.514 -0.4464 -0.7398  2.6172
  205MOL   H18841396   4.267   5.740   2.779 -0.7862 -0.0364 -1.4153
  205MOL   H18941397   4.399   5.654   2.714 -0.1106  0.1102  0.2917
  205MOL   H19041398   4.402   5.937   2.826 -1.1399  0.6920 -2.4814
  205MOL   H19141399   4.503   5.902   2.688  1.6754 -0.4342  0.6248
  205MOL   O19241400   4.538   5.781   2.851  0.2471  0.1827 -0.0371
  205MOL   C19341401   4.655   5.845   2.889  0.3747  0.0140 -0.0333
  205MOL   C19441402   4.752   5.847   2.766  0.1021  0.3080 -0.2731
  205MOL   C19541403   4.792   5.702   2.725  0.8836 -0.0951  0.4806
  205MOL   H19641404   4.710   5.785   2.962  0.3733 -0.0639 -0.0971
  205MOL   H19741405   4.632   5.945   2.926 -1.3286 -0.7407  0.9916
  205MOL   H19841406   4.692   5.894   2.688 -1.6767 -3.5118 -1.3137
  205MOL   H19941407   4.842   5.903   2.789 -0.0174  0.2606  0.3315
  205MOL   H20041408   4.868   5.700   2.647  0.0495  0.7292 -0.3551
  205MOL   H20141409   4.711   5.635   2.699  1.0453 -0.2906  0.4743
  205MOL   H20241410   4.846   5.662   2.811  1.5971 -0.8517 -0.3081
  206MOL     O141411   3.309   3.518   5.775  0.2927  0.4067  0.2639
  206MOL     C241412   3.292   3.624   5.865  0.0067 -0.0849 -0.4333
  206MOL     C341413   3.217   3.747   5.800  0.0656 -0.3913 -0.4721
  206MOL     C441414   3.316   3.829   5.713 -0.6534 -0.0709  0.2044
  206MOL     H541415   3.391   3.659   5.894  0.2965 -0.2034 -1.2700
  206MOL     H641416   3.241   3.582   5.952  1.7262 -1.4836 -0.0835
  206MOL     H741417   3.119   3.729   5.756 -1.1789  2.0871  1.1572
  206MOL     H841418   3.188   3.818   5.877  0.1430 -1.0725  0.1982
  206MOL     H941419   3.383   3.895   5.768 -0.7733 -0.4656  0.8290
  206MOL    H1041420   3.266   3.904   5.652 -0.3367  2.7173  3.2317
  206MOL    H1141421   3.358   3.556   5.704  0.2046  1.0449  0.5442
  206MOL    O1241422   3.395   3.745   5.636  0.4178 -0.1107 -0.2212
  206MOL    C1341423   3.521   3.803   5.605  0.6634  0.0038  0.3623
  206MOL    C1441424   3.588   3.719   5.495 -0.5431 -0.0086 -0.2066
  206MOL    C1541425   3.724   3.778   5.453 -0.1538 -0.5122  0.4047
  206MOL    H1641426   3.587   3.811   5.691  0.9838 -1.4408  0.2786
  206MOL    H1741427   3.498   3.900   5.563 -2.1357 -0.2469  1.2698
  206MOL    H1841428   3.598   3.620   5.540  0.1722  0.7371  1.3252
  206MOL    H1941429   3.526   3.706   5.407  0.1768 -1.1137 -0.5698
  206MOL    H2041430   3.716   3.878   5.411 -0.0517  0.0394  1.6698
  206MOL    H2141431   3.768   3.706   5.383 -1.3260  1.0595 -2.0259
  206MOL    O2241432   3.802   3.770   5.574  0.2471 -0.3628 -0.3529
  206MOL    C2341433   3.941   3.791   5.542  0.1432  0.0899  0.1059
  206MOL    C2441434   4.032   3.768   5.662  0.0079 -0.1884  0.1446
  206MOL    C2541435   4.191   3.748   5.638  1.3335 -0.0673  0.4593
  206MOL    H2641436   3.938   3.894   5.507 -0.4718  0.1678  0.3775
  206MOL    H2741437   3.976   3.732   5.457 -2.5098 -0.0138 -0.9364
  206MOL    H2841438   4.005   3.858   5.718  1.7541  0.1145  0.5343
  206MOL    H2941439   3.989   3.682   5.713 -0.4155  1.1137  2.0311
  206MOL    H3041440   4.231   3.809   5.557  1.7139 -1.0449 -0.0882
  206MOL    H3141441   4.207   3.649   5.596  3.3667  0.3808  0.1473
  206MOL    O3241442   4.257   3.752   5.766  0.5204 -0.3587 -0.5092
  206MOL    C3341443   4.398   3.739   5.760 -0.1887 -0.5830  0.2188
  206MOL    C3441444   4.466   3.734   5.901 -0.2104 -0.2325  0.6428
  206MOL    C3541445   4.616   3.714   5.890 -0.6001  0.1236 -0.6526
  206MOL    H3641446   4.441   3.817   5.697 -1.1028 -0.6960 -0.5570
  206MOL    H3741447   4.408   3.639   5.718  0.4325 -0.7598  0.7822
  206MOL    H3841448   4.456   3.832   5.947  1.6075  0.2786 -0.0324
  206MOL    H3941449   4.417   3.655   5.959  1.1661 -1.5642  0.0262
  206MOL    H4041450   4.661   3.804   5.848  0.9996 -0.7525 -0.8502
  206MOL    H4141451   4.636   3.630   5.824 -1.6456 -1.2363  0.7092
  206MOL    O4241452   4.660   3.686   6.022 -0.1119 -0.4890 -0.3574
  206MOL    C4341453   4.797   3.712   6.040 -0.3725  0.7301 -0.3404
  206MOL    C4441454   4.814   3.862   6.071  0.0188  0.4658 -0.6092
  206MOL    C4541455   4.947   3.919   6.037  0.0758 -0.0091  1.1174
  206MOL    H4641456   4.852   3.681   5.951  0.7551 -0.5560  0.7773
  206MOL    H4741457   4.838   3.661   6.127  0.6804  1.1745 -0.5664
  206MOL    H4841458   4.742   3.921   6.014 -1.7731 -1.2500 -0.2036
  206MOL    H4941459   4.796   3.885   6.176  2.3689  1.6330 -0.4296
  206MOL    H5041460   4.970   3.900   5.932  0.3954 -0.4443  1.2668
  206MOL    H5141461   5.022   3.872   6.100  0.5561  3.1358  3.0244
  206MOL    O5241462   4.948   4.061   6.066  0.1908  0.3209  0.0989
  206MOL    C5341463   5.080   4.114   6.089 -0.1615 -0.5290 -0.2567
  206MOL    C5441464   5.059   4.253   6.148 -0.2882  0.1117  0.2559
  206MOL    C5541465   5.065   4.269   6.303 -0.0531 -0.4916  0.5038
  206MOL    H5641466   5.132   4.119   5.994 -0.2114 -0.3517 -0.2726
  206MOL    H5741467   5.142   4.053   6.154  0.6898  1.0751  0.4533
  206MOL    H5841468   5.127   4.321   6.096 -1.9158 -0.2869 -2.4575
  206MOL    H5941469   4.974   4.304   6.102 -1.9178 -3.3216 -0.7301
  206MOL    H6041470   5.061   4.370   6.344  2.8318  1.1104 -2.8872
  206MOL    H6141471   5.164   4.243   6.341 -0.3877 -0.5135  1.3894
  206MOL    O6241472   4.980   4.182   6.371  0.6200  0.1331  0.7309
  206MOL    C6341473   4.838   4.219   6.346 -0.3830  0.1363  0.8533
  206MOL    C6441474   4.746   4.121   6.411 -0.4981  0.0498  0.2097
  206MOL    C6541475   4.596   4.131   6.380  0.3676  0.1420  0.5326
  206MOL    H6641476   4.815   4.209   6.240  0.6990  2.7394  0.3393
  206MOL    H6741477   4.820   4.321   6.380 -0.6192  1.0244 -1.8589
  206MOL    H6841478   4.781   4.026   6.371  0.4268  1.1583 -1.6952
  206MOL    H6941479   4.757   4.122   6.520 -1.7003 -0.8015  0.3488
  206MOL    H7041480   4.548   4.035   6.396 -0.1667  0.2672 -0.2418
  206MOL    H7141481   4.576   4.161   6.277 -2.0643 -1.9585  0.3548
  206MOL    O7241482   4.546   4.237   6.457  0.4593 -0.1237  0.8874
  206MOL    C7341483   4.400   4.228   6.459  0.3384  0.2081 -0.2167
  206MOL    C7441484   4.319   4.355   6.505  0.4691 -0.4656  1.2189
  206MOL    C7541485   4.176   4.348   6.455 -0.0034  0.2616 -0.0405
  206MOL    H7641486   4.366   4.146   6.522  0.4167  1.3663  1.3666
  206MOL    H7741487   4.367   4.215   6.355  2.9043  0.1850 -1.0648
  206MOL    H7841488   4.328   4.372   6.612 -0.5080 -1.4253  1.4616
  206MOL    H7941489   4.363   4.445   6.463 -1.9507  0.5253  0.7302
  206MOL    H8041490   4.142   4.250   6.488 -0.3653 -0.1882 -1.7008
  206MOL    H8141491   4.167   4.361   6.347  1.0853  1.2542 -0.0193
  206MOL    O8241492   4.101   4.450   6.520 -0.3436  0.0698  0.1724
  206MOL    C8341493   3.964   4.435   6.521  0.1852  0.4685 -0.4259
  206MOL    C8441494   3.900   4.553   6.601  0.4967  0.2373 -0.5123
  206MOL    C8541495   3.856   4.671   6.509 -0.0322  0.9379  0.1684
  206MOL    H8641496   3.946   4.336   6.564  1.6288  0.4320  0.1237
  206MOL    H8741497   3.934   4.447   6.417  1.7284  0.3395 -0.8945
  206MOL    H8841498   3.813   4.525   6.662  1.0768  0.6641  0.5227
  206MOL    H8941499   3.980   4.597   6.660  0.6814  1.0032 -1.3380
  206MOL    H9041500   3.763   4.644   6.460 -1.1190  2.6087  1.2419
  206MOL    H9141501   3.940   4.690   6.442  0.3232 -2.0284 -0.2697
  206MOL    O9241502   3.826   4.783   6.598  0.1023  0.0851 -0.4538
  206MOL    C9341503   3.809   4.903   6.532 -0.4767  0.0591 -0.0469
  206MOL    C9441504   3.844   5.021   6.633 -0.6263  0.6411  0.1456
  206MOL    C9541505   3.861   5.154   6.559 -0.5858 -0.8117  0.2519
  206MOL    H9641506   3.717   4.902   6.473 -0.3792 -1.2452 -0.1764
  206MOL    H9741507   3.891   4.915   6.461 -0.5321  1.2231  0.0699
  206MOL    H9841508   3.770   5.025   6.712 -1.7179 -0.8203 -0.7671
  206MOL    H9941509   3.934   5.009   6.692  0.0542  1.3838 -0.7246
  206MOL   H10041510   3.768   5.191   6.516 -0.3318  1.4739  1.5879
  206MOL   H10141511   3.924   5.142   6.471 -2.9717  0.8483 -1.7406
  206MOL   O10241512   3.902   5.258   6.652 -0.0165  0.0429 -0.4493
  206MOL   C10341513   4.045   5.264   6.655  0.1038 -0.2975 -0.1980
  206MOL   C10441514   4.105   5.362   6.548  0.1031  0.3234 -0.0023
  206MOL   C10541515   4.262   5.344   6.533 -0.2145  0.3431 -0.6731
  206MOL   H10641516   4.085   5.164   6.638  0.3067 -0.2215 -0.1643
  206MOL   H10741517   4.067   5.287   6.759 -2.5760 -0.6827  0.4738
  206MOL   H10841518   4.077   5.332   6.447 -0.4048 -2.4338  0.9372
  206MOL   H10941519   4.077   5.467   6.552 -2.4253 -0.3419  0.1875
  206MOL   H11041520   4.305   5.394   6.446 -1.1075  0.9885 -0.7497
  206MOL   H11141521   4.295   5.240   6.525  1.6658  0.7896  1.0151
  206MOL   O11241522   4.314   5.409   6.648  0.3981 -0.1027 -0.0649
  206MOL   C11341523   4.454   5.374   6.660  0.5761 -0.1293  0.2596
  206MOL   C11441524   4.535   5.475   6.577  0.3790 -0.2250 -0.0945
  206MOL   C11541525   4.686   5.471   6.620  0.1238 -0.1736  0.0614
  206MOL   H11641526   4.485   5.272   6.635 -0.4090 -0.7000  1.2942
  206MOL   H11741527   4.491   5.396   6.760  1.7386 -1.1350  0.0606
  206MOL   H11841528   4.532   5.458   6.470 -0.4496  0.8421 -0.2474
  206MOL   H11941529   4.480   5.567   6.595  1.6214  0.3328  0.9530
  206MOL   H12041530   4.695   5.485   6.728  1.0837  1.0891 -0.1814
  206MOL   H12141531   4.742   5.548   6.569 -2.2013  0.2912 -1.9011
  206MOL   O12241532   4.733   5.344   6.571 -0.0859 -0.6133  0.2658
  206MOL   C12341533   4.872   5.327   6.589  0.0947 -0.0324 -0.0017
  206MOL   C12441534   4.924   5.197   6.539 -0.1466  0.2689  0.0773
  206MOL   C12541535   4.870   5.090   6.634  0.1817  0.3442  0.0257
  206MOL   H12641536   4.885   5.335   6.696  1.7222 -1.5552 -0.0718
  206MOL   H12741537   4.921   5.412   6.540 -1.1066  1.5524  1.5036
  206MOL   H12841538   4.880   5.183   6.440 -1.3380  1.1410  0.4818
  206MOL   H12941539   5.026   5.193   6.500 -0.9248 -2.5955 -1.8792
  206MOL   H13041540   4.763   5.101   6.650  0.1838 -1.9314  1.8483
  206MOL   H13141541   4.911   5.098   6.735  0.4823  0.0176 -0.0689
  206MOL   O13241542   4.902   4.964   6.584 -0.2512  0.2356  0.1029
  206MOL   C13341543   4.825   4.861   6.647  0.2117 -0.0633  0.0532
  206MOL   C13441544   4.690   4.835   6.569  0.5301  0.1438  0.2296
  206MOL   C13541545   4.713   4.774   6.435 -0.0391 -0.1051  0.4207
  206MOL   H13641546   4.815   4.883   6.754  0.5384 -0.3713  0.1496
  206MOL   H13741547   4.885   4.769   6.647  0.0910 -0.1694  1.8476
  206MOL   H13841548   4.641   4.763   6.635  0.6038 -1.2270 -1.1882
  206MOL   H13941549   4.625   4.922   6.561 -0.3402 -0.7510 -3.0164
  206MOL   H14041550   4.781   4.689   6.442  0.1657  0.0162 -0.0640
  206MOL   H14141551   4.775   4.847   6.382 -0.5235  0.4179  0.5688
  206MOL   O14241552   4.593   4.746   6.353 -0.0543 -0.2200 -0.2671
  206MOL   C14341553   4.626   4.711   6.212  0.1452 -0.0744 -0.2579
  206MOL   C14441554   4.651   4.560   6.187  0.0205  0.6178  0.0110
  206MOL   C14541555   4.702   4.525   6.042  0.0019  0.1723 -0.0603
  206MOL   H14641556   4.723   4.755   6.188 -0.1246  1.9140  2.0463
  206MOL   H14741557   4.547   4.748   6.147 -0.4991 -0.3143  0.3820
  206MOL   H14841558   4.718   4.526   6.266 -1.5341 -2.6033  0.0335
  206MOL   H14941559   4.560   4.506   6.215  0.1512  0.5730  0.3518
  206MOL   H15041560   4.784   4.589   6.008 -0.7082  0.7386 -0.7226
  206MOL   H15141561   4.623   4.555   5.973  0.7568  0.7357 -0.6944
  206MOL   O15241562   4.733   4.392   6.036  0.5252  0.1639 -0.0487
  206MOL   C15341563   4.742   4.344   5.894  0.2275 -0.3237  0.1555
  206MOL   C15441564   4.596   4.305   5.859 -0.1722  0.7059 -0.1523
  206MOL   C15541565   4.525   4.207   5.958 -0.4894  0.2555  0.2062
  206MOL   H15641566   4.809   4.259   5.880 -2.4993 -2.2913 -1.5383
  206MOL   H15741567   4.776   4.429   5.834 -0.0355  0.3486  0.9567
  206MOL   H15841568   4.549   4.403   5.846 -0.1326  0.7408 -0.0276
  206MOL   H15941569   4.580   4.266   5.758 -1.6668  1.6077 -0.2831
  206MOL   H16041570   4.516   4.243   6.060 -0.7766 -1.4044  0.7819
  206MOL   H16141571   4.588   4.118   5.960  2.1130  2.0151 -0.8578
  206MOL   O16241572   4.395   4.181   5.901  0.4536  0.1042 -0.0903
  206MOL   C16341573   4.310   4.100   5.981 -0.1658  0.0824  0.0515
  206MOL   C16441574   4.194   4.044   5.892  0.4112 -0.1675  0.2635
  206MOL   C16541575   4.102   4.163   5.860 -0.0821  0.4414 -0.3141
  206MOL   H16641576   4.268   4.162   6.060  0.8962  1.4025 -0.4002
  206MOL   H16741577   4.357   4.019   6.036  2.0402  1.9484  0.9706
  206MOL   H16841578   4.232   3.997   5.801  0.9838 -1.6850  1.2567
  206MOL   H16941579   4.140   3.966   5.946 -0.6064  1.0640  1.0470
  206MOL   H17041580   4.148   4.216   5.776 -1.1647  1.9124 -0.0088
  206MOL   H17141581   4.101   4.229   5.947  1.0627 -1.2619  1.0230
  206MOL   O17241582   3.968   4.122   5.823 -0.8849  0.0273 -0.3279
  206MOL   C17341583   3.867   4.216   5.851  0.0347 -0.3016  0.4812
  206MOL   C17441584   3.740   4.186   5.774  0.3540  0.4285  0.2475
  206MOL   C17541585   3.747   4.205   5.624  0.3457 -0.0512 -0.5550
  206MOL   H17641586   3.902   4.314   5.820 -1.5110  0.2457  0.4097
  206MOL   H17741587   3.853   4.233   5.958  0.6992  1.3882  0.3204
  206MOL   H17841588   3.706   4.084   5.796 -2.1360  1.4136  1.1545
  206MOL   H17941589   3.662   4.249   5.816  1.3388  2.4370 -0.8911
  206MOL   H18041590   3.836   4.166   5.574  0.9634 -0.0290  0.5136
  206MOL   H18141591   3.766   4.309   5.600  0.6023  0.3383  1.2774
  206MOL   O18241592   3.633   4.145   5.550 -0.7269  0.4148 -0.2579
  206MOL   C18341593   3.656   4.148   5.409 -0.4084  0.6574  0.0071
  206MOL   C18441594   3.546   4.097   5.316 -0.5549 -0.1080  0.0004
  206MOL   C18541595   3.596   4.086   5.168 -0.6439  1.1177  0.4801
  206MOL   H18641596   3.749   4.091   5.401  0.8779  2.4792  1.4664
  206MOL   H18741597   3.663   4.252   5.377 -1.3571  0.2464 -1.5508
  206MOL   H18841598   3.519   3.997   5.349  0.5774 -0.9852 -1.6309
  206MOL   H18941599   3.455   4.155   5.325 -0.7863 -0.4452 -0.1465
  206MOL   H19041600   3.612   4.187   5.130 -2.6052  1.0886 -0.4551
  206MOL   H19141601   3.508   4.043   5.121 -1.2478  2.1700  0.6212
  206MOL   O19241602   3.707   3.992   5.153 -0.0526 -0.0852 -0.0585
  206MOL   C19341603   3.812   4.062   5.085 -0.3384  0.0443 -0.6397
  206MOL   C19441604   3.942   3.978   5.083  0.0710 -0.4406  0.3422
  206MOL   C19541605   3.986   3.912   5.210 -0.1623 -0.2410  0.3960
  206MOL   H19641606   3.820   4.157   5.139 -3.3597  0.2959 -0.5592
  206MOL   H19741607   3.780   4.098   4.987 -0.8643  0.9217 -0.1599
  206MOL   H19841608   3.940   3.915   4.994  1.4242 -0.9723  0.6738
  206MOL   H19941609   4.022   4.050   5.063 -1.4567  1.3312  0.4956
  206MOL   H20041610   4.092   3.892   5.194 -0.2246 -0.6065  0.4163
  206MOL   H20141611   3.937   3.818   5.234 -0.5874 -0.2814 -0.6220
  206MOL   H20241612   3.971   3.976   5.296  1.4295 -0.4585  0.8613
  207MOL     O141613   2.313   5.849   3.733 -0.1983 -0.1908 -0.5683
  207MOL     C241614   2.347   5.713   3.738 -0.0322  0.0926 -0.8231
  207MOL     C341615   2.401   5.684   3.881  0.1469  0.4101  0.3889
  207MOL     C441616   2.459   5.538   3.893  0.2982 -0.2634 -0.0313
  207MOL     H541617   2.420   5.709   3.658  0.7669  2.5774 -0.2588
  207MOL     H641618   2.261   5.646   3.731 -0.0274  0.2460 -2.4632
  207MOL     H741619   2.481   5.757   3.897  0.7820 -0.3720  0.8113
  207MOL     H841620   2.321   5.699   3.953 -1.4304 -2.9174 -0.5951
  207MOL     H941621   2.383   5.465   3.923 -0.4173  1.0716  1.4284
  207MOL    H1041622   2.524   5.531   3.980  0.2374 -0.0725  0.0288
  207MOL    H1141623   2.248   5.864   3.666  1.2202 -0.0256 -1.9208
  207MOL    O1241624   2.542   5.518   3.779 -0.2602  0.6179  0.4799
  207MOL    C1341625   2.609   5.389   3.777  0.1036  0.2749 -0.2822
  207MOL    C1441626   2.638   5.337   3.634  0.2400 -0.1699 -0.6529
  207MOL    C1541627   2.666   5.188   3.647  0.4315  0.4118 -0.2437
  207MOL    H1641628   2.535   5.326   3.828  1.9130 -0.3139  1.7145
  207MOL    H1741629   2.681   5.398   3.858  0.7953  0.2395 -0.8969
  207MOL    H1841630   2.555   5.369   3.571  1.3163  2.0943 -0.9642
  207MOL    H1941631   2.731   5.381   3.597  0.8091 -1.5021 -0.8487
  207MOL    H2041632   2.572   5.141   3.676 -0.1561  1.3356 -0.6032
  207MOL    H2141633   2.731   5.170   3.733  0.7155  1.6922 -0.1802
  207MOL    O2241634   2.715   5.121   3.530  0.3132 -0.1298  0.4603
  207MOL    C2341635   2.758   4.991   3.538 -0.0351  0.4505  0.4358
  207MOL    C2441636   2.645   4.889   3.506 -0.2489 -0.3244  0.6987
  207MOL    C2541637   2.697   4.751   3.503  0.4849 -0.7443  0.5231
  207MOL    H2641638   2.812   4.975   3.632 -0.1225  0.6859  0.5275
  207MOL    H2741639   2.837   4.987   3.464 -0.5735 -0.8024 -0.0726
  207MOL    H2841640   2.558   4.916   3.567 -1.0622  0.1900 -0.6582
  207MOL    H2941641   2.594   4.906   3.411 -0.8092 -1.0983  0.8572
  207MOL    H3041642   2.692   4.699   3.598  0.1530 -1.1836  0.2671
  207MOL    H3141643   2.799   4.752   3.464  0.4289  0.8225  0.4081
  207MOL    O3241644   2.619   4.667   3.414  0.1889  0.0795  0.2029
  207MOL    C3341645   2.648   4.528   3.422  0.5230  0.3336  0.9408
  207MOL    C3441646   2.558   4.460   3.312  0.7590  0.6145 -0.0734
  207MOL    C3541647   2.575   4.311   3.309 -0.3848  0.3548  0.1703
  207MOL    H3641648   2.609   4.498   3.519 -0.9978 -3.6884 -0.7684
  207MOL    H3741649   2.756   4.512   3.419  0.3658 -0.9344  1.6978
  207MOL    H3841650   2.464   4.491   3.357  0.6846 -0.5360  0.6054
  207MOL    H3941651   2.579   4.497   3.212  0.0024 -0.7964 -0.7731
  207MOL    H4041652   2.561   4.273   3.410  1.4007  1.4094  0.8442
  207MOL    H4141653   2.669   4.280   3.263 -0.6707  0.7275 -0.6766
  207MOL    O4241654   2.465   4.252   3.244 -0.1950 -0.2394 -0.2631
  207MOL    C4341655   2.470   4.242   3.101  0.0932  0.5512 -0.0594
  207MOL    C4441656   2.334   4.219   3.042 -0.2205 -0.1400  0.4385
  207MOL    C4541657   2.234   4.327   3.086  0.0717 -0.0192  0.6115
  207MOL    H4641658   2.538   4.161   3.078  2.1112  1.7031  1.6818
  207MOL    H4741659   2.514   4.330   3.053  3.0171 -0.0701  1.4041
  207MOL    H4841660   2.344   4.228   2.934  2.8612 -3.4898  0.3321
  207MOL    H4941661   2.304   4.116   3.057  0.5243 -0.6813 -1.7061
  207MOL    H5041662   2.223   4.323   3.194 -1.4533 -0.3203  0.4585
  207MOL    H5141663   2.138   4.316   3.034  0.6550  0.5592 -0.6164
  207MOL    O5241664   2.286   4.445   3.027 -0.2014 -0.0029 -0.3718
  207MOL    C5341665   2.203   4.564   3.058 -0.4361 -0.1282 -0.5177
  207MOL    C5441666   2.301   4.681   3.058  0.3390  0.1978 -0.7592
  207MOL    C5541667   2.237   4.815   3.084 -0.1565 -0.2509 -0.6179
  207MOL    H5641668   2.150   4.546   3.152 -0.7457 -3.1789 -1.2216
  207MOL    H5741669   2.130   4.587   2.980 -0.8684  2.1914  0.5203
  207MOL    H5841670   2.379   4.655   3.130  1.4709 -0.6810 -2.2755
  207MOL    H5941671   2.349   4.682   2.960  0.3198  0.7816 -0.7585
  207MOL    H6041672   2.195   4.804   3.184 -2.0774  0.5568 -1.3068
  207MOL    H6141673   2.164   4.837   3.006  0.5799 -0.1364 -1.2918
  207MOL    O6241674   2.331   4.916   3.096 -0.4246 -0.2815 -0.2679
  207MOL    C6341675   2.276   5.032   3.139 -0.3928 -0.3324 -0.8510
  207MOL    C6441676   2.379   5.142   3.149 -0.5053  1.0880 -0.5667
  207MOL    C6541677   2.307   5.279   3.171  0.0394  0.1708  0.0559
  207MOL    H6641678   2.222   5.036   3.234 -1.0679 -1.5463 -1.1640
  207MOL    H6741679   2.193   5.058   3.074 -1.2419  2.4371  1.2471
  207MOL    H6841680   2.447   5.128   3.233 -0.3052 -2.1529 -1.2283
  207MOL    H6941681   2.435   5.141   3.055 -0.7820  0.9165 -0.7295
  207MOL    H7041682   2.257   5.277   3.268 -0.6621 -1.9239 -0.3266
  207MOL    H7141683   2.228   5.302   3.099 -0.7537 -1.7431  0.2768
  207MOL    O7241684   2.396   5.380   3.175 -0.1669 -0.5542 -0.1941
  207MOL    C7341685   2.476   5.403   3.287  0.0736  0.5503  0.4623
  207MOL    C7441686   2.545   5.544   3.265  0.7082  0.0913 -0.2392
  207MOL    C7541687   2.681   5.566   3.340  0.2092  0.3561 -0.3819
  207MOL    H7641688   2.553   5.326   3.289  0.0556  0.5255  0.2059
  207MOL    H7741689   2.421   5.394   3.381 -0.1608  1.0028  0.3734
  207MOL    H7841690   2.556   5.561   3.158 -0.3144 -0.8873 -0.5129
  207MOL    H7941691   2.475   5.624   3.291  0.1772 -0.7965  1.1349
  207MOL    H8041692   2.738   5.474   3.333 -0.0127  0.1494  0.4801
  207MOL    H8141693   2.666   5.575   3.448 -0.5185 -0.2312 -0.4348
  207MOL    O8241694   2.751   5.684   3.309 -0.1766  0.3731 -0.0290
  207MOL    C8341695   2.838   5.670   3.192  0.4289  0.2766  0.9258
  207MOL    C8441696   2.878   5.812   3.150 -0.0713  0.3175  1.5182
  207MOL    C8541697   3.008   5.857   3.215 -0.7404 -0.2583  0.1926
  207MOL    H8641698   2.789   5.606   3.119  0.5730  2.5260 -1.2009
  207MOL    H8741699   2.931   5.621   3.220  0.9395  0.2118 -0.8464
  207MOL    H8841700   2.893   5.825   3.043  0.1185 -3.1666  1.0553
  207MOL    H8941701   2.802   5.884   3.179  0.1241  0.3230  2.0341
  207MOL    H9041702   3.090   5.794   3.178 -0.3551 -0.0756  0.7240
  207MOL    H9141703   3.000   5.834   3.321  1.1940 -0.3657  0.3356
  207MOL    O9241704   3.044   5.994   3.203 -0.2719 -0.2661  0.8139
  207MOL    C9341705   3.142   6.047   3.291  0.2583  0.3989  0.0354
  207MOL    C9441706   3.139   6.207   3.280  0.8232 -0.8655  0.3832
  207MOL    C9541707   3.208   6.274   3.392 -0.3967  0.9685 -0.5572
  207MOL    H9641708   3.243   6.009   3.275  0.2963 -0.6396  2.5388
  207MOL    H9741709   3.106   6.016   3.389 -0.4748  0.4568 -0.2160
  207MOL    H9841710   3.177   6.256   3.190  0.3038  0.2000  0.7350
  207MOL    H9941711   3.034   6.234   3.291  0.6332 -2.4678  2.8647
  207MOL   H10041712   3.312   6.241   3.388 -0.9584 -0.7594 -1.5939
  207MOL   H10141713   3.159   6.240   3.484 -0.9492  1.2807 -0.7349
  207MOL   O10241714   3.204   6.415   3.391  0.0029 -0.5785  0.6079
  207MOL   C10341715   3.084   6.481   3.360  0.2785  0.4906 -0.2927
  207MOL   C10441716   3.087   6.622   3.410  0.0088  0.2467  0.5834
  207MOL   C10541717   3.185   6.714   3.342 -0.0156  0.9421 -0.2963
  207MOL   H10641718   3.001   6.423   3.401  1.4458 -1.8682 -1.2206
  207MOL   H10741719   3.065   6.486   3.253 -2.1007  0.7310  0.1050
  207MOL   H10841720   2.987   6.666   3.408 -0.6405 -1.2204 -1.3370
  207MOL   H10941721   3.106   6.630   3.517  1.0526 -0.0110  0.4190
  207MOL   H11041722   3.151   6.709   3.238 -0.0822 -1.3342 -0.2064
  207MOL   H11141723   3.288   6.681   3.339 -0.3266  0.0718 -1.9233
  207MOL   O11241724   3.180   6.855   3.391 -0.4350 -0.4479  0.2055
  207MOL   C11341725   3.294   6.927   3.338  0.5647  0.4524  0.4000
  207MOL   C11441726   3.289   7.078   3.371 -0.2815 -0.4330  0.1380
  207MOL   C11541727   3.434   7.136   3.388 -0.1540  0.1806 -0.3418
  207MOL   H11641728   3.291   6.916   3.229 -0.7952  0.7777  0.3849
  207MOL   H11741729   3.380   6.869   3.370  1.8874  1.9544 -0.3338
  207MOL   H11841730   3.239   7.126   3.286 -1.5436 -0.0415  1.0858
  207MOL   H11941731   3.230   7.104   3.459  1.8897  0.6342  1.3131
  207MOL   H12041732   3.499   7.083   3.318 -1.0532 -2.5559  0.8098
  207MOL   H12141733   3.474   7.119   3.488  3.2932  1.3872 -1.4309
  207MOL   O12241734   3.437   7.279   3.361  0.3955 -0.8995  0.6525
  207MOL   C12341735   3.561   7.344   3.393 -0.0123  0.6500  0.4579
  207MOL   C12441736   3.578   7.465   3.303 -0.4580  0.8434  0.1537
  207MOL   C12541737   3.493   7.583   3.345  0.1445 -0.3222  0.0842
  207MOL   H12641738   3.650   7.283   3.378  0.8990  2.1501 -0.2677
  207MOL   H12741739   3.573   7.382   3.495  0.8974  1.3514  0.0911
  207MOL   H12841740   3.681   7.502   3.307  0.3845 -1.3998 -0.3418
  207MOL   H12941741   3.564   7.430   3.201 -1.5644 -1.4255  1.0541
  207MOL   H13041742   3.395   7.539   3.363  0.1465 -0.6733 -0.7391
  207MOL   H13141743   3.489   7.666   3.275  3.0569  0.1657  0.4602
  207MOL   O13241744   3.561   7.626   3.459  0.3766 -0.0814  0.2086
  207MOL   C13341745   3.504   7.732   3.529 -0.0228  0.0429 -0.1610
  207MOL   C13441746   3.557   0.084   3.482 -0.6324 -0.4380  0.3296
  207MOL   C13541747   3.597   0.172   3.605 -0.1308  0.1238  0.6908
  207MOL   H13641748   3.529   7.715   3.633 -3.8462  0.3244  0.8772
  207MOL   H13741749   3.395   7.741   3.524  0.1587  1.9797 -0.8407
  207MOL   H13841750   3.635   0.070   3.407 -1.5313  1.2434 -0.9709
  207MOL   H13941751   3.481   0.140   3.427  1.1490  1.8211  0.0856
  207MOL   H14041752   3.687   0.147   3.662  0.4176  0.5105 -0.0067
  207MOL   H14141753   3.507   0.168   3.666  0.2833  0.2615  1.3259
  207MOL   O14241754   3.626   0.305   3.555  0.1488  0.4939  0.3420
  207MOL   C14341755   3.625   0.400   3.651  0.5153  0.9819 -0.1335
  207MOL   C14441756   3.714   0.524   3.598 -0.1159 -0.8690  0.3297
  207MOL   C14541757   3.737   0.629   3.703  0.3239 -0.0932 -0.1299
  207MOL   H14641758   3.653   0.361   3.748 -0.6784 -0.6686 -0.4293
  207MOL   H14741759   3.525   0.438   3.672 -0.4105 -1.5114  0.1049
  207MOL   H14841760   3.810   0.493   3.557 -0.4278  0.0544 -1.1074
  207MOL   H14941761   3.668   0.559   3.506  0.0412 -2.0706 -0.2082
  207MOL   H15041762   3.641   0.660   3.744 -0.6095  1.0478 -2.9884
  207MOL   H15141763   3.780   0.719   3.658 -0.8086  0.4493 -0.1293
  207MOL   O15241764   3.821   0.573   3.801  0.0605 -0.3709  0.1948
  207MOL   C15341765   3.855   0.663   3.906 -0.0655  0.3962 -0.6881
  207MOL   C15441766   3.916   0.597   4.030  0.2855 -0.3828  0.8810
  207MOL   C15541767   3.810   0.545   4.122 -0.4943  0.1014  0.6635
  207MOL   H15641768   3.769   0.725   3.928 -0.3067 -0.8861  2.1545
  207MOL   H15741769   3.934   0.730   3.870 -0.2231  1.5660  1.0929
  207MOL   H15841770   3.976   0.512   3.998 -1.2185 -0.9309 -0.5602
  207MOL   H15941771   3.983   0.659   4.090  0.4817 -0.1397  0.4172
  207MOL   H16041772   3.760   0.472   4.059 -1.9154  1.6543 -0.0676
  207MOL   H16141773   3.743   0.620   4.165  0.1095  0.4299  1.0445
  207MOL   O16241774   3.872   0.482   4.232  0.4027  0.0420  0.0082
  207MOL   C16341775   3.787   0.402   4.314 -0.5095  0.5300  0.4847
  207MOL   C16441776   3.856   0.383   4.450 -0.4790 -0.1872  0.3815
  207MOL   C16541777   3.786   0.296   4.545  0.5161  0.7233 -0.2456
  207MOL   H16641778   3.764   0.309   4.260 -0.0597 -0.5887  2.1829
  207MOL   H16741779   3.695   0.458   4.330 -0.7324 -0.5522  3.3332
  207MOL   H16841780   3.959   0.355   4.426  0.3932  3.9378 -1.0552
  207MOL   H16941781   3.868   0.481   4.495  0.5019  0.1060 -0.4797
  207MOL   H17041782   3.790   0.192   4.512  0.9744  1.1740 -1.6617
  207MOL   H17141783   3.680   0.314   4.557  0.8262  1.9619  0.7064
  207MOL   O17241784   3.857   0.300   4.666  0.2488 -0.1946  0.0762
  207MOL   C17341785   3.799   0.231   4.774  0.1970  0.2166  0.6118
  207MOL   C17441786   3.908   0.202   4.880 -0.2308 -0.1683  0.3719
  207MOL   C17541787   3.857   0.115   5.000  0.5891  0.0095  0.1845
  207MOL   H17641788   3.767   0.130   4.747 -0.6606  0.5485  0.3820
  207MOL   H17741789   3.712   0.274   4.823 -1.2009 -0.2541 -1.4330
  207MOL   H17841790   3.990   0.146   4.834 -0.6049 -1.1822  0.9166
  207MOL   H17941791   3.952   0.293   4.920 -2.6931  1.3545 -0.3368
  207MOL   H18041792   3.799   0.027   4.970 -0.3502  1.4463 -2.3452
  207MOL   H18141793   3.791   0.178   5.058 -3.0309 -0.7743 -2.8717
  207MOL   O18241794   3.953   0.053   5.076  0.6966 -0.3805  0.6563
  207MOL   C18341795   3.905   7.766   5.187 -0.2417 -0.4720 -0.0544
  207MOL   C18441796   4.024   7.702   5.262 -0.1058 -0.2662  0.9316
  207MOL   C18541797   3.991   7.617   5.387  0.0034 -0.3658  0.0787
  207MOL   H18641798   3.833   7.694   5.148  0.2886 -1.6178  1.0586
  207MOL   H18741799   3.849   0.044   5.252  1.0349 -0.8092  1.4162
  207MOL   H18841800   4.088   7.639   5.200  2.9511  2.5887  1.0812
  207MOL   H18941801   4.084   7.780   5.308 -0.2003  0.0484  0.5187
  207MOL   H19041802   4.085   7.589   5.434 -0.5368 -0.9890  0.7989
  207MOL   H19141803   3.945   7.530   5.340 -0.5587  1.0189 -1.9930
  207MOL   O19241804   3.906   7.683   5.481  0.2512  0.1638 -0.6268
  207MOL   C19341805   3.843   7.593   5.577 -0.3634  0.7495  0.2199
  207MOL   C19441806   3.765   7.675   5.682  0.0561 -0.0392  0.1365
  207MOL   C19541807   3.716   7.580   5.793 -0.0913  0.1091  0.0051
  207MOL   H19641808   3.922   7.528   5.616  0.4536  1.8899  0.5109
  207MOL   H19741809   3.779   7.521   5.527  0.1255 -0.7156  1.6572
  207MOL   H19841810   3.851   7.732   5.718 -0.3915  1.9318 -1.8515
  207MOL   H19941811   3.689   7.743   5.645 -0.6931 -2.8662 -3.7803
  207MOL   H20041812   3.705   7.636   5.887  2.9122  0.3552  0.2512
  207MOL   H20141813   3.794   7.508   5.814 -1.4598 -1.4285 -0.0949
  207MOL   H20241814   3.620   7.532   5.772  0.2448 -0.7098  0.3315
  208MOL     O141815   2.608   2.894   0.108  0.1098 -0.1108  0.4722
  208MOL     C241816   2.724   2.962   0.146 -0.1026  0.1721  0.0474
  208MOL     C341817   2.844   2.864   0.131  0.0794  0.3087  0.7856
  208MOL     C441818   2.979   2.919   0.171  0.3284 -0.3076 -0.0788
  208MOL     H541819   2.706   2.995   0.249  0.0730  3.0810 -0.8203
  208MOL     H641820   2.733   3.052   0.087 -0.8477  2.1207  2.8013
  208MOL     H741821   2.821   2.782   0.199  1.1564  0.6846  1.6238
  208MOL     H841822   2.842   2.825   0.029  0.8723  0.8344  0.5675
  208MOL     H941823   2.984   2.928   0.279 -0.1569 -2.0849  0.1079
  208MOL    H1041824   2.998   3.010   0.115 -1.2962  0.8270  1.1763
  208MOL    H1141825   2.535   2.953   0.118  0.0079 -0.0824 -0.4668
  208MOL    O1241826   3.077   2.816   0.148 -0.6582  0.4650  0.2731
  208MOL    C1341827   3.207   2.854   0.169 -0.1140  0.8169  0.4975
  208MOL    C1441828   3.309   2.757   0.097 -0.3946 -0.1221  0.3121
  208MOL    C1541829   3.312   2.763   7.729  0.0015  0.0916  0.1860
  208MOL    H1641830   3.230   2.831   0.273 -0.7835  1.6223  0.8246
  208MOL    H1741831   3.221   2.958   0.138 -0.5117  0.2824 -1.5361
  208MOL    H1841832   3.405   2.791   0.134  0.0630  0.2693 -1.1875
  208MOL    H1941833   3.294   2.655   0.133 -0.9469 -0.4590 -0.8409
  208MOL    H2041834   3.211   2.773   7.689 -0.7366  2.0677  2.4949
  208MOL    H2141835   3.347   2.675   7.674 -1.5790 -1.3701  1.4789
  208MOL    O2241836   3.390   2.872   7.685  0.0630 -0.2055 -0.2266
  208MOL    C2341837   3.385   2.898   7.549  0.0802 -0.4107 -0.3483
  208MOL    C2441838   3.505   2.979   7.496  0.3892 -0.3356 -0.3906
  208MOL    C2541839   3.505   2.994   7.343  0.7056 -0.2472  0.1303
  208MOL    H2641840   3.296   2.959   7.531 -0.0001 -0.6253 -0.6796
  208MOL    H2741841   3.365   2.806   7.494  0.0701 -1.7138  1.7579
  208MOL    H2841842   3.503   3.079   7.540  0.1479 -1.5742  2.5667
  208MOL    H2941843   3.599   2.926   7.510  0.6980 -0.1871 -1.8729
  208MOL    H3041844   3.436   3.074   7.317  0.2863 -0.4513  0.6129
  208MOL    H3141845   3.457   2.903   7.307 -0.1389  0.6942 -1.1896
  208MOL    O3241846   3.636   3.021   7.289 -0.4794 -0.2872 -0.0152
  208MOL    C3341847   3.642   3.012   7.145  0.1185 -0.1710  0.2626
  208MOL    C3441848   3.645   2.862   7.084 -0.1447  0.3816 -0.3361
  208MOL    C3541849   3.633   2.869   6.927 -0.5819 -0.0669 -0.1041
  208MOL    H3641850   3.733   3.064   7.116  0.5475 -1.7973 -1.4484
  208MOL    H3741851   3.566   3.078   7.104 -0.5112 -0.8074  0.4082
  208MOL    H3841852   3.738   2.816   7.117 -1.3096  0.1788  2.8602
  208MOL    H3941853   3.555   2.810   7.119 -1.3150  1.9794 -0.9123
  208MOL    H4041854   3.545   2.933   6.917  0.4789  1.4117 -0.3228
  208MOL    H4141855   3.624   2.769   6.887  1.3246 -0.6480  0.8514
  208MOL    O4241856   3.752   2.917   6.870 -0.5121  0.3659  0.6052
  208MOL    C4341857   3.719   2.967   6.738  0.5226  0.2101  0.3073
  208MOL    C4441858   3.835   3.060   6.698  0.1243 -0.0222  0.3306
  208MOL    C4541859   3.816   3.103   6.553  0.6834 -0.2611 -0.4217
  208MOL    H4641860   3.621   3.012   6.724  0.2053  0.0951  2.0609
  208MOL    H4741861   3.717   2.878   6.676 -1.9796  0.3367  0.1792
  208MOL    H4841862   3.839   3.150   6.759 -0.4792  1.2308 -1.4259
  208MOL    H4941863   3.929   3.006   6.696  1.3287  2.0411 -0.6514
  208MOL    H5041864   3.717   3.146   6.543  0.3941 -1.0188 -0.8746
  208MOL    H5141865   3.823   3.006   6.504  1.0813 -0.5746  0.2402
  208MOL    O5241866   3.929   3.185   6.528  0.2722  0.1175 -0.5022
  208MOL    C5341867   3.934   3.246   6.399 -0.1687  0.0163  0.4780
  208MOL    C5441868   4.081   3.283   6.363 -0.5990  0.1758 -0.2567
  208MOL    C5541869   4.133   3.389   6.463  0.0388  0.1683  0.1954
  208MOL    H5641870   3.869   3.333   6.396  0.0380  0.1678  0.3857
  208MOL    H5741871   3.901   3.172   6.326 -0.2883  0.2730  0.2673
  208MOL    H5841872   4.152   3.202   6.351 -0.1618  0.8387 -2.4195
  208MOL    H5941873   4.079   3.342   6.272 -1.7744  1.2809  0.4730
  208MOL    H6041874   4.045   3.448   6.488  1.0536  1.8401 -0.1391
  208MOL    H6141875   4.218   3.438   6.416 -0.2033 -1.5651 -2.1247
  208MOL    O6241876   4.175   3.322   6.578 -0.1584  0.1308 -0.4445
  208MOL    C6341877   4.307   3.272   6.568  0.2628 -0.2238 -0.5645
  208MOL    C6441878   4.342   3.208   6.699 -0.6768  0.8552  0.1721
  208MOL    C6541879   4.492   3.181   6.719 -0.5469 -0.5571 -0.5747
  208MOL    H6641880   4.368   3.359   6.544  0.2211  0.2219  0.8999
  208MOL    H6741881   4.307   3.190   6.496 -2.7045 -0.7763  0.0223
  208MOL    H6841882   4.316   3.283   6.773  0.1565  1.6268 -0.3064
  208MOL    H6941883   4.285   3.116   6.709 -2.3556  1.8903  0.2117
  208MOL    H7041884   4.545   3.274   6.742 -1.1795 -0.2103 -0.5214
  208MOL    H7141885   4.536   3.140   6.628 -1.6034 -0.8350 -0.9598
  208MOL    O7241886   4.511   3.074   6.812  0.3400  0.4520  0.3804
  208MOL    C7341887   4.646   3.070   6.850  1.0614 -0.7723  0.8814
  208MOL    C7441888   4.739   3.011   6.746  0.3704 -0.0854  0.0865
  208MOL    C7541889   4.870   2.960   6.805 -0.3100 -0.1896 -0.2358
  208MOL    H7641890   4.633   3.008   6.938 -0.1249 -0.6429  0.8071
  208MOL    H7741891   4.680   3.167   6.886  0.9792 -0.5288  0.3147
  208MOL    H7841892   4.686   2.940   6.684  2.0781  2.2509 -4.2168
  208MOL    H7941893   4.766   3.092   6.678  2.4098 -0.5083  0.3357
  208MOL    H8041894   4.856   2.876   6.873 -0.0751 -1.2711 -1.4985
  208MOL    H8141895   4.905   3.039   6.871  1.6332 -0.1670 -1.2793
  208MOL    O8241896   4.953   2.930   6.694 -0.0262  0.1614 -0.8488
  208MOL    C8341897   5.068   2.854   6.725  0.2840 -0.4271 -0.4024
  208MOL    C8441898   5.170   2.860   6.605  0.4730 -0.3866  0.0792
  208MOL    C8541899   5.289   2.764   6.601  0.9343 -0.6003  0.0767
  208MOL    H8641900   5.033   2.754   6.748  1.8452 -1.2989 -1.7032
  208MOL    H8741901   5.117   2.892   6.815 -0.6251 -0.0733 -0.0551
  208MOL    H8841902   5.119   2.843   6.510  0.0305 -0.1831  0.2758
  208MOL    H8941903   5.201   2.965   6.606 -2.5724  0.5609  0.5216
  208MOL    H9041904   5.262   2.658   6.602  0.9114 -0.5932  1.6926
  208MOL    H9141905   5.347   2.771   6.693 -2.6180  1.1662  2.3136
  208MOL    O9241906   5.369   2.791   6.485 -0.4669  0.2611  0.6344
  208MOL    C9341907   5.326   2.731   6.362 -0.5254  0.0677 -0.1859
  208MOL    C9441908   5.418   2.780   6.242 -0.2329  0.5210  0.3457
  208MOL    C9541909   5.345   2.776   6.109  0.2010 -0.4232 -0.2653
  208MOL    H9641910   5.222   2.736   6.331 -0.8629 -1.6207  0.6580
  208MOL    H9741911   5.337   2.624   6.374  0.1149 -0.0104 -1.3771
  208MOL    H9841912   5.455   2.882   6.256  1.8689  0.0676 -1.6538
  208MOL    H9941913   5.508   2.720   6.249 -0.5398  0.2696  2.1392
  208MOL   H10041914   5.309   2.676   6.083 -0.8046  0.4609 -2.4071
  208MOL   H10141915   5.414   2.799   6.028 -1.1766 -1.7202 -1.8482
  208MOL   O10241916   5.233   2.870   6.118 -0.3019 -0.2664  0.2335
  208MOL   C10341917   5.267   3.003   6.130 -0.5124 -0.3000 -0.4159
  208MOL   C10441918   5.141   3.087   6.086 -0.2330  0.1625 -0.6516
  208MOL   C10541919   5.153   3.235   6.090  0.3581  0.2686 -0.1969
  208MOL   H10641920   5.349   3.020   6.060 -0.4396 -1.1587 -0.5501
  208MOL   H10741921   5.292   3.035   6.231  1.6090  0.9051 -1.3112
  208MOL   H10841922   5.110   3.051   5.987 -1.2030 -1.6781  0.2946
  208MOL   H10941923   5.055   3.056   6.145  0.3472 -0.4203 -0.1152
  208MOL   H11041924   5.060   3.288   6.071  0.9735  0.5315 -2.7144
  208MOL   H11141925   5.222   3.278   6.017 -0.5172  2.0015 -0.0259
  208MOL   O11241926   5.184   3.277   6.222  0.5156 -0.0166  0.6002
  208MOL   C11341927   5.093   3.250   6.328  0.6324  0.2584  0.4704
  208MOL   C11441928   5.132   3.325   6.447 -0.5143  0.0023 -0.5437
  208MOL   C11541929   5.024   3.316   6.550  0.0964 -0.5103  0.2689
  208MOL   H11641930   5.091   3.142   6.343 -2.6343  0.2055  0.0443
  208MOL   H11741931   4.990   3.272   6.301  1.6240  1.1105 -2.9214
  208MOL   H11841932   5.224   3.279   6.483 -1.2839 -1.0819  0.0780
  208MOL   H11941933   5.146   3.429   6.417  0.3755  0.1885  0.5024
  208MOL   H12041934   5.032   3.226   6.612  2.5220 -1.1450 -0.9133
  208MOL   H12141935   4.925   3.304   6.506  0.9263  0.0023 -1.7794
  208MOL   O12241936   5.046   3.420   6.642 -0.1213 -0.0794 -0.3705
  208MOL   C12341937   4.935   3.409   6.738  0.4760  0.2984 -0.2933
  208MOL   C12441938   4.947   3.518   6.845 -0.7776  0.1772 -0.9717
  208MOL   C12541939   4.830   3.519   6.954 -0.4493  0.2148 -0.3829
  208MOL   H12641940   4.925   3.314   6.792  1.0548  2.3774  3.6994
  208MOL   H12741941   4.839   3.421   6.688 -0.0105  2.1531  1.0571
  208MOL   H12841942   5.044   3.505   6.893 -0.7255  2.9949 -0.2497
  208MOL   H12941943   4.973   3.616   6.805  3.1507 -1.3367 -2.4091
  208MOL   H13041944   4.837   3.591   7.034 -0.6424 -1.0627  0.8001
  208MOL   H13141945   4.816   3.418   6.994  0.6654  0.4904  0.7208
  208MOL   O13241946   4.716   3.566   6.882  0.1260 -0.3448  0.4522
  208MOL   C13341947   4.592   3.541   6.947  0.5866 -0.2627  0.0646
  208MOL   C13441948   4.482   3.628   6.888 -0.1904 -0.0211 -0.3408
  208MOL   C13541949   4.335   3.578   6.904 -0.8349 -0.0686 -0.6125
  208MOL   H13641950   4.592   3.554   7.055  0.6379 -1.8628  0.2568
  208MOL   H13741951   4.571   3.435   6.941 -2.6806  0.2561  1.5455
  208MOL   H13841952   4.492   3.734   6.910  0.6318 -0.1023 -0.3076
  208MOL   H13941953   4.498   3.639   6.781  0.5546 -0.2416 -0.2520
  208MOL   H14041954   4.292   3.572   7.004  0.7399  3.2012  0.3351
  208MOL   H14141955   4.335   3.477   6.862 -2.0535 -0.3172 -0.0319
  208MOL   O14241956   4.257   3.675   6.832  0.0179  0.1306  0.2497
  208MOL   C14341957   4.133   3.626   6.789  0.6201  0.5814  0.4172
  208MOL   C14441958   4.033   3.730   6.835  0.4704 -0.1498 -0.4887
  208MOL   C14541959   3.887   3.707   6.788  0.4855  0.0028 -0.0735
  208MOL   H14641960   4.098   3.527   6.819 -0.2897  0.7999  0.0835
  208MOL   H14741961   4.132   3.621   6.680  1.0383  0.6956  0.4063
  208MOL   H14841962   4.035   3.721   6.944  1.7914  0.6182 -0.4339
  208MOL   H14941963   4.062   3.833   6.814  1.3826 -0.1445  0.7548
  208MOL   H15041964   3.822   3.642   6.848  1.2390  0.3447  1.1281
  208MOL   H15141965   3.887   3.657   6.691 -3.0780 -1.7201  0.6954
  208MOL   O15241966   3.816   3.832   6.771 -0.5943  0.2148 -0.0306
  208MOL   C15341967   3.693   3.807   6.699 -0.6652 -0.6294 -0.3436
  208MOL   C15441968   3.625   3.940   6.651  0.0405 -0.0593  0.2106
  208MOL   C15541969   3.473   3.930   6.610 -0.0095  0.0542 -1.2618
  208MOL   H15641970   3.619   3.752   6.758 -0.4460 -2.7030 -1.9296
  208MOL   H15741971   3.718   3.748   6.611 -0.8914 -1.2232 -0.0143
  208MOL   H15841972   3.649   4.009   6.732  1.5552 -0.7963  0.4230
  208MOL   H15941973   3.679   3.978   6.564  0.7229  0.0245  0.6607
  208MOL   H16041974   3.432   3.871   6.692  1.8801  1.0638  0.4544
  208MOL   H16141975   3.466   3.872   6.517  2.3552 -0.4428 -1.1665
  208MOL   O16241976   3.424   4.063   6.605 -0.3334 -0.8844 -0.5324
  208MOL   C16341977   3.303   4.090   6.534 -0.7291 -0.3798 -0.9925
  208MOL   C16441978   3.348   4.135   6.388  0.0243 -0.5157  0.2313
  208MOL   C16541979   3.256   4.126   6.269 -0.3244  0.0776 -0.5547
  208MOL   H16641980   3.245   4.165   6.588  1.3551  1.6769 -1.5383
  208MOL   H16741981   3.235   4.005   6.530 -1.4850  0.1434  0.2515
  208MOL   H16841982   3.385   4.238   6.390  2.3572 -1.2595 -2.1251
  208MOL   H16941983   3.436   4.076   6.362 -0.6609 -1.0802 -0.8490
  208MOL   H17041984   3.164   4.183   6.282 -0.3877 -0.5018  1.7582
  208MOL   H17141985   3.218   4.028   6.241 -0.8364 -0.0246  0.4920
  208MOL   O17241986   3.322   4.178   6.156  0.6066 -0.5286  0.3736
  208MOL   C17341987   3.236   4.181   6.037 -0.3422  0.0681 -0.1507
  208MOL   C17441988   3.319   4.261   5.940  0.9354  0.3404  0.3878
  208MOL   C17541989   3.263   4.264   5.798  0.0055 -0.3067 -0.4325
  208MOL   H17641990   3.146   4.236   6.064  1.1667  3.6138 -2.0408
  208MOL   H17741991   3.217   4.078   6.007  0.7708 -1.1374  2.9964
  208MOL   H17841992   3.321   4.363   5.980 -0.4040  1.2888 -1.8428
  208MOL   H17941993   3.412   4.205   5.928 -0.6071 -1.8276 -2.0091
  208MOL   H18041994   3.161   4.304   5.802 -0.6927 -2.0859 -0.0466
  208MOL   H18141995   3.252   4.159   5.769  0.0543 -0.3198 -0.4013
  208MOL   O18241996   3.345   4.328   5.706  0.3745 -0.2163  0.3775
  208MOL   C18341997   3.315   4.293   5.568  0.1793  0.8633  0.6153
  208MOL   C18441998   3.378   4.389   5.471 -0.3266 -0.9572 -0.6442
  208MOL   C18541999   3.330   4.531   5.479 -0.2816 -0.1774 -0.4747
  208MOL   H18642000   3.212   4.307   5.537  0.7955  2.7627 -0.7046
  208MOL   H18742001   3.323   4.186   5.553 -1.2826  0.9694 -0.9850
  208MOL   H18842002   3.484   4.397   5.491 -0.4500  0.1941 -0.4061
  208MOL   H18942003   3.367   4.357   5.367  0.8396  0.1760 -1.1211
  208MOL   H19042004   3.353   4.560   5.581  0.4689 -0.4775 -0.5603
  208MOL   H19142005   3.226   4.544   5.447 -0.9812  0.1261  1.7996
  208MOL   O19242006   3.405   4.616   5.395  0.3253  0.3362 -0.5848
  208MOL   C19342007   3.361   4.752   5.386  0.3954 -0.2059  0.0113
  208MOL   C19442008   3.483   4.831   5.332  0.3974 -0.0517 -0.4886
  208MOL   C19542009   3.585   4.830   5.444 -0.2137  0.2523 -0.4326
  208MOL   H19642010   3.329   4.816   5.468 -0.4495 -1.2015  0.4661
  208MOL   H19742011   3.291   4.754   5.303  1.2670  0.4188 -0.7153
  208MOL   H19842012   3.517   4.790   5.237  2.6397 -0.2648  0.3869
  208MOL   H19942013   3.435   4.926   5.308 -1.0737 -0.6929 -0.1673
  208MOL   H20042014   3.675   4.887   5.422  0.0781  1.0898  2.6450
  208MOL   H20142015   3.618   4.728   5.467 -0.6379  0.4584  1.1664
  208MOL   H20242016   3.553   4.863   5.543  1.1313  0.8701 -0.1862
  209MOL     O142017   1.942   2.790   0.097 -0.0970  0.0137 -0.1799
  209MOL     C242018   1.822   2.722   0.137 -0.6368  0.5973  0.4425
  209MOL     C342019   1.786   2.616   0.032  0.2982 -0.3248 -0.3568
  209MOL     C442020   1.659   2.534   0.077 -0.6952  0.1613  0.1124
  209MOL     H542021   1.734   2.784   0.151 -1.7583  0.0412 -3.6959
  209MOL     H642022   1.846   2.673   0.232 -1.0057  1.7991  1.1598
  209MOL     H742023   1.760   2.660   7.724  0.0010 -0.8652 -0.5305
  209MOL     H842024   1.867   2.547   0.007  1.4379  1.7085 -2.4779
  209MOL     H942025   1.572   2.599   0.080 -1.2361 -0.5372 -0.4008
  209MOL    H1042026   1.689   2.501   0.177  2.7709  0.4554 -0.7695
  209MOL    H1142027   1.936   2.874   0.140 -2.1412 -0.0034 -0.3749
  209MOL    O1242028   1.638   2.418   7.783 -0.4445  0.1900 -0.1973
  209MOL    C1342029   1.506   2.378   0.008  0.5045 -0.2409  0.7542
  209MOL    C1442030   1.475   2.256   7.702  0.2722  0.5690  0.6443
  209MOL    C1542031   1.544   2.125   7.727  0.1986  0.4517  0.9198
  209MOL    H1642032   1.439   2.457   7.763  1.0084  0.0600  0.4510
  209MOL    H1742033   1.479   2.348   0.109 -2.5130 -3.5296 -0.9011
  209MOL    H1842034   1.368   2.242   7.686  0.5613 -0.3526 -0.5509
  209MOL    H1942035   1.510   2.282   7.602  3.5824 -0.9777  1.3257
  209MOL    H2042036   1.537   2.086   0.041  1.9877  0.0299  0.9008
  209MOL    H2142037   1.652   2.138   7.721 -0.0862  2.1855 -0.7254
  209MOL    O2242038   1.483   2.039   7.635  0.0652 -0.0193  0.2797
  209MOL    C2342039   1.547   1.913   7.629 -0.3198 -0.5870 -0.6113
  209MOL    C2442040   1.466   1.823   7.541  0.0732 -0.3949 -0.0019
  209MOL    C2542041   1.337   1.771   7.607  1.2052  0.6074  0.1067
  209MOL    H2642042   1.554   1.878   7.732 -1.8610 -0.2326 -0.3684
  209MOL    H2742043   1.648   1.929   7.592 -0.2231  0.1698 -0.0333
  209MOL    H2842044   1.438   1.883   7.454  0.6560  0.2283  0.2379
  209MOL    H2942045   1.518   1.736   7.499 -0.6374 -1.3256  1.0149
  209MOL    H3042046   1.278   1.859   7.632  0.7056  0.0672  0.8493
  209MOL    H3142047   1.364   1.722   7.700 -0.4042 -0.8919 -0.1812
  209MOL    O3242048   1.260   1.684   7.527 -0.1976  0.1068  0.4567
  209MOL    C3342049   1.139   1.641   7.574  0.4517  0.4652  0.0387
  209MOL    C3442050   1.047   1.749   7.618  0.2384  0.0166 -0.4919
  209MOL    C3542051   0.898   1.703   7.618  0.1175  0.6270 -0.3314
  209MOL    H3642052   1.159   1.591   7.669 -0.5590 -2.1147 -1.0643
  209MOL    H3742053   1.094   1.573   7.502  2.4689 -0.7149 -0.1562
  209MOL    H3842054   1.075   1.787   7.716 -0.3930 -0.6939 -0.0373
  209MOL    H3942055   1.054   1.834   7.549 -1.0169 -1.4865 -2.5425
  209MOL    H4042056   0.878   1.631   7.697  1.1561  0.3062 -0.3634
  209MOL    H4142057   0.861   1.652   7.529  0.4832  1.5220 -1.0128
  209MOL    O4242058   0.831   1.825   7.659  0.1439  0.0479  0.1277
  209MOL    C4342059   0.691   1.827   7.634 -0.8652  0.8500 -0.5593
  209MOL    C4442060   0.644   1.964   7.688  0.6172 -0.0599  0.2800
  209MOL    C4542061   0.500   2.005   7.648 -0.0546  0.4780 -0.0821
  209MOL    H4642062   0.627   1.756   7.685  1.2641 -0.8299 -0.1214
  209MOL    H4742063   0.677   1.820   7.526  1.0208  1.2610 -0.8535
  209MOL    H4842064   0.653   1.959   0.008 -1.4175 -1.2070  0.4274
  209MOL    H4942065   0.711   2.043   7.656  1.3328 -1.2181 -1.1172
  209MOL    H5042066   0.422   1.929   7.659  0.7166 -0.1777  0.9269
  209MOL    H5142067   0.493   2.019   7.540  2.2538 -2.6315 -0.7108
  209MOL    O5242068   0.452   2.124   7.721 -0.3616  0.1071  0.5075
  209MOL    C5342069   0.318   2.162   7.692  0.7442 -0.1341  0.4509
  209MOL    C5442070   0.297   2.311   7.722  0.0592  0.0141 -0.2299
  209MOL    C5542071   0.159   2.360   7.702  0.5337 -0.1275  0.6497
  209MOL    H5642072   0.239   2.103   7.738  0.1695  0.3960  0.1671
  209MOL    H5742073   0.306   2.153   7.584  2.2891 -0.3923  0.2959
  209MOL    H5842074   0.330   2.337   0.034 -0.8179 -0.8807  0.3029
  209MOL    H5942075   0.363   2.356   7.647 -1.2969  2.0645 -0.1978
  209MOL    H6042076   0.088   2.294   7.752 -0.4767  1.3112  1.1210
  209MOL    H6142077   0.125   2.366   7.599  0.4318 -0.0182  0.6900
  209MOL    O6242078   0.156   2.486   7.753 -0.3013  0.4536  0.2851
  209MOL    C6342079   0.021   2.532   7.770 -0.3013 -0.1806 -0.3259
  209MOL    C6442080   0.016   2.683   0.004 -0.5042 -0.0545  0.2951
  209MOL    C6542081   7.661   2.735   0.011  0.2601  0.7812 -0.4431
  209MOL    H6642082   7.769   2.490   0.073  2.8287  0.7929  1.5806
  209MOL    H6742083   7.735   2.510   7.693 -0.0614 -0.2889 -0.5268
  209MOL    H6842084   0.065   2.714   0.097  1.8705  1.7105 -1.4893
  209MOL    H6942085   0.062   2.752   7.722 -0.6190 -0.8664 -0.5760
  209MOL    H7042086   7.653   2.835   0.054  0.7410  1.1891 -1.2920
  209MOL    H7142087   7.606   2.678   0.086  0.8095  1.6651  0.6621
  209MOL    O7242088   7.595   2.737   7.674 -0.3077 -0.3733  0.4437
  209MOL    C7342089   7.459   2.783   7.677  0.4660  0.3134 -0.0823
  209MOL    C7442090   7.397   2.814   7.533  0.1842  0.1079 -0.4098
  209MOL    C7542091   7.451   2.943   7.476  0.5078  0.4759  0.3525
  209MOL    H7642092   7.440   2.874   7.735 -1.0749 -0.8579  1.3204
  209MOL    H7742093   7.396   2.699   7.707  1.3762 -0.1817  0.4725
  209MOL    H7842094   7.410   2.727   7.469  0.2875  0.9734 -1.5730
  209MOL    H7942095   7.289   2.826   7.541  0.4819  1.2323  3.0911
  209MOL    H8042096   7.559   2.944   7.465  0.4200 -1.5705 -1.0856
  209MOL    H8142097   7.433   3.033   7.535 -0.2099  0.4995  0.1075
  209MOL    O8242098   7.390   2.960   7.343  0.3415  0.3675 -0.0037
  209MOL    C8342099   7.471   2.910   7.236 -0.3209 -0.4620 -0.1282
  209MOL    C8442100   7.392   2.909   7.099 -0.5292  0.1440  0.1396
  209MOL    C8542101   7.472   2.839   6.983 -0.1725 -0.1887 -0.7425
  209MOL    H8642102   7.514   2.812   7.258  0.5448  0.2381  1.3621
  209MOL    H8742103   7.557   2.977   7.239  1.4488 -2.5610 -2.0662
  209MOL    H8842104   7.296   2.859   7.114 -1.0396  1.6677  2.1938
  209MOL    H8942105   7.352   3.008   7.079 -3.1796 -0.9486 -0.1397
  209MOL    H9042106   7.493   2.736   7.013  2.5249  1.2738  2.6877
  209MOL    H9142107   7.570   2.885   6.976  0.3577 -0.9858  1.2349
  209MOL    O9242108   7.413   2.852   6.851  0.0630  0.1404 -0.2910
  209MOL    C9342109   7.322   2.749   6.817  0.0867  0.0009  0.1417
  209MOL    C9442110   7.278   2.778   6.672 -0.7658  0.2459  0.3966
  209MOL    C9542111   7.162   2.690   6.625  0.0772  0.3152 -0.0932
  209MOL    H9642112   7.231   2.741   6.876  0.0106  2.0348  0.3333
  209MOL    H9742113   7.382   2.659   6.832 -0.3221 -0.0843  1.2869
  209MOL    H9842114   7.254   2.884   6.663 -0.0199  0.3896  0.0579
  209MOL    H9942115   7.363   2.777   6.603 -0.9316 -1.3203  0.1966
  209MOL   H10042116   7.204   2.591   6.641  2.4544  1.2555 -0.2145
  209MOL   H10142117   7.138   2.693   6.519  0.1004  3.0591 -0.0796
  209MOL   O10242118   7.049   2.731   6.697  0.1589  0.7352  0.2922
  209MOL   C10342119   6.946   2.629   6.670 -0.4041 -0.2313  0.3669
  209MOL   C10442120   6.831   2.631   6.773  0.1598 -0.0431  0.4867
  209MOL   C10542121   6.884   2.614   6.921  0.0230  0.4705 -0.2153
  209MOL   H10642122   6.986   2.529   6.686 -0.3342 -0.2614  0.0054
  209MOL   H10742123   6.915   2.633   6.566  0.2692 -0.3253  0.1645
  209MOL   H10842124   6.785   2.730   6.768 -0.0208 -0.2268 -1.6005
  209MOL   H10942125   6.754   2.559   6.747  0.6335 -1.3987  2.6781
  209MOL   H11042126   6.957   2.693   6.936  0.0387  0.9305 -2.5985
  209MOL   H11142127   6.937   2.520   6.932 -1.0740  0.0206  1.4620
  209MOL   O11242128   6.761   2.618   6.999  0.1699 -0.2076  0.3560
  209MOL   C11342129   6.783   2.601   7.139  0.4357 -0.2338 -0.7108
  209MOL   C11442130   6.767   2.458   7.191  0.0729 -0.7435 -0.4786
  209MOL   C11542131   6.794   2.439   7.340  0.1352 -0.6627  0.1887
  209MOL   H11642132   6.721   2.666   7.201  1.1908  0.6153 -0.8440
  209MOL   H11742133   6.886   2.630   7.157 -0.4610  3.3429 -0.8649
  209MOL   H11842134   6.669   2.416   7.170 -0.5258 -0.1229  1.0054
  209MOL   H11942135   6.852   2.404   7.150  1.7893  1.6866 -0.2533
  209MOL   H12042136   6.739   2.512   7.398  1.9626 -0.0552  1.2042
  209MOL   H12142137   6.897   2.454   7.374  0.1756  2.7213 -1.2781
  209MOL   O12242138   6.754   2.303   7.372 -0.5932 -0.1676  0.5792
  209MOL   C12342139   6.727   2.290   7.513 -0.1497  0.5508  0.3383
  209MOL   C12442140   6.724   2.141   7.540 -0.3354  0.6904 -0.4074
  209MOL   C12542141   6.710   2.099   7.686  0.0145 -0.6064 -0.0278
  209MOL   H12642142   6.632   2.336   7.540  0.0577  1.3303 -0.2467
  209MOL   H12742143   6.805   2.346   7.565  1.8074 -0.8238 -1.0511
  209MOL   H12842144   6.648   2.097   7.477 -0.7094 -0.0259  0.5234
  209MOL   H12942145   6.818   2.100   7.503 -1.9249 -1.3059 -2.2989
  209MOL   H13042146   6.703   1.990   7.692  0.5846 -0.5977  0.9887
  209MOL   H13142147   6.615   2.130   7.727 -0.7970 -1.9744 -0.8494
  209MOL   O13242148   6.816   2.148   7.761 -0.4723 -0.6883  0.0450
  209MOL   C13342149   6.793   2.127   0.112 -0.3771  0.3156  0.4617
  209MOL   C13442150   6.928   2.164   0.177  0.0264 -0.2970  0.2532
  209MOL   C13542151   6.918   2.176   0.329 -0.6643 -0.0283  1.0351
  209MOL   H13642152   6.773   2.024   0.140  1.2995 -0.4753 -1.1827
  209MOL   H13742153   6.711   2.188   0.150 -0.3863  0.5548  0.0611
  209MOL   H13842154   7.007   2.093   0.151 -1.3949 -1.6924 -0.3251
  209MOL   H13942155   6.962   2.265   0.152  1.4868 -0.9676 -0.5033
  209MOL   H14042156   6.890   2.078   0.369 -1.2326  0.0194  0.7659
  209MOL   H14142157   6.836   2.242   0.358 -2.0629 -0.4661 -1.7313
  209MOL   O14242158   7.053   2.209   0.383 -0.5429 -0.2406 -0.2597
  209MOL   C14342159   7.068   2.161   0.520 -0.1240 -0.2100  0.2806
  209MOL   C14442160   7.206   2.179   0.572 -0.0313 -0.9206 -0.6305
  209MOL   C14542161   7.219   2.115   0.718  0.4091  0.9235  0.2691
  209MOL   H14642162   7.034   2.058   0.531  0.6178 -0.4690  0.1344
  209MOL   H14742163   6.999   2.223   0.578 -2.4713 -1.0378 -1.5696
  209MOL   H14842164   7.277   2.137   0.501 -0.1941 -2.9265  0.3406
  209MOL   H14942165   7.226   2.283   0.596 -2.6740 -1.2065  3.4575
  209MOL   H15042166   7.217   2.007   0.700  0.5918  0.9792 -0.1023
  209MOL   H15142167   7.135   2.135   0.783 -0.0342  0.2638 -0.0846
  209MOL   O15242168   7.347   2.145   0.767 -0.1134 -0.2708  0.2751
  209MOL   C15342169   7.362   2.089   0.897 -0.0469 -0.5362 -0.2293
  209MOL   C15442170   7.507   2.113   0.941  0.0535  0.2682  0.5053
  209MOL   C15542171   7.521   2.053   1.083 -0.1018  0.2021 -0.1946
  209MOL   H15642172   7.349   1.980   0.900 -0.2689 -0.4848  1.2351
  209MOL   H15742173   7.295   2.136   0.969  0.6786 -0.1977  0.2312
  209MOL   H15842174   7.576   2.051   0.883  1.9452  0.4107  2.5398
  209MOL   H15942175   7.550   2.213   0.932 -0.2280  0.2182 -1.6102
  209MOL   H16042176   7.520   1.944   1.082  2.3442  0.1742 -1.3689
  209MOL   H16142177   7.437   2.082   1.147  1.2961 -3.5856  3.5518
  209MOL   O16242178   7.640   2.107   1.143  0.7335 -0.2319  0.6101
  209MOL   C16342179   7.657   2.083   1.284  0.0371 -0.5333  0.6981
  209MOL   C16442180   7.773   2.165   1.344 -0.2066  0.8984  0.9305
  209MOL   C16542181   7.748   2.318   1.319  0.3009  0.8838 -0.1128
  209MOL   H16642182   7.672   1.978   1.308  2.3617 -0.2922  0.4599
  209MOL   H16742183   7.568   2.118   1.336  0.9752  3.4611 -0.1648
  209MOL   H16842184   7.783   2.146   1.451  0.5871  0.0206  0.7115
  209MOL   H16942185   0.075   2.136   1.289  0.1093  2.1789  0.7745
  209MOL   H17042186   7.647   2.349   1.344 -0.6798 -1.5697 -0.9589
  209MOL   H17142187   7.770   2.357   1.219  0.2323  1.9762  0.2918
  209MOL   O17242188   0.039   2.381   1.419 -0.1624 -0.4539 -0.7343
  209MOL   C17342189   0.131   2.477   1.370  0.3311  0.5897  0.1045
  209MOL   C17442190   0.204   2.537   1.487 -0.3552 -0.4408 -0.1277
  209MOL   C17542191   0.340   2.479   1.517  0.2005  0.4255 -0.5500
  209MOL   H17642192   0.079   2.548   1.306  1.4293 -0.3250 -1.8252
  209MOL   H17742193   0.203   2.435   1.300  1.0893  0.6666  0.8208
  209MOL   H17842194   0.219   2.643   1.467  0.8314 -0.0126  2.7004
  209MOL   H17942195   0.143   2.542   1.577 -1.7574 -0.2475 -1.0741
  209MOL   H18042196   0.411   2.490   1.435 -0.1833  0.0447 -0.9384
  209MOL   H18142197   0.324   2.372   1.531 -1.1195  0.2796 -2.8789
  209MOL   O18242198   0.390   2.522   1.646 -0.1435 -0.1947 -0.1383
  209MOL   C18342199   0.426   2.661   1.659  0.8742  1.5717 -0.0033
  209MOL   C18442200   0.511   2.673   1.789 -0.0163  0.1957  0.1466
  209MOL   C18542201   0.580   2.811   1.796  0.1540  0.5947  0.0257
  209MOL   H18642202   0.343   2.730   1.653 -0.4587  0.0588  0.7854
  209MOL   H18742203   0.474   2.707   1.572  0.2325  1.8147 -0.2312
  209MOL   H18842204   0.441   2.654   1.870  0.8952 -2.5684  0.3379
  209MOL   H18942205   0.582   2.591   1.797 -0.7723 -0.5604 -0.7827
  209MOL   H19042206   0.505   2.888   1.776 -0.1919  0.3468  0.3555
  209MOL   H19142207   0.647   2.815   1.710 -0.6519 -0.3966 -0.6494
  209MOL   O19242208   0.661   2.840   1.909 -0.4225  0.6264  0.1725
  209MOL   C19342209   0.596   2.845   2.039  0.5967 -0.5848  0.0691
  209MOL   C19442210   0.678   2.920   2.143  0.6421  0.2351  0.4626
  209MOL   C19542211   0.781   2.832   2.209  0.6138  0.5266 -0.3674
  209MOL   H19642212   0.561   2.749   2.076 -2.8457  0.6192  0.1082
  209MOL   H19742213   0.505   2.903   2.030  0.0976 -1.2416  0.7951
  209MOL   H19842214   0.720   3.012   2.101 -2.3523  2.7074  2.5913
  209MOL   H19942215   0.616   2.947   2.228  0.6154  0.3751  0.3996
  209MOL   H20042216   0.730   2.751   2.261 -1.2632  1.0067 -1.4197
  209MOL   H20142217   0.826   2.893   2.288  0.3803 -0.2208  0.3546
  209MOL   H20242218   0.869   2.803   2.152  1.1266  0.4759  0.4355
  210MOL     O142219   7.534   3.844   5.302  0.1394  0.1629  0.4436
  210MOL     C242220   7.577   3.870   5.428  0.0397  0.6594  0.1499
  210MOL     C342221   7.651   4.003   5.438 -0.0035 -1.0427 -0.0706
  210MOL     C442222   7.735   4.028   5.568  0.0140  0.4081  0.5438
  210MOL     H542223   7.646   3.792   5.462 -1.7981 -1.6828 -1.3608
  210MOL     H642224   7.490   3.864   5.493 -0.7729  0.8312 -0.8997
  210MOL     H742225   7.713   4.006   5.348 -1.0846  2.7098 -0.7527
  210MOL     H842226   7.584   4.087   5.424 -1.3009 -1.2276  4.1974
  210MOL     H942227   7.784   3.937   5.603  0.2580  0.7103  0.9846
  210MOL    H1042228   7.673   4.075   5.644 -1.3081  1.9714 -1.4425
  210MOL    H1142229   7.557   3.753   5.289 -1.2850 -0.3785  1.5227
  210MOL    O1242230   0.054   4.113   5.533  0.7173 -0.5557 -0.1436
  210MOL    C1342231   0.143   4.132   5.647  0.4120  0.4405 -0.6167
  210MOL    C1442232   0.273   4.211   5.595  0.0053 -0.1783  0.5891
  210MOL    C1542233   0.353   4.133   5.496 -0.4756 -0.4842 -0.0397
  210MOL    H1642234   0.179   4.034   5.678 -1.7562  0.4157  2.0196
  210MOL    H1742235   0.103   4.183   5.734  0.1587 -0.3976 -0.2305
  210MOL    H1842236   0.238   4.298   5.538 -1.6601 -0.2978  1.3910
  210MOL    H1942237   0.334   4.244   5.679  2.7169  0.0875 -1.4410
  210MOL    H2042238   0.303   4.080   5.414 -0.1562 -1.8419  0.6354
  210MOL    H2142239   0.394   4.051   5.555  1.8715  1.5186  1.1540
  210MOL    O2242240   0.454   4.217   5.444  0.4564 -0.0735 -0.1164
  210MOL    C2342241   0.420   4.302   5.339  0.1677 -0.2630  0.5601
  210MOL    C2442242   0.555   4.373   5.298 -0.6852 -0.6890 -0.2522
  210MOL    C2542243   0.553   4.415   5.151  0.1034 -0.4717  0.1845
  210MOL    H2642244   0.353   4.379   5.379  1.1586  2.1224 -2.1899
  210MOL    H2742245   0.367   4.248   5.261  2.8308  0.3038 -1.7197
  210MOL    H2842246   0.566   4.448   5.377  1.9715 -1.0949 -0.1778
  210MOL    H2942247   0.647   4.315   5.303 -1.2462 -1.8954 -3.2436
  210MOL    H3042248   0.472   4.487   5.135  1.3791  1.1468  0.8150
  210MOL    H3142249   0.521   4.328   5.094 -2.0053 -0.7302  1.6712
  210MOL    O3242250   0.679   4.472   5.134  0.3818  0.3144 -0.7308
  210MOL    C3342251   0.699   4.506   5.001 -0.3055  0.3500  0.5595
  210MOL    C3442252   0.741   4.653   4.990 -0.1305  0.6241 -0.2194
  210MOL    C3542253   0.706   4.725   4.861  0.9106 -0.0058  0.7506
  210MOL    H3642254   0.619   4.466   4.939  1.1760  1.8803 -2.4576
  210MOL    H3742255   0.779   4.451   4.951 -1.1262 -1.9775  1.7635
  210MOL    H3842256   0.689   4.713   5.065 -1.3998  1.4602 -1.7169
  210MOL    H3942257   0.848   4.667   5.004 -0.4589  1.7001  1.3266
  210MOL    H4042258   0.709   4.833   4.871 -3.6093  0.3323 -0.5075
  210MOL    H4142259   0.604   4.704   4.828  1.0728  0.3932 -0.0186
  210MOL    O4242260   0.804   4.688   4.762 -0.0328  0.2515  0.1098
  210MOL    C4342261   0.760   4.719   4.633  0.0555  0.2304  0.7866
  210MOL    C4442262   0.883   4.690   4.538 -0.0343 -0.1002 -0.0468
  210MOL    C4542263   0.865   4.716   4.390 -0.1940 -0.0510 -0.1045
  210MOL    H4642264   0.731   4.824   4.623  0.5566  0.1696 -1.4574
  210MOL    H4742265   0.675   4.658   4.602  1.3967 -1.6145  0.6782
  210MOL    H4842266   0.975   4.740   4.569 -0.1523 -0.7417  1.3888
  210MOL    H4942267   0.911   4.585   4.537  0.5471  0.0138  1.8666
  210MOL    H5042268   0.828   4.817   4.373 -0.7414  0.0024  1.3226
  210MOL    H5142269   0.806   4.632   4.355  0.4134 -1.4598  2.1626
  210MOL    O5242270   0.996   4.702   4.330 -0.3206  0.0701  0.4154
  210MOL    C5342271   0.994   4.753   4.196  0.4861  0.5377  0.0035
  210MOL    C5442272   1.138   4.772   4.162 -0.0018  0.2700  0.1667
  210MOL    C5542273   1.167   4.858   4.033 -0.1341 -0.3382  0.4817
  210MOL    H5642274   0.955   4.855   4.202  1.8961  1.1882 -1.5020
  210MOL    H5742275   0.940   4.689   4.127 -0.0524  1.6744 -0.6423
  210MOL    H5842276   1.195   4.811   4.247 -0.9858  0.9804  0.5040
  210MOL    H5942277   1.191   4.677   4.149  2.6710  1.6906  0.2584
  210MOL    H6042278   1.124   4.958   4.040 -1.2805 -0.8799  1.2866
  210MOL    H6142279   1.130   4.808   3.944  1.3420  1.4631 -1.1835
  210MOL    O6242280   1.309   4.863   4.013  0.1487  0.3953 -0.3100
  210MOL    C6342281   1.348   4.947   3.909  0.1569  0.5829 -0.6676
  210MOL    C6442282   1.488   4.912   3.860 -0.0545 -0.1871  1.0018
  210MOL    C6542283   1.520   4.962   3.723 -0.0407 -0.1245  0.4735
  210MOL    H6642284   1.336   5.048   3.947  0.4124  0.8626 -1.3311
  210MOL    H6742285   1.280   4.930   3.826 -0.3687  2.0607 -0.5534
  210MOL    H6842286   1.559   4.948   3.935  0.4797  0.0412  0.3967
  210MOL    H6942287   1.494   4.804   3.872 -1.3897 -0.2470  1.1495
  210MOL    H7042288   1.513   5.071   3.728 -1.6173 -0.1201 -1.2250
  210MOL    H7142289   1.449   4.928   3.648  0.3856  0.5234 -0.2307
  210MOL    O7242290   1.648   4.908   3.681 -0.4315  0.2539 -0.1490
  210MOL    C7342291   1.699   4.977   3.570  0.6392 -0.2098 -0.1169
  210MOL    C7442292   1.806   4.905   3.488  0.4470  0.0638  0.1963
  210MOL    C7542293   1.750   4.767   3.454  0.2001  0.7591  0.6041
  210MOL    H7642294   1.738   5.074   3.602 -2.1194  0.7152  0.5896
  210MOL    H7742295   1.618   4.996   3.499  0.0245 -1.8562  0.1166
  210MOL    H7842296   1.829   4.974   3.407 -1.1381 -0.5806 -0.8368
  210MOL    H7942297   1.901   4.892   3.540  1.3598 -1.0963 -1.6850
  210MOL    H8042298   1.700   4.712   3.534  1.0269 -1.1382 -0.1591
  210MOL    H8142299   1.830   4.708   3.409  1.3223  0.0992  3.3572
  210MOL    O8242300   1.656   4.766   3.346  0.2934 -0.3354 -0.1749
  210MOL    C8342301   1.565   4.655   3.344 -0.7232  0.0454 -1.0884
  210MOL    C8442302   1.469   4.672   3.229  0.5391 -0.2502  0.5700
  210MOL    C8542303   1.509   4.652   3.080 -0.4216 -0.8096  1.0985
  210MOL    H8642304   1.507   4.655   3.436  1.9728  1.8943  0.7250
  210MOL    H8742305   1.614   4.559   3.327 -1.8797 -0.4727 -1.5207
  210MOL    H8842306   1.394   4.598   3.257  0.0448  0.7309  1.8424
  210MOL    H8942307   1.418   4.768   3.232  2.6019  0.8665  0.9036
  210MOL    H9042308   1.567   4.561   3.069 -1.1608 -0.9840 -1.9362
  210MOL    H9142309   1.556   4.749   3.062 -1.7769 -0.5377 -1.1138
  210MOL    O9242310   1.381   4.649   3.005 -0.4094 -0.1457  0.1221
  210MOL    C9342311   1.405   4.633   2.867  0.7908 -0.1923 -0.4038
  210MOL    C9442312   1.275   4.668   2.799  0.0038  0.3005 -0.5453
  210MOL    C9542313   1.296   4.705   2.647  0.3394  0.1115 -0.1785
  210MOL    H9642314   1.466   4.544   2.847 -0.1600 -0.6273 -1.3674
  210MOL    H9742315   1.474   4.714   2.843  1.9463 -1.3775 -1.1834
  210MOL    H9842316   1.206   4.586   2.820  1.4418 -0.7969 -0.0395
  210MOL    H9942317   1.230   4.752   2.851 -2.9055 -0.5728 -1.5685
  210MOL   H10042318   1.319   4.615   2.590 -0.1664 -0.1094 -0.0354
  210MOL   H10142319   1.384   4.770   2.640  0.1107  0.5371  0.7969
  210MOL   O10242320   1.175   4.765   2.601 -0.2376 -0.4289 -0.4368
  210MOL   C10342321   1.194   4.865   2.511 -0.2159 -0.2538  0.1887
  210MOL   C10442322   1.069   4.906   2.433  0.1021  0.2595  0.7670
  210MOL   C10542323   1.103   4.968   2.296  0.1537  0.2874 -0.2055
  210MOL   H10642324   1.268   4.828   2.441  0.2199  1.1915 -0.1426
  210MOL   H10742325   1.243   4.955   2.548 -0.6943 -0.2044  0.7115
  210MOL   H10842326   0.994   4.827   2.426  1.6974 -1.2863  0.7511
  210MOL   H10942327   1.013   4.974   2.497 -0.7603  0.3946 -0.1306
  210MOL   H11042328   1.165   4.897   2.240 -0.3469 -1.3570  1.2930
  210MOL   H11142329   1.173   5.050   2.311  3.5881 -2.5735  0.1774
  210MOL   O11242330   0.988   5.012   2.230  0.1369  0.2815  0.1466
  210MOL   C11342331   1.007   5.097   2.117  1.3407 -0.1890  0.0476
  210MOL   C11442332   1.079   5.033   2.000  0.5053  0.3463  0.7647
  210MOL   C11542333   1.098   5.136   1.887  0.0795 -0.3319  0.3265
  210MOL   H11642334   1.058   5.185   2.155 -1.2056  1.6956 -0.7835
  210MOL   H11742335   0.905   5.128   2.095  2.1557  1.1660 -1.9907
  210MOL   H11842336   1.179   4.999   2.025 -0.4248 -2.5946  0.6693
  210MOL   H11942337   1.025   4.942   1.974  1.2269  1.0806 -3.6316
  210MOL   H12042338   1.004   5.172   1.846  1.7944  2.8480 -1.0057
  210MOL   H12142339   1.146   5.090   1.801  0.3106 -0.4710  0.5294
  210MOL   O12242340   1.178   5.244   1.930 -0.2328 -0.2038  0.1738
  210MOL   C12342341   1.203   5.343   1.830 -0.1112 -0.2271  1.2315
  210MOL   C12442342   1.264   5.473   1.885  0.1299  0.4078  0.5039
  210MOL   C12542343   1.314   5.571   1.775 -0.3646 -0.6074 -0.1615
  210MOL   H12642344   1.115   5.363   1.769  1.8483  2.2375 -0.8947
  210MOL   H12742345   1.275   5.295   1.763 -1.1084 -0.9620  0.6663
  210MOL   H12842346   1.196   5.519   1.957  0.9520  1.8974  0.3360
  210MOL   H12942347   1.355   5.443   1.936  2.7059  1.2595 -3.4202
  210MOL   H13042348   1.226   5.610   1.725 -0.5310  1.0884  1.3828
  210MOL   H13142349   1.374   5.525   1.697 -0.8228  0.0878 -0.9284
  210MOL   O13242350   1.379   5.686   1.839  0.5916  0.4769  0.0198
  210MOL   C13342351   1.446   5.756   1.739 -0.6236  0.1822  0.0659
  210MOL   C13442352   1.502   5.882   1.797  0.2465 -0.4232 -0.3816
  210MOL   C13542353   1.568   5.974   1.692  0.0293 -0.7265  0.4212
  210MOL   H13642354   1.387   5.766   1.648 -1.8210  0.4021  0.8612
  210MOL   H13742355   1.529   5.694   1.705  1.5144  1.5161  2.6558
  210MOL   H13842356   1.432   5.939   1.859 -0.8654 -1.3983 -0.7102
  210MOL   H13942357   1.577   5.859   1.873 -1.9542 -3.4000  1.0021
  210MOL   H14042358   1.496   6.003   1.616  1.0928 -2.2975 -1.2504
  210MOL   H14142359   1.655   5.919   1.654 -0.4075 -2.7112  2.2183
  210MOL   O14242360   1.636   6.076   1.760  0.0149  0.1707  0.1767
  210MOL   C14342361   1.697   6.179   1.681  0.3394 -0.5138  0.3699
  210MOL   C14442362   1.790   6.262   1.773 -0.3355  0.0344 -0.0683
  210MOL   C14542363   1.725   6.353   1.869  0.1644 -0.0473 -0.2004
  210MOL   H14642364   1.613   6.236   1.641 -0.4842 -1.7176  0.3733
  210MOL   H14742365   1.748   6.141   1.593 -0.0860 -0.5798  0.1543
  210MOL   H14842366   1.856   6.200   1.833  0.3094 -1.8198 -2.5879
  210MOL   H14942367   1.855   6.323   1.710  0.2928  0.5414  1.0636
  210MOL   H15042368   1.699   6.297   1.959  3.9327  0.0212  1.0310
  210MOL   H15142369   1.636   6.397   1.825  0.1819 -1.2212 -1.4501
  210MOL   O15242370   1.820   6.449   1.908  0.0451  0.4979  0.1796
  210MOL   C15342371   1.777   6.550   1.991 -0.0440  0.9074 -0.1568
  210MOL   C15442372   1.908   6.628   2.008  0.0998  0.2619 -0.2537
  210MOL   C15542373   1.898   6.759   2.082 -0.3841 -0.8220  0.0362
  210MOL   H15642374   1.739   6.510   2.085  0.8214 -1.7067 -0.8581
  210MOL   H15742375   1.698   6.608   1.943 -1.6058  0.0833  1.3796
  210MOL   H15842376   1.984   6.567   2.058 -0.1179 -0.2527 -0.5431
  210MOL   H15942377   1.944   6.653   1.908  2.0487 -0.5678  0.2244
  210MOL   H16042378   1.814   6.825   2.061 -0.7132 -1.1004  0.4877
  210MOL   H16142379   1.985   6.816   2.048 -1.1736  1.5005  1.8013
  210MOL   O16242380   1.908   6.748   2.221 -0.1792  0.0222  0.4615
  210MOL   C16342381   1.884   6.865   2.291  1.2143 -0.9487  0.1350
  210MOL   C16442382   1.921   6.834   2.439  0.4730  0.0201 -0.8890
  210MOL   C16542383   1.897   6.957   2.523  0.6103 -0.3428  0.3324
  210MOL   H16642384   1.778   6.891   2.287  1.0776 -1.4829  0.2745
  210MOL   H16742385   1.950   6.944   2.255 -1.9685  1.0143 -1.6718
  210MOL   H16842386   1.849   6.759   2.471  0.0031  0.6714 -0.4189
  210MOL   H16942387   2.020   6.793   2.459  0.5641  1.3605  1.5802
  210MOL   H17042388   1.896   6.939   2.631 -0.7109  1.9539  0.7252
  210MOL   H17142389   1.798   7.002   2.511  0.2387 -1.1478  0.3596
  210MOL   O17242390   1.985   7.064   2.492 -0.2004  0.1410  0.3078
  210MOL   C17342391   1.972   7.185   2.566 -0.1869 -0.6217 -0.5100
  210MOL   C17442392   2.068   7.290   2.510  0.2216  0.5763 -0.0565
  210MOL   C17542393   2.056   7.420   2.580 -0.2751 -0.2576 -0.3653
  210MOL   H17642394   2.003   7.166   2.669  1.6269 -0.8380 -1.0785
  210MOL   H17742395   1.874   7.233   2.560  0.0724  0.3357  2.0592
  210MOL   H17842396   2.173   7.261   2.509  0.4805  1.3153  2.6796
  210MOL   H17942397   2.035   7.313   2.408 -0.4670 -0.0299  0.0247
  210MOL   H18042398   2.121   7.495   2.534 -0.4321 -1.2031 -2.1503
  210MOL   H18142399   2.073   7.413   2.688 -0.3461  2.2393 -0.1476
  210MOL   O18242400   1.920   7.473   2.564  0.2533 -0.0872 -0.0826
  210MOL   C18342401   1.908   7.593   2.643 -0.5239 -0.6886  0.4783
  210MOL   C18442402   1.761   7.630   2.603  0.0534 -0.1258  0.0625
  210MOL   C18542403   1.719   7.766   2.660  0.2464  0.6689  0.8391
  210MOL   H18642404   1.971   7.675   2.609  0.9672 -1.1857  2.0073
  210MOL   H18742405   1.930   7.577   2.748  2.0871  1.9335  0.3836
  210MOL   H18842406   1.748   7.627   2.495 -2.2715  1.0471  0.2848
  210MOL   H18942407   1.690   7.556   2.641 -0.7264  1.1099  1.0381
  210MOL   H19042408   1.615   0.003   2.639  0.8755  1.7060 -1.1203
  210MOL   H19142409   1.778   0.061   2.622  0.8671 -0.3618 -0.4680
  210MOL   O19242410   1.737   7.763   2.800 -0.8440 -0.6628  0.0204
  210MOL   C19342411   1.628   7.713   2.880 -0.5773  0.3142  0.1494
  210MOL   C19442412   1.658   7.698   3.026 -0.0906 -0.6331  0.3739
  210MOL   C19542413   1.802   7.639   3.048  0.4399 -0.1038 -0.6409
  210MOL   H19642414   1.590   7.616   2.846  1.7466  0.2820 -2.5921
  210MOL   H19742415   1.542   7.780   2.872 -0.9979 -0.1975  0.3328
  210MOL   H19842416   1.649   0.007   3.076  0.1190 -1.3067  1.7289
  210MOL   H19942417   1.585   7.636   3.078 -0.9784  1.1247  1.2917
  210MOL   H20042418   1.810   7.537   3.010  1.7063 -0.2149 -0.1022
  210MOL   H20142419   1.826   7.628   3.154 -3.0097 -1.8595  0.0461
  210MOL   H20242420   1.887   7.692   3.007  1.3269 -0.5532  0.5581
  211MOL     O142421   7.220   1.379   1.600  0.1787 -0.0591 -0.1930
  211MOL     C242422   7.288   1.355   1.721  0.0365  0.1510 -0.0276
  211MOL     C342423   7.193   1.335   1.838 -0.1418 -0.2947  0.1860
  211MOL     C442424   7.271   1.340   1.974  0.4568  0.1835  0.0796
  211MOL     H542425   7.358   1.438   1.732  1.6905 -0.7471 -2.9717
  211MOL     H642426   7.344   1.262   1.712 -1.7161 -0.9362  0.1716
  211MOL     H742427   7.106   1.402   1.837  0.6319  0.7056 -1.3454
  211MOL     H842428   7.144   1.238   1.838 -0.7536  0.0046  0.7570
  211MOL     H942429   7.355   1.408   1.957 -0.0468  0.4057 -1.5616
  211MOL    H1042430   7.315   1.244   2.002 -1.4736 -0.6526  0.2963
  211MOL    H1142431   7.282   1.408   1.535 -0.6414 -2.0017 -1.9388
  211MOL    O1242432   7.188   1.387   2.081  0.1628  0.0408  0.1078
  211MOL    C1342433   7.256   1.398   2.200 -0.3161 -0.7049 -0.1632
  211MOL    C1442434   7.161   1.468   2.298 -0.6476 -0.2420  0.3855
  211MOL    C1542435   7.216   1.524   2.423  0.4704  0.0941 -0.3395
  211MOL    H1642436   7.347   1.455   2.187 -0.4279 -0.7831 -1.2962
  211MOL    H1742437   7.296   1.311   2.253  2.7453 -0.6078 -2.2358
  211MOL    H1842438   7.108   1.540   2.236  0.2717 -1.4001 -1.8362
  211MOL    H1942439   7.096   1.387   2.330 -0.5739 -0.0224  1.1049
  211MOL    H2042440   7.249   1.440   2.485 -0.7962 -1.1366 -1.3189
  211MOL    H2142441   7.127   1.565   2.470 -0.2285 -1.1534 -0.5658
  211MOL    O2242442   7.304   1.630   2.410 -0.5772 -0.2388  0.5322
  211MOL    C2342443   7.329   1.714   2.523 -0.5367  0.5014 -0.0816
  211MOL    C2442444   7.426   1.825   2.480  0.3951 -0.1035  0.0414
  211MOL    C2542445   7.485   1.903   2.594 -0.5784  0.5335  0.4046
  211MOL    H2642446   7.360   1.654   2.609 -0.8426 -0.6414 -0.7695
  211MOL    H2742447   7.232   1.753   2.552 -1.0018 -0.1652 -0.7355
  211MOL    H2842448   7.506   1.777   2.423  0.4743  0.0314  0.0406
  211MOL    H2942449   7.371   1.901   2.425 -0.9835  0.2842  1.8834
  211MOL    H3042450   7.568   1.848   2.638  1.0423  2.0866 -0.6228
  211MOL    H3142451   7.421   1.922   2.679 -0.1308 -1.3708  1.2040
  211MOL    O3242452   7.530   2.029   2.545  0.2664 -0.0950 -0.0604
  211MOL    C3342453   7.545   2.140   2.631  0.2102 -0.9200 -1.2443
  211MOL    C3442454   7.571   2.266   2.547  0.4547  0.4119  0.1956
  211MOL    C3542455   7.613   2.385   2.626  0.5852  0.7675 -0.5287
  211MOL    H3642456   7.623   2.121   2.704 -1.0191  2.4625  1.0834
  211MOL    H3742457   7.453   2.158   2.687  1.1939  1.0668 -0.2273
  211MOL    H3842458   7.660   2.260   2.485 -0.6861 -0.7855 -1.3814
  211MOL    H3942459   7.499   2.292   2.469  0.1091  0.6925  0.6062
  211MOL    H4042460   7.655   2.454   2.554  1.8615 -0.6368 -1.1519
  211MOL    H4142461   7.693   2.365   2.698  0.4067 -0.7577 -0.7495
  211MOL    O4242462   7.507   2.470   2.662  0.4319  0.3335  0.0263
  211MOL    C4342463   7.452   2.455   2.793  0.2352 -0.6519  0.0161
  211MOL    C4442464   7.356   2.571   2.837 -0.1517 -0.9050 -0.0411
  211MOL    C4542465   7.294   2.550   2.967 -0.6714  0.2834  0.0411
  211MOL    H4642466   7.532   2.434   2.864  1.3915 -0.4104 -1.1929
  211MOL    H4742467   7.400   2.359   2.791 -0.8212 -0.0688 -3.3309
  211MOL    H4842468   7.422   2.657   2.841 -1.0608 -0.2086 -0.0245
  211MOL    H4942469   7.280   2.597   2.764 -0.1028  2.8017  1.1708
  211MOL    H5042470   7.270   2.444   2.973 -0.5567  0.0713 -2.7520
  211MOL    H5142471   7.202   2.607   2.982 -1.8601 -1.2899 -1.1289
  211MOL    O5242472   7.379   2.592   3.075 -0.0831 -0.7362  0.6997
  211MOL    C5342473   7.325   2.586   3.198  0.2357  0.9064  0.2140
  211MOL    C5442474   7.435   2.593   3.308 -0.2350 -0.3189 -0.6353
  211MOL    C5542475   7.382   2.594   3.453 -0.0067 -0.1950 -0.0883
  211MOL    H5642476   7.253   2.505   3.211  0.0352  0.5946 -2.4446
  211MOL    H5742477   7.248   2.662   3.211  0.2283  1.3157 -1.9249
  211MOL    H5842478   7.509   2.514   3.300  1.4603  1.0891  0.8750
  211MOL    H5942479   7.476   2.690   3.283 -0.0491 -0.8260 -2.3510
  211MOL    H6042480   7.278   2.626   3.454 -0.0341 -0.2810  1.9488
  211MOL    H6142481   7.433   2.659   3.524 -1.8862  1.7489 -0.4813
  211MOL    O6242482   7.384   2.461   3.490  0.2523  0.4832  0.5153
  211MOL    C6342483   7.346   2.441   3.621 -0.0314  0.4497 -0.1403
  211MOL    C6442484   7.345   2.302   3.677 -0.5380  0.6073  0.1801
  211MOL    C6542485   7.258   2.206   3.595  0.6039  0.2773 -0.2989
  211MOL    H6642486   7.244   2.480   3.621  0.6870  2.3719  0.2943
  211MOL    H6742487   7.403   2.509   3.685  1.4548  0.4000 -1.3676
  211MOL    H6842488   7.448   2.265   3.685 -0.1118  1.5017 -1.0460
  211MOL    H6942489   7.305   2.295   3.778 -2.5093  0.8305 -0.5776
  211MOL    H7042490   7.292   2.191   3.493 -1.7418 -1.2668 -0.8836
  211MOL    H7142491   7.156   2.246   3.591  0.8772  1.1671  1.2150
  211MOL    O7242492   7.261   2.082   3.665 -0.2712  0.4324  0.1946
  211MOL    C7342493   7.210   1.978   3.583 -0.0967  0.6650 -0.2161
  211MOL    C7442494   7.152   1.862   3.668 -0.3381  0.7186 -0.5970
  211MOL    C7542495   7.265   1.772   3.724  0.5759  0.8133 -0.2603
  211MOL    H7642496   7.285   1.937   3.517 -0.6121  0.2615 -0.5571
  211MOL    H7742497   7.136   2.010   3.510 -1.5426  0.3820  1.0905
  211MOL    H7842498   7.093   1.904   3.750 -2.6656 -1.7371 -0.9607
  211MOL    H7942499   7.086   1.810   3.599 -0.6854  0.5616 -0.1480
  211MOL    H8042500   7.344   1.825   3.777  0.4450  0.8201 -0.0684
  211MOL    H8142501   7.298   1.714   3.639 -1.7457 -2.4117  0.9656
  211MOL    O8242502   7.203   1.693   3.818  0.0196  0.3948 -0.1667
  211MOL    C8342503   7.280   1.587   3.850  0.0001  0.9121  0.4427
  211MOL    C8442504   7.203   1.499   3.955 -0.3166  0.9649  0.0274
  211MOL    C8542505   7.259   1.362   3.945 -1.0752 -0.5354 -0.6144
  211MOL    H8642506   7.380   1.616   3.880 -0.4710  1.8814  1.1365
  211MOL    H8742507   7.278   1.531   3.757 -2.4612  0.8291  0.4925
  211MOL    H8842508   7.204   1.539   4.056  1.5243 -0.7948  0.7345
  211MOL    H8942509   7.099   1.481   3.926  0.2476  1.0142 -2.0925
  211MOL    H9042510   7.250   1.324   3.843 -0.6321 -0.1264 -0.8150
  211MOL    H9142511   7.221   1.298   4.024  1.3102  1.0195  1.8928
  211MOL    O9242512   7.400   1.358   3.969  0.4641  0.1517  0.0436
  211MOL    C9342513   7.453   1.241   3.919 -0.5673  0.2134 -0.4691
  211MOL    C9442514   7.601   1.234   3.959 -0.1768 -0.9884  0.4571
  211MOL    C9542515   7.621   1.181   4.099 -0.1330  0.2636 -0.8658
  211MOL    H9642516   7.460   1.251   3.811 -0.6889  0.6903 -0.4313
  211MOL    H9742517   7.404   1.147   3.948  0.8012 -0.4403 -0.2457
  211MOL    H9842518   7.659   1.168   3.895  0.8997 -1.1266  1.5601
  211MOL    H9942519   7.640   1.336   3.950 -0.5736 -1.0985 -3.3188
  211MOL   H10042520   7.635   1.073   4.087 -0.6661  0.4378 -3.3571
  211MOL   H10142521   7.545   1.195   4.176 -0.1609  0.3827 -0.9152
  211MOL   O10242522   7.736   1.251   4.145  0.3818 -0.0882 -0.1070
  211MOL   C10342523   0.004   1.206   4.274 -0.1458 -0.0555  0.2489
  211MOL   C10442524   0.105   1.098   4.261 -0.0183 -0.3256 -0.5250
  211MOL   C10542525   0.211   1.096   4.376  0.1400  0.2756  0.3947
  211MOL   H10642526   7.714   1.185   4.347 -0.4718 -1.1683 -0.4160
  211MOL   H10742527   0.053   1.295   4.314 -0.2509 -1.4631  3.6451
  211MOL   H10842528   0.063   0.999   4.244  1.0096 -0.6681 -1.1122
  211MOL   H10942529   0.162   1.114   4.170  1.7059 -2.3646  0.1706
  211MOL   H11042530   0.174   1.113   4.477  1.0301  0.1313  0.7564
  211MOL   H11142531   0.272   1.186   4.366 -0.3668  1.0231  3.5700
  211MOL   O11242532   0.298   0.990   4.361 -0.5251 -0.0672  0.2680
  211MOL   C11342533   0.422   1.005   4.429 -0.0790 -0.5212  0.8098
  211MOL   C11442534   0.520   0.893   4.394 -0.2439  0.6089 -1.2751
  211MOL   C11542535   0.584   0.903   4.256 -0.6758 -0.9890  0.0302
  211MOL   H11642536   0.393   0.993   4.534 -1.6242 -0.1698  0.4326
  211MOL   H11742537   0.463   1.105   4.413 -1.0942 -0.4312 -1.3925
  211MOL   H11842538   0.601   0.889   4.467 -1.8860 -0.0607  0.5587
  211MOL   H11942539   0.476   0.794   4.406  0.2834  0.7292  1.9812
  211MOL   H12042540   0.623   1.003   4.238  1.0247 -1.6791 -0.1896
  211MOL   H12142541   0.497   0.899   4.190  0.1349  2.0327 -1.2836
  211MOL   O12242542   0.672   0.792   4.246  0.4039 -0.5012 -0.2292
  211MOL   C12342543   0.776   0.789   4.156  0.1376 -0.3848  0.2751
  211MOL   C12442544   0.732   0.819   4.008 -0.5240 -0.2165  0.6740
  211MOL   C12542545   0.843   0.791   3.918 -0.3229 -0.1857 -0.7042
  211MOL   H12642546   0.822   0.691   4.168 -0.2977 -0.5283  0.8218
  211MOL   H12742547   0.846   0.863   4.193 -1.1155 -0.0967  2.1598
  211MOL   H12842548   0.646   0.757   3.984 -2.0986  1.2237  2.4986
  211MOL   H12942549   0.687   0.916   3.985  3.3600  1.6178  0.3162
  211MOL   H13042550   0.794   0.773   3.822 -0.3330 -0.2011 -0.6961
  211MOL   H13142551   0.881   0.692   3.943  0.3652  0.0348 -0.8587
  211MOL   O13242552   0.941   0.895   3.930  0.1533  0.3924  0.1919
  211MOL   C13342553   1.068   0.853   3.888  0.1911 -0.1704  0.6607
  211MOL   C13442554   1.161   0.969   3.877 -0.1752  0.3404  0.1552
  211MOL   C13542555   1.300   0.929   3.817  0.6963  0.0519  0.5624
  211MOL   H13642556   1.059   0.809   3.788  0.9486 -0.7389  0.8385
  211MOL   H13742557   1.115   0.778   3.951  0.8793  0.4572  0.8952
  211MOL   H13842558   1.109   1.050   3.825  0.2217  0.3982 -0.1566
  211MOL   H13942559   1.170   1.011   3.977  0.7518 -0.3885  0.3850
  211MOL   H14042560   1.338   0.837   3.862  0.4377 -0.3047  0.0611
  211MOL   H14142561   1.375   1.003   3.846  0.3316  0.5800  0.1611
  211MOL   O14242562   1.288   0.931   3.677 -0.0991 -0.6731  0.2057
  211MOL   C14342563   1.417   0.901   3.614  0.6758  0.4256  0.1099
  211MOL   C14442564   1.468   1.031   3.546 -0.5253  0.2456  0.0435
  211MOL   C14542565   1.606   1.003   3.491 -0.1808 -0.6536  0.1821
  211MOL   H14642566   1.410   0.821   3.541  0.6324 -0.7173  1.3471
  211MOL   H14742567   1.488   0.861   3.687  0.3767  0.8423  0.6281
  211MOL   H14842568   1.408   1.058   3.459  1.0759 -1.4067 -1.6348
  211MOL   H14942569   1.469   1.118   3.612 -0.4302 -0.0188  0.3912
  211MOL   H15042570   1.599   0.931   3.409  0.6338 -1.2114  0.5930
  211MOL   H15142571   1.661   0.951   3.569  1.7188  1.1106  0.0687
  211MOL   O15242572   1.674   1.127   3.459  0.8051 -0.3070  0.4023
  211MOL   C15342573   1.647   1.173   3.325  0.4559 -0.3568 -0.3042
  211MOL   C15442574   1.552   1.300   3.315 -0.3130  0.0240 -0.2107
  211MOL   C15542575   1.641   1.422   3.338 -0.0217  0.9162 -0.2412
  211MOL   H15642576   1.612   1.085   3.271 -1.6577 -0.2319  0.8036
  211MOL   H15742577   1.743   1.199   3.281 -0.4835  1.2909 -1.4451
  211MOL   H15842578   1.515   1.295   3.213  0.0491  3.1625 -0.5534
  211MOL   H15942579   1.475   1.292   3.391  0.5048 -1.5247  0.4780
  211MOL   H16042580   1.667   1.423   3.444 -2.5923  0.7119  0.4161
  211MOL   H16142581   1.577   1.508   3.319  2.2147  2.7145  0.1478
  211MOL   O16242582   1.750   1.437   3.250  0.6308 -0.1266 -0.4397
  211MOL   C16342583   1.714   1.437   3.113  0.3186 -0.3029  0.3284
  211MOL   C16442584   1.853   1.449   3.046  0.9902 -0.4847 -0.5598
  211MOL   C16542585   1.857   1.468   2.889  0.0686 -0.8495 -0.0688
  211MOL   H16642586   1.649   1.522   3.091 -0.6274 -1.1285 -0.1296
  211MOL   H16742587   1.669   1.344   3.079  0.1600 -0.9355  2.2086
  211MOL   H16842588   1.890   1.541   3.090  1.3283 -0.1790 -1.4782
  211MOL   H16942589   1.919   1.367   3.075  0.1706 -0.7619  0.5732
  211MOL   H17042590   1.785   1.542   2.856 -1.9011 -2.5476  0.3022
  211MOL   H17142591   1.829   1.378   2.835 -0.1869 -0.4253 -0.6410
  211MOL   O17242592   1.984   1.506   2.856 -0.2023 -0.4819 -0.7926
  211MOL   C17342593   1.994   1.572   2.731  0.3576  0.1747  0.3485
  211MOL   C17442594   2.146   1.604   2.712  0.4064  0.0545  0.2778
  211MOL   C17542595   2.187   1.672   2.583  0.0756 -0.3145  0.1241
  211MOL   H17642596   1.930   1.661   2.728 -0.6191 -0.4474  1.8831
  211MOL   H17742597   1.957   1.511   2.648 -1.8512  1.2210  0.5196
  211MOL   H17842598   2.181   1.652   2.804 -0.1680  0.5514  0.2376
  211MOL   H17942599   2.189   1.504   2.709 -1.5775 -0.7882 -0.7734
  211MOL   H18042600   2.241   1.766   2.583  1.3876 -1.0528 -0.6557
  211MOL   H18142601   2.095   1.705   2.533 -0.8898 -0.0489  2.0152
  211MOL   O18242602   2.255   1.581   2.499 -0.6132 -0.3500  0.3856
  211MOL   C18342603   2.380   1.549   2.544 -0.1418  0.1037  0.7942
  211MOL   C18442604   2.423   1.414   2.471 -0.1230 -0.2735  0.8634
  211MOL   C18542605   2.549   1.342   2.520 -0.0803 -0.5397 -0.0066
  211MOL   H18642606   2.382   1.526   2.651  1.6125 -1.4655  0.4574
  211MOL   H18742607   2.456   1.622   2.517 -0.4999 -0.3740 -1.6519
  211MOL   H18842608   2.334   1.351   2.465 -0.1059 -0.2429  0.3293
  211MOL   H18942609   2.433   1.440   2.366  0.3422 -0.2834  0.9065
  211MOL   H19042610   2.636   1.407   2.525 -0.8930  0.4570  1.4933
  211MOL   H19142611   2.572   1.257   2.455  0.6590  0.2824 -0.8347
  211MOL   O19242612   2.526   1.288   2.648  0.4135 -0.4197 -0.4844
  211MOL   C19342613   2.628   1.291   2.741 -0.4374 -0.0867 -0.2037
  211MOL   C19442614   2.595   1.190   2.858 -0.8065 -0.5220  0.4565
  211MOL   C19542615   2.496   1.238   2.972  0.1555  0.0360 -0.1368
  211MOL   H19642616   2.657   1.392   2.770 -2.3388  0.6832 -0.8883
  211MOL   H19742617   2.722   1.253   2.703  0.5408  0.8481  1.2299
  211MOL   H19842618   2.543   1.104   2.815 -1.5772  1.1972 -2.1971
  211MOL   H19942619   2.688   1.143   2.889 -1.1191 -0.7798  1.0234
  211MOL   H20042620   2.419   1.305   2.935 -1.0398 -0.5791  1.1831
  211MOL   H20142621   2.564   1.283   3.043  0.5851 -0.5670 -0.1640
  211MOL   H20242622   2.443   1.157   3.022  0.2801 -0.5109 -0.8652
  212MOL     O142623   4.010   0.893   6.729 -0.2216 -0.0306 -0.0314
  212MOL     C242624   4.016   0.755   6.775  0.1390  0.5937 -0.5381
  212MOL     C342625   3.973   0.747   6.920  0.4645 -0.5323  0.1693
  212MOL     C442626   4.017   0.610   6.984  0.3089  0.2195 -0.2359
  212MOL     H542627   4.119   0.719   6.771  0.4438  0.9686  2.5891
  212MOL     H642628   3.962   0.686   6.710 -1.2113  3.4644 -2.5330
  212MOL     H742629   4.028   0.828   6.966 -0.5338  0.5470 -0.5213
  212MOL     H842630   3.868   0.768   6.940  0.5582 -0.5340  0.6782
  212MOL     H942631   3.997   0.610   7.092 -0.3012 -0.7037 -0.3398
  212MOL    H1042632   4.123   0.588   6.971  0.9368  2.1302  1.4361
  212MOL    H1142633   3.918   0.911   6.719 -0.3091  0.0702  0.8855
  212MOL    O1242634   3.926   0.522   6.923  0.0191  0.5765  0.5368
  212MOL    C1342635   3.938   0.382   6.965 -0.2314  0.4725  0.2744
  212MOL    C1442636   3.830   0.291   6.901 -0.0935  0.2995 -0.3742
  212MOL    C1542637   3.834   0.147   6.960 -0.2560  0.8232  0.5096
  212MOL    H1642638   3.938   0.373   7.073 -0.8323 -2.5987  0.0649
  212MOL    H1742639   4.038   0.343   6.948 -0.0625  1.0909 -0.2115
  212MOL    H1842640   3.729   0.333   6.904  0.3598  1.2356  2.5489
  212MOL    H1942641   3.852   0.286   6.794  0.5754  1.5216 -0.3009
  212MOL    H2042642   3.751   0.086   6.924  0.2072 -0.9163  2.2606
  212MOL    H2142643   3.815   0.151   7.067  2.0076  2.2616  0.8959
  212MOL    O2242644   3.958   0.088   6.932  0.0979  1.0590  0.0863
  212MOL    C2342645   3.951   7.733   6.961  0.0166 -0.5232  0.0053
  212MOL    C2442646   4.090   7.666   6.948  0.6883  0.0753 -0.2031
  212MOL    C2542647   4.199   7.724   7.046  1.0451  0.3780  0.1048
  212MOL    H2642648   3.889   7.694   6.880  2.2163 -0.7502 -1.5919
  212MOL    H2742649   3.909   7.717   7.060 -0.1208 -0.7417 -0.0867
  212MOL    H2842650   4.070   7.563   6.977  1.6730  0.5937  2.3982
  212MOL    H2942651   4.130   7.665   6.846  2.1958 -0.1277  0.3739
  212MOL    H3042652   4.199   0.043   7.027  2.2567  0.3211 -0.3015
  212MOL    H3142653   4.296   7.685   7.013 -0.3039 -1.6991 -1.5300
  212MOL    O3242654   4.173   7.692   7.179  0.0156  0.2607 -0.0553
  212MOL    C3342655   4.249   7.773   7.269 -0.0926  0.4090 -0.3385
  212MOL    C3442656   4.239   7.708   7.405 -0.0829 -0.0542 -0.4233
  212MOL    C3542657   4.315   7.770   7.520  0.0231 -0.0435 -0.3107
  212MOL    H3642658   4.204   0.083   7.255  0.3344  0.5036 -1.0620
  212MOL    H3742659   4.357   7.780   7.253 -0.0189 -1.9953 -1.0914
  212MOL    H3842660   4.133   7.711   7.431  0.5339  0.1328  2.2054
  212MOL    H3942661   4.280   7.609   7.386 -1.2708 -0.4573 -0.9271
  212MOL    H4042662   4.263   0.070   7.557 -0.9549 -0.6491 -0.2082
  212MOL    H4142663   4.410   0.022   7.486  0.4145  0.8615  1.7683
  212MOL    O4242664   4.338   7.673   7.623  0.2725 -0.7256 -0.5995
  212MOL    C4342665   4.364   7.733   7.751  0.7634 -0.1897  0.5205
  212MOL    C4442666   4.504   7.786   7.763  0.1958  0.3932 -0.7002
  212MOL    C4542667   4.542   0.046   0.116 -0.1741  0.2248  0.0899
  212MOL    H4642668   4.333   7.647   0.022 -0.1319 -0.8140 -0.8304
  212MOL    H4742669   4.293   0.022   7.779 -1.3543 -1.2837 -1.6596
  212MOL    H4842670   4.576   7.714   7.725  1.6008  0.0717  2.4353
  212MOL    H4942671   4.510   0.095   7.714 -0.1936  1.4039  1.2110
  212MOL    H5042672   4.497   7.780   0.199 -1.1533  0.2910 -0.3889
  212MOL    H5142673   4.537   0.155   0.123  1.1784  0.4360 -1.8115
  212MOL    O5242674   4.679   0.017   0.137 -0.6747 -0.3332 -0.3124
  212MOL    C5342675   4.713   7.672   0.175 -0.2927 -0.2359 -0.2301
  212MOL    C5442676   4.872   7.655   0.154 -0.1818 -1.0397 -0.8284
  212MOL    C5542677   4.911   7.519   0.221 -0.4719 -0.0731  0.3096
  212MOL    H5642678   4.666   7.592   0.117 -1.2379 -0.8738  1.3736
  212MOL    H5742679   4.688   7.651   0.279 -0.3304  1.9657  0.2212
  212MOL    H5842680   4.892   7.670   0.048  1.2076  0.3662 -0.3841
  212MOL    H5942681   4.920   7.741   0.202 -0.1164 -0.0749 -2.5766
  212MOL    H6042682   4.880   7.511   0.325 -0.7344 -3.1176  0.0372
  212MOL    H6142683   5.020   7.509   0.220 -0.4706 -0.0919 -0.7129
  212MOL    O6242684   4.840   7.417   0.148  0.0426 -0.1680 -0.1870
  212MOL    C6342685   4.877   7.291   0.204 -0.5028  0.5543  0.2299
  212MOL    C6442686   4.842   7.170   0.114 -0.2851  0.0685  0.6136
  212MOL    C6542687   4.700   7.127   0.126  0.1039 -0.7173  0.4889
  212MOL    H6642688   4.840   7.272   0.305  0.8855 -1.2461  0.4306
  212MOL    H6742689   4.986   7.290   0.210 -0.4748  0.7211 -0.2137
  212MOL    H6842690   4.858   7.189   0.008 -1.1439  3.2262  1.0065
  212MOL    H6942691   4.911   7.087   0.133  1.5840  1.7593  1.3903
  212MOL    H7042692   4.629   7.207   0.102 -1.0750 -1.6105  0.9099
  212MOL    H7142693   4.662   7.100   0.225 -0.7802  0.1297  0.3929
  212MOL    O7242694   4.675   7.027   0.030  0.2065 -0.4324  0.3442
  212MOL    C7342695   4.558   6.952   0.053  0.0816 -1.0057 -0.7009
  212MOL    C7442696   4.531   6.855   7.729  0.4155  0.4181 -0.2685
  212MOL    C7542697   4.515   6.927   7.591  0.0300 -0.2787  0.5226
  212MOL    H7642698   4.476   7.022   0.064 -0.1186 -0.9836 -2.2127
  212MOL    H7742699   4.576   6.906   0.150 -4.2735  2.5393  1.9486
  212MOL    H7842700   4.607   6.777   7.721 -0.0487 -0.2123  1.3266
  212MOL    H7942701   4.442   6.795   7.748  1.5396 -1.4025 -0.5806
  212MOL    H8042702   4.608   6.981   7.572  0.6198 -1.4174  0.0584
  212MOL    H8142703   4.434   6.999   7.593 -0.2053 -0.5479  0.7531
  212MOL    O8242704   4.482   6.827   7.491  0.4664  0.3082 -0.6447
  212MOL    C8342705   4.443   6.871   7.365  0.1397 -0.3629  0.7540
  212MOL    C8442706   4.334   6.779   7.309 -0.3289 -0.0869  0.2672
  212MOL    C8542707   4.289   6.834   7.169 -0.6865  0.2501  0.2603
  212MOL    H8642708   4.526   6.875   7.295 -1.1343  2.2754 -0.6623
  212MOL    H8742709   4.400   6.971   7.363 -0.7501 -0.7098  1.5711
  212MOL    H8842710   4.369   6.677   7.295 -3.8648 -1.5586  1.7514
  212MOL    H8942711   4.253   6.780   7.382 -0.5695 -0.4495  0.0050
  212MOL    H9042712   4.378   6.845   7.107 -0.3015 -0.9289  0.6029
  212MOL    H9142713   4.233   6.926   7.186 -2.1216 -1.0215  2.6542
  212MOL    O9242714   4.212   6.736   7.111 -0.4030 -0.5956 -0.2293
  212MOL    C9342715   4.099   6.784   7.037  0.4409  0.2226  0.0185
  212MOL    C9442716   4.141   6.867   6.911  0.1490 -0.2069  0.5407
  212MOL    C9542717   4.024   6.937   6.837 -0.0660  0.1447 -0.2313
  212MOL    H9642718   4.026   6.840   7.096 -2.4794 -3.1982 -0.1459
  212MOL    H9742719   4.041   6.704   6.992 -1.9734  1.8619  0.1270
  212MOL    H9842720   4.207   6.945   6.949 -2.0448  0.2391  3.5918
  212MOL    H9942721   4.201   6.804   6.846 -0.7297  2.0392 -2.5758
  212MOL   H10042722   3.959   6.990   6.907 -0.2097  1.4611 -1.3539
  212MOL   H10142723   3.962   6.866   6.782  2.5011 -1.9425 -0.5204
  212MOL   O10242724   4.074   7.028   6.747 -0.2398 -0.4001 -0.6913
  212MOL   C10342725   3.975   7.119   6.687 -0.5942 -0.0840 -0.2422
  212MOL   C10442726   4.047   7.206   6.573  0.0681 -0.1764 -0.0436
  212MOL   C10542727   4.152   7.299   6.633 -0.9109 -0.3945 -0.0190
  212MOL   H10642728   3.926   7.177   6.765  1.0452  1.3243 -0.2425
  212MOL   H10742729   3.901   7.053   6.642 -1.5995  0.3159  0.8058
  212MOL   H10842730   4.098   7.151   6.494  1.8967  0.4704  0.6656
  212MOL   H10942731   3.972   7.271   6.527  0.2899 -1.1847 -1.8556
  212MOL   H11042732   4.234   7.249   6.686  2.3013  4.2034 -0.3018
  212MOL   H11142733   4.108   7.362   6.711  0.4491 -0.5120  0.8696
  212MOL   O11242734   4.205   7.374   6.526  0.0748  0.1874  0.3564
  212MOL   C11342735   4.310   7.474   6.551  0.4064  0.5633  0.6113
  212MOL   C11442736   4.394   7.517   6.431 -0.4440 -0.7171  0.0776
  212MOL   C11542737   4.483   7.639   6.451 -0.4977  0.1116 -0.6730
  212MOL   H11642738   4.379   7.446   6.631 -0.0400  1.6280  1.3798
  212MOL   H11742739   4.275   7.565   6.597 -1.5919 -1.0708  2.4091
  212MOL   H11842740   4.447   7.426   6.404  0.7739 -0.4553  1.5161
  212MOL   H11942741   4.330   7.537   6.345 -0.1343  2.5402  0.5382
  212MOL   H12042742   4.546   7.627   6.539  1.2244 -3.2612 -2.2646
  212MOL   H12142743   4.427   7.733   6.455  0.1430  0.4264  1.2774
  212MOL   O12242744   4.576   7.645   6.343  0.8271  1.0343 -0.2341
  212MOL   C12342745   4.663   7.757   6.346  0.3383 -0.1011 -0.0264
  212MOL   C12442746   4.725   7.769   6.205  0.5028 -0.1713 -0.4391
  212MOL   C12542747   4.624   0.033   6.106 -0.5535  0.2078 -0.4860
  212MOL   H12642748   4.747   7.729   6.410  0.7200  0.5587 -0.2222
  212MOL   H12742749   4.616   0.060   6.384  2.3202 -0.8988  4.6206
  212MOL   H12842750   4.808   0.051   6.210 -1.1116  1.8526 -1.2106
  212MOL   H12942751   4.765   7.673   6.173  0.3710 -0.7231  1.0337
  212MOL   H13042752   4.533   7.762   6.117 -0.0330  0.0264  3.4877
  212MOL   H13142753   4.666   0.025   6.006  2.1324  1.7202  0.4681
  212MOL   O13242754   4.594   0.170   6.127 -0.2398  0.0225 -0.5053
  212MOL   C13342755   4.519   0.238   6.027 -0.2720  0.2899  0.5225
  212MOL   C13442756   4.379   0.175   6.003  0.0054  0.2573 -0.4497
  212MOL   C13542757   4.280   0.190   6.114 -0.4836 -0.7133  0.1673
  212MOL   H13642758   4.574   0.233   5.933 -0.3479  0.5784  0.4635
  212MOL   H13742759   4.511   0.343   6.055 -1.6208  0.3971 -0.2480
  212MOL   H13842760   4.334   0.216   5.913  0.7715 -0.5630 -1.2199
  212MOL   H13942761   4.398   0.069   5.986 -2.3638 -0.0660 -1.2004
  212MOL   H14042762   4.276   0.296   6.137  1.5729 -0.4894 -0.4375
  212MOL   H14142763   4.308   0.123   6.195  3.6751  1.7223  0.8681
  212MOL   O14242764   4.150   0.144   6.074  0.0870 -0.2300  0.1165
  212MOL   C14342765   4.053   0.135   6.176  0.2435 -0.0002 -0.4751
  212MOL   C14442766   3.917   0.118   6.108 -0.5046  0.2491  0.4229
  212MOL   C14542767   3.797   0.146   6.195  0.1357  0.0263  0.0188
  212MOL   H14642768   4.040   0.231   6.226  0.7650 -0.3343  0.3244
  212MOL   H14742769   4.077   0.058   6.249 -0.0631  1.1624  0.8700
  212MOL   H14842770   3.914   0.172   6.013  1.1104  0.5223  0.5140
  212MOL   H14942771   3.914   0.013   6.079 -0.2366  1.1240 -2.9877
  212MOL   H15042772   3.784   0.251   6.225 -1.0789 -0.0653 -0.1642
  212MOL   H15142773   3.805   0.090   6.288  1.7255 -0.9325 -0.6790
  212MOL   O15242774   3.681   0.091   6.135 -0.5842  0.0626 -0.1523
  212MOL   C15342775   3.653   0.162   6.008 -0.5846  0.1910  0.0868
  212MOL   C15442776   3.510   0.129   5.967  0.6019 -0.2342  0.1430
  212MOL   C15542777   3.480   0.164   5.821 -0.3249 -0.1601  0.4811
  212MOL   H15642778   3.720   0.117   5.935  2.8265  0.8776  2.6726
  212MOL   H15742779   3.688   0.265   5.997  0.7486 -0.4239 -1.4870
  212MOL   H15842780   3.498   0.022   5.982 -1.1592 -0.1595 -0.5392
  212MOL   H15942781   3.440   0.182   6.033  0.2005  0.9239 -1.1760
  212MOL   H16042782   3.566   0.119   5.771 -0.5232  0.1362 -0.1236
  212MOL   H16142783   3.483   0.272   5.807 -3.3698  0.0002  0.6772
  212MOL   O16242784   3.355   0.106   5.785 -0.3159  0.0696  0.4765
  212MOL   C16342785   3.290   0.186   5.684 -0.4959  0.1113 -0.5299
  212MOL   C16442786   3.176   0.099   5.629  0.1055  0.1989  0.3592
  212MOL   C16542787   3.079   0.167   5.529 -0.0969  0.0553  0.2043
  212MOL   H16642788   3.367   0.196   5.607  0.9454  1.0201  0.9972
  212MOL   H16742789   3.259   0.285   5.716  0.9105  0.0424  1.0970
  212MOL   H16842790   3.221   0.027   5.561  0.6677  1.3819 -0.5315
  212MOL   H16942791   3.125   0.042   5.707  1.1889 -0.9525  0.2463
  212MOL   H17042792   3.142   0.231   5.467 -1.4480  2.3851  1.1703
  212MOL   H17142793   3.007   0.229   5.583 -1.5912  0.0680 -1.7629
  212MOL   O17242794   3.016   0.069   5.454  0.0709 -0.2452  0.8546
  212MOL   C17342795   2.930   0.104   5.346 -0.5380 -0.5086  0.0192
  212MOL   C17442796   3.007   0.118   5.214 -0.0615 -0.3098  0.3606
  212MOL   C17542797   2.916   0.109   5.097 -0.6064  0.4028  0.0301
  212MOL   H17642798   2.889   0.199   5.380  0.2474 -0.1713  0.0290
  212MOL   H17742799   2.858   0.023   5.337 -0.3649 -0.5545 -1.0073
  212MOL   H17842800   3.062   0.212   5.213 -0.2989 -0.1175  2.6800
  212MOL   H17942801   3.086   0.042   5.213 -0.1291 -0.3636 -1.1241
  212MOL   H18042802   2.851   0.197   5.089  0.8043  1.4369 -0.2819
  212MOL   H18142803   2.862   0.018   5.121  0.1264 -0.1331 -0.3290
  212MOL   O18242804   2.988   0.094   4.977 -0.0615 -0.6120 -0.2046
  212MOL   C18342805   2.906   0.084   4.868  0.1415  0.1296  0.0981
  212MOL   C18442806   2.987   0.068   4.740  0.8016 -0.0153 -0.6696
  212MOL   C18542807   2.904   0.030   4.617 -0.5143 -0.2467  0.0607
  212MOL   H18642808   2.839   0.170   4.860 -0.6662 -0.4495  0.5871
  212MOL   H18742809   2.840   7.785   4.872 -1.1452  0.9828 -1.9275
  212MOL   H18842810   3.043   0.160   4.727  0.5957  0.1328 -0.5177
  212MOL   H18942811   3.059   7.775   4.754  0.2709 -0.5509 -1.0452
  212MOL   H19042812   2.855   0.116   4.570 -0.6969 -0.2822  0.1876
  212MOL   H19142813   2.830   7.744   4.645 -1.7701  1.4243  1.2467
  212MOL   O19242814   2.983   7.761   4.517 -0.2192 -0.4545 -0.4063
  212MOL   C19342815   2.895   7.703   4.417  0.0333 -0.5042 -0.2858
  212MOL   C19442816   2.933   7.728   4.278  0.0084  0.5677  0.0836
  212MOL   C19542817   2.932   0.083   4.245 -0.2578 -0.7380  0.4389
  212MOL   H19642818   2.788   7.706   4.436  0.2017 -2.1678  1.0490
  212MOL   H19742819   2.918   7.597   4.425  1.8568 -0.2028 -1.2205
  212MOL   H19842820   3.034   7.687   4.271 -0.9071 -1.6161 -0.9751
  212MOL   H19942821   2.868   7.671   4.212 -0.4821 -0.1380  1.1546
  212MOL   H20042822   2.987   0.131   4.327 -1.3393 -2.3790  2.1704
  212MOL   H20142823   2.831   0.123   4.256  0.1904 -0.2665  3.3729
  212MOL   H20242824   2.975   0.109   4.149  1.3838 -0.7421  1.1587
  213MOL     O142825   3.545   5.760   6.813 -0.1425 -1.1385  0.5630
  213MOL     C242826   3.645   5.732   6.900  0.3469 -0.4387 -0.1736
  213MOL     C342827   3.767   5.824   6.880  0.3651 -0.1306 -0.8193
  213MOL     C442828   3.877   5.814   6.991  0.6250 -0.2584 -0.3215
  213MOL     H542829   3.677   5.629   6.891  0.0896 -0.3938 -1.7357
  213MOL     H642830   3.608   5.748   7.002  2.1895 -0.3049  0.4861
  213MOL     H742831   3.808   5.804   6.781 -0.0450  2.0398 -1.4489
  213MOL     H842832   3.734   5.927   6.868 -1.1169 -0.5530 -0.3958
  213MOL     H942833   3.951   5.889   6.961  0.7156 -0.6424 -1.0523
  213MOL    H1042834   3.917   5.713   6.982 -0.5805 -0.7226 -0.4736
  213MOL    H1142835   3.572   5.749   6.723  1.3651 -2.6690  1.1864
  213MOL    O1242836   3.835   5.827   7.126  0.2252 -0.1796 -0.2052
  213MOL    C1342837   3.946   5.812   7.214  0.2687 -0.5044  0.8086
  213MOL    C1442838   3.908   5.829   7.362  0.0063  0.7173 -0.1226
  213MOL    C1542839   4.022   5.827   7.461 -0.1308 -0.1719  0.5835
  213MOL    H1642840   4.017   5.890   7.184  0.6551 -1.1050  0.1408
  213MOL    H1742841   4.003   5.720   7.200 -0.1693 -0.8753  1.4874
  213MOL    H1842842   3.859   5.927   7.365  0.5290  1.0445 -1.7405
  213MOL    H1942843   3.827   5.759   7.383  0.4854 -0.5336 -2.3285
  213MOL    H2042844   4.104   5.760   7.435  1.3908  2.7618 -2.5795
  213MOL    H2142845   3.968   5.782   7.544 -0.9673  0.3919  0.3575
  213MOL    O2242846   4.061   5.966   7.478  0.2229  0.2469  0.3558
  213MOL    C2342847   4.167   5.981   7.574 -0.8939  0.4618  0.0640
  213MOL    C2442848   4.193   6.122   7.615  0.1093 -0.1069  0.7820
  213MOL    C2542849   4.288   6.136   7.732 -0.5301  0.3452 -0.0251
  213MOL    H2642850   4.257   5.965   7.516  0.9702 -0.4021  3.0550
  213MOL    H2742851   4.156   5.920   7.664 -2.9808  1.1944  0.3428
  213MOL    H2842852   4.235   6.169   7.525 -0.5255 -0.0490  0.5162
  213MOL    H2942853   4.095   6.167   7.628  0.4074  0.2384  1.9529
  213MOL    H3042854   4.386   6.095   7.710 -0.2532  1.4824 -0.9497
  213MOL    H3142855   4.250   6.098   0.039  0.1194 -0.4315 -0.0709
  213MOL    O3242856   4.310   6.272   7.755  0.6129 -0.1407  0.2029
  213MOL    C3342857   4.363   6.301   0.093 -0.0503 -0.2643 -0.1447
  213MOL    C3442858   4.434   6.443   0.121  0.1549  0.1482  0.7104
  213MOL    C3542859   4.546   6.432   0.230  0.5035  0.4982 -0.4796
  213MOL    H3642860   4.424   6.221   0.134 -1.8761 -1.3641  0.4815
  213MOL    H3742861   4.263   6.309   0.137  0.7638  0.4334  1.6355
  213MOL    H3842862   4.484   6.470   0.028  0.2257  1.7900  1.2243
  213MOL    H3942863   4.363   6.523   0.140  1.4785  1.2283  1.1861
  213MOL    H4042864   4.638   6.391   0.186  0.6922 -1.9710  2.0739
  213MOL    H4142865   4.520   6.362   0.309  2.1465  0.5386  0.1195
  213MOL    O4242866   4.575   6.568   0.282 -0.2954 -0.1198 -0.2566
  213MOL    C4342867   4.710   6.578   0.337  0.4774  0.1816 -0.5824
  213MOL    C4442868   4.745   6.718   0.378  0.0741  0.1926  0.2375
  213MOL    C4542869   4.895   6.736   0.418  0.4935  0.2754  0.2397
  213MOL    H4642870   4.786   6.557   0.261  2.3784  1.5387  0.8980
  213MOL    H4742871   4.727   6.516   0.425 -0.1135 -0.8723 -1.1964
  213MOL    H4842872   4.717   6.772   0.288  2.4352  1.4746  0.2333
  213MOL    H4942873   4.680   6.752   0.458  0.5772  2.0800 -0.1345
  213MOL    H5042874   4.968   6.718   0.339  0.1618 -0.4071  0.0893
  213MOL    H5142875   4.909   6.672   0.505 -0.9154  1.0757  1.0862
  213MOL    O5242876   4.900   6.864   0.471  0.1516 -0.5461 -0.7780
  213MOL    C5342877   5.025   6.921   0.458 -0.1671 -0.4959  0.4015
  213MOL    C5442878   5.015   7.064   0.517  0.0220  0.0241 -0.1611
  213MOL    C5542879   5.144   7.141   0.529  0.1282  0.1952  0.9923
  213MOL    H5642880   5.064   6.918   0.356  1.4106  1.6318  0.8966
  213MOL    H5742881   5.095   6.867   0.521  2.3972  0.4507 -1.4971
  213MOL    H5842882   4.952   7.116   0.446  2.2069  0.3709 -1.9013
  213MOL    H5942883   4.965   7.060   0.614  0.4853  1.4446  0.1505
  213MOL    H6042884   5.190   7.148   0.431 -0.2707 -2.9375  0.5379
  213MOL    H6142885   5.216   7.095   0.598 -0.1595 -0.6651  0.7257
  213MOL    O6242886   5.119   7.281   0.553 -0.4373 -0.4292 -0.5822
  213MOL    C6342887   5.241   7.352   0.560  0.2751 -0.0542 -0.0245
  213MOL    C6442888   5.228   7.477   0.652 -0.1219  0.2242  0.1870
  213MOL    C6542889   5.353   7.519   0.719  0.4676 -0.5645 -0.9400
  213MOL    H6642890   5.270   7.370   0.456 -0.7478 -0.2874 -0.3561
  213MOL    H6742891   5.315   7.292   0.612 -1.2722 -1.7980  0.2172
  213MOL    H6842892   5.195   7.558   0.585 -0.0185 -2.3675 -3.1277
  213MOL    H6942893   5.154   7.456   0.729 -0.7827  1.3535 -0.1232
  213MOL    H7042894   5.445   7.541   0.665 -0.2386  1.7969 -1.2452
  213MOL    H7142895   5.378   7.437   0.786 -2.1974 -1.7754 -1.3478
  213MOL    O7242896   5.325   7.635   0.804  0.0411  0.1657  0.0113
  213MOL    C7342897   5.440   7.680   0.874  0.0223 -0.6103  0.2735
  213MOL    C7442898   5.408   0.024   0.943  0.2458  0.5728  0.5202
  213MOL    C7542899   5.407   0.148   0.855  0.2214 -0.8511  0.5384
  213MOL    H7642900   5.520   7.698   0.803  0.1584  1.8887  1.0138
  213MOL    H7742901   5.474   7.601   0.941 -1.2667 -0.5566  1.0022
  213MOL    H7842902   5.317   0.022   1.002  0.6193 -0.4125  1.0703
  213MOL    H7942903   5.493   0.036   1.010  0.0727 -2.0202  1.2664
  213MOL    H8042904   5.302   0.163   0.831 -0.1684 -0.8283  2.1623
  213MOL    H8142905   5.468   0.150   0.765 -0.6127  3.3897 -0.0613
  213MOL    O8242906   5.455   0.259   0.937 -0.1046  0.1709  0.4873
  213MOL    C8342907   5.460   0.381   0.871 -0.2334 -0.1014 -1.2248
  213MOL    C8442908   5.554   0.481   0.951  0.0075  0.1875 -0.2987
  213MOL    C8542909   5.505   0.554   1.072  0.3267  0.0910  0.7530
  213MOL    H8642910   5.353   0.401   0.861 -0.5883 -1.8886 -1.0204
  213MOL    H8742911   5.514   0.382   0.777 -1.1289 -1.5850 -1.7693
  213MOL    H8842912   5.656   0.444   0.965 -1.0828 -2.1632  1.5932
  213MOL    H8942913   5.566   0.561   0.877  3.1661  2.0841  2.1360
  213MOL    H9042914   5.469   0.488   1.150 -2.4302  0.1066 -0.4267
  213MOL    H9142915   5.408   0.604   1.066  0.1022 -0.1582  2.1752
  213MOL    O9242916   5.591   0.652   1.127  0.0052 -0.0255  0.3397
  213MOL    C9342917   5.709   0.602   1.187  0.0839  0.2148 -0.4862
  213MOL    C9442918   5.792   0.712   1.266  0.2764 -0.0143  0.7140
  213MOL    C9542919   5.845   0.828   1.181  0.3251 -0.7974 -0.3557
  213MOL    H9642920   5.780   0.562   1.115 -0.1529 -1.2256  0.0643
  213MOL    H9742921   5.693   0.524   1.261 -1.6828 -0.6965 -1.7791
  213MOL    H9842922   5.720   0.757   1.335 -1.3878 -0.0475 -0.9557
  213MOL    H9942923   5.863   0.659   1.329  0.3993  1.0991  1.5466
  213MOL   H10042924   5.756   0.881   1.147 -0.9326 -1.6180  1.5443
  213MOL   H10142925   5.906   0.786   1.101 -0.3997  0.7243 -1.7439
  213MOL   O10242926   5.922   0.918   1.257  0.1584  0.2869  0.4103
  213MOL   C10342927   6.048   0.870   1.293  0.5212 -0.1111 -0.1599
  213MOL   C10442928   6.122   0.954   1.396  0.0314 -0.2983 -0.3792
  213MOL   C10542929   6.035   1.005   1.509  0.0987  0.0333  0.0197
  213MOL   H10642930   6.112   0.847   1.207  0.4920 -2.3966  0.3899
  213MOL   H10742931   6.025   0.777   1.345  0.8022 -0.3366 -0.4375
  213MOL   H10842932   6.199   0.884   1.427  1.0805  2.0493  2.5116
  213MOL   H10942933   6.174   1.038   1.349  2.0647 -1.8900 -1.0374
  213MOL   H11042934   5.985   0.920   1.555  2.6584 -1.1252  0.7086
  213MOL   H11142935   5.960   1.071   1.464  0.5487  0.0666 -0.6759
  213MOL   O11242936   6.105   1.083   1.603  0.3136 -0.2614  0.4743
  213MOL   C11342937   6.191   1.009   1.689 -0.6053 -0.5241 -0.4009
  213MOL   C11442938   6.239   1.102   1.803  0.3580 -0.1060 -0.2549
  213MOL   C11542939   6.344   1.057   1.903 -0.2573  0.3722 -0.6130
  213MOL   H11642940   6.281   0.978   1.635  1.6121  1.4503  2.0031
  213MOL   H11742941   6.135   0.926   1.732  2.0382 -1.6531  1.0162
  213MOL   H11842942   6.281   1.199   1.779  2.0615  0.2472  3.6346
  213MOL   H11942943   6.149   1.137   1.855 -1.0775  0.2190 -2.8870
  213MOL   H12042944   6.369   1.130   1.979  0.1464  0.4133 -0.7802
  213MOL   H12142945   6.438   1.035   1.852 -0.6779 -1.6744 -0.5756
  213MOL   O12242946   6.302   0.931   1.959 -0.0636 -0.7071 -0.0119
  213MOL   C12342947   6.392   0.856   2.042 -0.1884 -0.1942 -0.0102
  213MOL   C12442948   6.318   0.736   2.095  0.3396  0.4417  0.2545
  213MOL   C12542949   6.383   0.661   2.208  0.2862 -1.3177 -0.6656
  213MOL   H12642950   6.434   0.916   2.123 -1.1217  0.8274 -0.2589
  213MOL   H12742951   6.481   0.830   1.984  1.5979  2.6004  1.3633
  213MOL   H12842952   6.220   0.768   2.132 -0.8205 -0.4774 -1.9614
  213MOL   H12942953   6.295   0.668   2.014  1.7255 -0.3066  0.4712
  213MOL   H13042954   6.380   0.733   2.289  1.3362  0.5430 -2.2603
  213MOL   H13142955   6.490   0.643   2.196  0.9432  1.5594  0.3930
  213MOL   O13242956   6.307   0.548   2.229 -0.0482  0.3405  0.0182
  213MOL   C13342957   6.320   0.493   2.360  1.1168  0.3684  0.2534
  213MOL   C13442958   6.267   0.349   2.343 -0.8647  0.2946  0.5631
  213MOL   C13542959   6.224   0.269   2.471 -0.0967 -0.0360 -0.5077
  213MOL   H13642960   6.284   0.553   2.443  3.4674  1.1826  0.7095
  213MOL   H13742961   6.427   0.477   2.373  1.1015  0.5384  0.5820
  213MOL   H13842962   6.180   0.352   2.279 -1.5385 -0.7457  1.3961
  213MOL   H13942963   6.341   0.282   2.298 -1.3563 -0.5605  0.9975
  213MOL   H14042964   6.187   0.169   2.448 -2.7879  0.6659  0.5443
  213MOL   H14142965   6.142   0.329   2.509  0.5318 -0.6517  1.9302
  213MOL   O14242966   6.337   0.272   2.560  0.2689 -0.3291  0.1011
  213MOL   C14342967   6.288   0.309   2.688 -0.1578 -0.2711  0.0645
  213MOL   C14442968   6.394   0.330   2.801 -0.1802 -0.7906 -0.7211
  213MOL   C14542969   6.492   0.441   2.777 -0.0180 -0.1623  0.6053
  213MOL   H14642970   6.216   0.231   2.712 -0.9133  1.4673  3.7446
  213MOL   H14742971   6.228   0.400   2.685 -1.8886 -1.3884 -0.2480
  213MOL   H14842972   6.340   0.351   2.894 -0.4783  3.0032 -1.6462
  213MOL   H14942973   6.449   0.237   2.810  0.2651 -0.4152  0.5575
  213MOL   H15042974   6.527   0.419   2.676  0.8331 -0.7004  1.0125
  213MOL   H15142975   6.575   0.428   2.846 -0.6416  0.6848  1.5261
  213MOL   O15242976   6.430   0.574   2.785  0.3176 -0.1768 -0.0551
  213MOL   C15342977   6.510   0.685   2.775  0.2172  0.0058  0.3536
  213MOL   C15442978   6.520   0.719   2.633 -0.5952 -0.5834 -0.0879
  213MOL   C15542979   6.559   0.866   2.607 -0.5682 -0.1948 -0.5535
  213MOL   H15642980   6.603   0.680   2.831 -0.8067  0.0578  2.1092
  213MOL   H15742981   6.451   0.763   2.823  0.1474 -0.5369  1.1556
  213MOL   H15842982   6.586   0.653   2.577  0.1839 -0.1628  0.3227
  213MOL   H15942983   6.424   0.695   2.587 -0.2874 -2.9891  0.4419
  213MOL   H16042984   6.660   0.887   2.641 -0.7984 -0.8006  0.5346
  213MOL   H16142985   6.486   0.931   2.657 -1.0404 -0.3300 -1.0711
  213MOL   O16242986   6.552   0.885   2.469  0.4705 -0.5399 -0.1786
  213MOL   C16342987   6.607   1.012   2.425  0.1176  0.1685 -0.6155
  213MOL   C16442988   6.583   1.132   2.520 -0.0050 -0.3982 -0.4098
  213MOL   C16542989   6.643   1.265   2.463 -0.4386  0.1079 -0.2802
  213MOL   H16642990   6.564   1.033   2.328 -1.4560 -0.5882 -0.0985
  213MOL   H16742991   6.712   1.001   2.399  0.0129 -0.1690 -0.8790
  213MOL   H16842992   6.476   1.153   2.523  0.0081 -0.2399 -1.0730
  213MOL   H16942993   6.624   1.109   2.619 -1.6270 -4.0287 -0.4652
  213MOL   H17042994   6.599   1.289   2.366 -0.2172  0.6849 -0.2442
  213MOL   H17142995   6.750   1.255   2.446  0.1822  2.1635  2.1809
  213MOL   O17242996   6.627   1.363   2.564  0.6634 -0.5280  0.0219
  213MOL   C17342997   6.680   1.494   2.531  0.0343 -0.0617 -0.6055
  213MOL   C17442998   6.683   1.592   2.655 -0.7109 -0.1635 -0.4338
  213MOL   C17542999   6.745   1.727   2.618 -0.3187  0.6609  0.0465
  213MOL   H17643000   6.623   1.531   2.445  0.9486  2.4208 -0.1831
  213MOL   H17743001   6.781   1.480   2.493  0.6473  1.0326  0.5896
  213MOL   H17843002   6.579   1.605   2.686  0.0499 -0.1078  2.2077
  213MOL   H17943003   6.738   1.553   2.740  0.2079 -0.3033 -1.0881
  213MOL   H18043004   6.695   1.784   2.540  1.9832  1.4417 -0.8977
  213MOL   H18143005   6.844   1.714   2.574  0.0329  0.4566  0.8787
  213MOL   O18243006   6.752   1.807   2.731 -0.5746 -0.6873  0.0741
  213MOL   C18343007   6.816   1.932   2.709 -0.3432  0.2187  0.2049
  213MOL   C18443008   6.810   2.003   2.840  0.4566 -0.3164 -0.3636
  213MOL   C18543009   6.887   2.136   2.815  0.0284 -0.1390  0.2462
  213MOL   H18643010   6.759   1.987   2.633 -0.0647  0.5636  0.2428
  213MOL   H18743011   6.919   1.916   2.676  0.0573  1.5453  0.7667
  213MOL   H18843012   6.713   2.025   2.884  1.0041  0.7201  0.3607
  213MOL   H18943013   6.867   1.943   2.911  0.3973  1.2758  1.0796
  213MOL   H19043014   6.823   2.186   2.743 -1.0116 -0.4010  0.9744
  213MOL   H19143015   6.982   2.117   2.764 -0.9077 -0.0699 -1.5635
  213MOL   O19243016   6.897   2.204   2.937 -0.0764  0.2781  1.3752
  213MOL   C19343017   6.969   2.324   2.927  0.1174  0.4365  0.0586
  213MOL   C19443018   6.868   2.434   2.972  0.1353 -0.0909 -0.4835
  213MOL   C19543019   6.924   2.576   2.993  0.1147 -0.1389  0.6361
  213MOL   H19643020   7.013   2.345   2.829 -1.5069 -2.1561 -1.2690
  213MOL   H19743021   7.049   2.331   3.001  0.7525  1.1720 -0.6847
  213MOL   H19843022   6.789   2.442   2.898 -1.7145  0.5487  1.5154
  213MOL   H19943023   6.819   2.387   3.058 -0.0549 -1.6248 -1.4184
  213MOL   H20043024   6.974   2.582   3.089  1.5591  1.9382 -0.2221
  213MOL   H20143025   6.845   2.650   3.007  0.3454  0.1120  0.6053
  213MOL   H20243026   6.987   2.610   2.911 -1.8830 -0.2287 -0.9901
  214MOL     O143027   2.830   7.251   4.631  0.0123  0.2824  0.3625
  214MOL     C243028   2.730   7.333   4.688 -0.7678  0.1597  0.4033
  214MOL     C343029   2.718   7.467   4.619 -0.5193 -0.0751  0.1972
  214MOL     C443030   2.614   7.546   4.696 -0.5620 -0.0894  0.2089
  214MOL     H543031   2.730   7.335   4.797 -0.2365 -0.0745  0.4085
  214MOL     H643032   2.634   7.288   4.665 -1.5376  2.5766 -1.3139
  214MOL     H743033   2.816   7.513   4.603  0.2254 -1.8702 -0.5969
  214MOL     H843034   2.693   7.460   4.513  1.8668  0.3678 -0.4266
  214MOL     H943035   2.661   7.544   4.794 -1.9354 -5.1005  0.9499
  214MOL    H1043036   2.521   7.489   4.700 -0.7271  0.0725 -1.0550
  214MOL    H1143037   2.884   7.221   4.703 -1.5391  1.8772  2.2425
  214MOL    O1243038   2.594   7.675   4.642 -0.6310  0.0223 -0.2472
  214MOL    C1343039   2.484   7.744   4.691 -0.3390 -0.7839 -0.7895
  214MOL    C1443040   2.504   0.105   4.657  0.1205 -0.2224  0.5063
  214MOL    C1543041   2.397   0.195   4.712 -0.5357 -0.1865  0.2786
  214MOL    H1643042   2.475   7.718   4.797  1.4076  2.0396  0.1067
  214MOL    H1743043   2.400   7.717   4.628 -1.0429  0.0553 -0.2317
  214MOL    H1843044   2.604   0.129   4.693  0.9497  0.2041 -1.9673
  214MOL    H1943045   2.513   0.133   4.552  0.0883 -2.4162 -0.1221
  214MOL    H2043046   2.385   0.166   4.817  3.3433  1.6782  1.3467
  214MOL    H2143047   2.299   0.181   4.668 -1.4809  0.2930  2.1914
  214MOL    O2243048   2.430   0.334   4.703  0.3620  0.4621 -0.0580
  214MOL    C2343049   2.485   0.376   4.820 -0.2450 -0.7393  0.3950
  214MOL    C2443050   2.531   0.518   4.824  0.0493 -0.2803  0.3250
  214MOL    C2543051   2.565   0.561   4.964 -0.2898 -0.1930 -0.5747
  214MOL    H2643052   2.573   0.317   4.846 -0.8750 -1.2697  1.3419
  214MOL    H2743053   2.423   0.354   4.907 -1.2130 -1.4835 -0.4794
  214MOL    H2843054   2.605   0.552   4.751  0.0891 -0.2664  0.3722
  214MOL    H2943055   2.442   0.572   4.793  0.8454  0.3313 -0.9502
  214MOL    H3043056   2.488   0.543   5.039 -0.0989  0.9048 -0.1093
  214MOL    H3143057   2.571   0.670   4.970  0.7495 -0.2855  0.1940
  214MOL    O3243058   2.691   0.514   4.991  0.7898  0.7125  0.2880
  214MOL    C3343059   2.755   0.545   5.113 -0.6295  0.3004  0.1481
  214MOL    C3443060   2.907   0.509   5.114  0.3470 -0.4630  0.6585
  214MOL    C3543061   2.971   0.539   5.258 -0.6315 -0.2395  0.2380
  214MOL    H3643062   2.700   0.501   5.196 -1.9985  0.9752 -0.3987
  214MOL    H3743063   2.738   0.651   5.132  0.1526  0.6071 -0.8216
  214MOL    H3843064   2.922   0.404   5.090  2.4582 -0.0225 -0.0683
  214MOL    H3943065   2.946   0.576   5.037 -1.2968 -0.6071 -0.3276
  214MOL    H4043066   2.915   0.488   5.336 -0.8458  2.1684  1.6988
  214MOL    H4143067   2.973   0.648   5.263  0.2882 -0.1535 -1.5751
  214MOL    O4243068   3.111   0.520   5.266  0.6009  0.9355  0.3022
  214MOL    C4343069   3.170   0.556   5.394  0.1587 -0.1059 -0.2311
  214MOL    C4443070   3.321   0.524   5.392  0.1041 -0.3273  0.5213
  214MOL    C4543071   3.402   0.565   5.512 -0.7696  0.0561  0.4050
  214MOL    H4643072   3.113   0.515   5.478 -1.4484 -2.8530 -2.5658
  214MOL    H4743073   3.146   0.661   5.412  1.5161  0.1723 -0.0074
  214MOL    H4843074   3.340   0.420   5.365 -0.7694 -0.0781 -1.1614
  214MOL    H4943075   3.358   0.574   5.302  0.1503  0.4106  0.9489
  214MOL    H5043076   3.356   0.512   5.596 -2.6663  0.2533 -0.4778
  214MOL    H5143077   3.395   0.673   5.526 -0.0584  0.2238 -0.4938
  214MOL    O5243078   3.542   0.526   5.494  0.1152  0.2550 -0.5999
  214MOL    C5343079   3.609   0.522   5.612 -0.1764 -0.1954 -0.1700
  214MOL    C5443080   3.765   0.507   5.610  1.0782  0.2372 -0.0798
  214MOL    C5543081   3.810   0.366   5.562  0.1396 -0.4669  0.3750
  214MOL    H5643082   3.573   0.440   5.673  1.3865 -0.8785 -0.1479
  214MOL    H5743083   3.597   0.621   5.658 -2.0294 -0.4078 -0.1673
  214MOL    H5843084   3.809   0.580   5.541  1.5531  2.7116  2.7479
  214MOL    H5943085   3.798   0.518   5.713 -0.9878 -0.6849  0.6950
  214MOL    H6043086   3.777   0.353   5.459  1.4739 -0.4787 -0.0622
  214MOL    H6143087   3.748   0.299   5.621  0.6019 -1.8063 -0.6120
  214MOL    O6243088   3.948   0.341   5.571  0.3025  1.1529  0.1040
  214MOL    C6343089   3.976   0.201   5.585 -0.7036  0.2442  0.0707
  214MOL    C6443090   4.122   0.210   5.623 -0.6572 -0.0385 -0.5171
  214MOL    C6543091   4.188   0.076   5.632  1.0761  0.2567 -0.3334
  214MOL    H6643092   3.954   0.135   5.500  1.0006 -1.0878  0.6495
  214MOL    H6743093   3.926   0.161   5.672  1.0617  1.4016  1.6488
  214MOL    H6843094   4.171   0.262   5.541  1.2375 -0.6038  0.2286
  214MOL    H6943095   4.131   0.267   5.715 -0.4432 -0.5984 -0.1878
  214MOL    H7043096   4.168   0.017   5.543  0.7924 -2.3426  1.3891
  214MOL    H7143097   4.132   0.021   5.708 -0.7217 -0.8547 -2.4115
  214MOL    O7243098   4.326   0.088   5.656 -0.5554 -0.0774  0.0577
  214MOL    C7343099   4.382   7.756   5.708 -0.3283  0.6688  0.1316
  214MOL    C7443100   4.537   7.761   5.724 -0.6260 -0.1438  0.2414
  214MOL    C7543101   4.594   7.629   5.777 -0.4163  0.4392  0.3531
  214MOL    H7643102   4.355   7.671   5.646  0.1656  0.1463  0.6299
  214MOL    H7743103   4.339   7.720   5.802  0.8640 -1.1563 -0.0046
  214MOL    H7843104   4.588   0.010   5.635  0.0260 -0.5057  0.4669
  214MOL    H7943105   4.558   0.046   5.802 -0.0130 -0.0505 -0.0123
  214MOL    H8043106   4.547   7.559   5.708 -1.8052  2.0419 -0.3584
  214MOL    H8143107   4.563   7.615   5.881  1.4035 -0.6862  0.7709
  214MOL    O8243108   4.736   7.606   5.758  0.1386 -0.2646  0.6108
  214MOL    C8343109   4.775   7.487   5.821  0.1922 -0.3879 -0.3562
  214MOL    C8443110   4.924   7.468   5.780  0.5709 -0.2744  0.6816
  214MOL    C8543111   5.004   7.565   5.856 -0.5429 -0.0859 -0.2896
  214MOL    H8643112   4.715   7.403   5.785  0.0973 -0.3402 -0.3100
  214MOL    H8743113   4.771   7.492   5.930 -1.8214  1.1192 -0.4628
  214MOL    H8843114   4.961   7.369   5.804  0.1096  0.2555  3.8280
  214MOL    H8943115   4.933   7.481   5.672  1.8896 -0.3990  0.7609
  214MOL    H9043116   5.004   7.536   5.961  0.1177  1.3400  0.1151
  214MOL    H9143117   4.961   7.664   5.841  0.9679  0.6460  0.0468
  214MOL    O9243118   5.140   7.563   5.812 -0.0587  0.3051  0.0176
  214MOL    C9343119   5.217   7.659   5.883 -0.0089  0.1413 -0.7421
  214MOL    C9443120   5.360   7.660   5.831  0.0154 -0.8202 -0.1080
  214MOL    C9543121   5.440   7.751   5.920 -0.4078  0.9479 -0.3079
  214MOL    H9643122   5.216   7.657   5.992 -0.0751 -1.4320 -0.7625
  214MOL    H9743123   5.171   7.753   5.852  0.6230  0.7666  0.2021
  214MOL    H9843124   5.400   7.558   5.831 -0.8902 -1.1956  0.9036
  214MOL    H9943125   5.361   7.703   5.731 -0.3939  4.3962  1.9628
  214MOL   H10043126   5.430   7.725   6.026  2.5260  0.1256 -0.1965
  214MOL   H10143127   5.411   0.068   5.913 -1.1874  0.7725  0.2231
  214MOL   O10243128   5.575   7.705   5.883  0.6445 -0.3819 -0.3107
  214MOL   C10343129   5.679   7.768   5.952 -0.6838  0.3891  0.3840
  214MOL   C10443130   5.807   7.719   5.889 -0.7653 -0.0140 -0.1594
  214MOL   C10543131   5.934   7.767   5.954  0.2657 -0.1149  0.0156
  214MOL   H10643132   5.683   7.735   6.056  1.8623 -1.5607 -0.2783
  214MOL   H10743133   5.676   0.089   5.949 -1.4935  0.3374 -1.3680
  214MOL   H10843134   5.819   7.611   5.900 -1.3330 -0.0762 -0.1178
  214MOL   H10943135   5.809   7.733   5.781 -1.2304 -1.5211 -0.3808
  214MOL   H11043136   5.929   7.767   6.062  0.3631  2.4516  0.0401
  214MOL   H11143137   5.944   0.082   5.920 -1.1333 -0.7003 -2.3897
  214MOL   O11243138   6.051   7.698   5.899  0.2742 -0.2587 -0.0918
  214MOL   C11343139   6.170   7.763   5.920 -0.6492 -0.5747  0.7552
  214MOL   C11443140   6.285   7.672   5.877  0.0719  0.6149 -0.3861
  214MOL   C11543141   6.422   7.739   5.910 -0.5059  0.1005 -0.0992
  214MOL   H11643142   6.180   7.783   6.027  0.3308 -1.6533  0.8722
  214MOL   H11743143   6.182   0.074   5.876 -0.6171 -1.0556 -0.3403
  214MOL   H11843144   6.276   7.577   5.929  2.1034  1.2055  1.1284
  214MOL   H11943145   6.277   7.648   5.771  1.7046  1.6267 -0.7605
  214MOL   H12043146   6.436   7.744   6.018  1.3228  1.6354 -0.3785
  214MOL   H12143147   6.424   0.053   5.872  1.9806  0.5398  1.1629
  214MOL   O12243148   6.522   7.659   5.845  0.4073 -0.1604  0.0003
  214MOL   C12343149   6.653   7.699   5.890 -0.6214  0.0665 -0.0681
  214MOL   C12443150   6.694   7.625   6.014 -1.0466 -0.1725 -0.6054
  214MOL   C12543151   6.844   7.628   6.030  0.3180  0.1126 -0.1721
  214MOL   H12643152   6.665   0.017   5.914 -0.6967 -0.4195  2.2615
  214MOL   H12743153   6.719   7.682   5.806 -0.1763  1.9277 -0.1285
  214MOL   H12843154   6.647   7.636   6.111  2.4599  1.1184  1.0305
  214MOL   H12943155   6.669   7.521   5.991 -0.0099  0.0097 -2.6712
  214MOL   H13043156   6.880   7.730   6.022 -0.7583  0.6390  1.4995
  214MOL   H13143157   6.893   7.578   5.946  1.7423  0.7011  0.3072
  214MOL   O13243158   6.880   7.578   6.154 -0.2440  0.5266 -0.2740
  214MOL   C13343159   7.013   7.579   6.181  0.1287  0.1783  0.4027
  214MOL   C13443160   7.034   7.561   6.332 -0.1233 -0.2097 -0.0547
  214MOL   C13543161   7.178   7.553   6.372  0.9249  0.0715  0.1372
  214MOL   H13643162   7.048   7.679   6.154 -0.6292  0.0452 -1.0992
  214MOL   H13743163   7.069   7.505   6.124 -0.9296  0.7023 -1.3547
  214MOL   H13843164   6.991   7.643   6.388  2.6704  0.4573  1.1874
  214MOL   H13943165   6.986   7.469   6.366 -0.4968 -0.0518 -0.1578
  214MOL   H14043166   7.217   7.464   6.323 -0.6444  0.5249 -2.0004
  214MOL   H14143167   7.180   7.542   6.480  1.3009 -1.6849 -0.0315
  214MOL   O14243168   7.259   7.662   6.329 -0.3118  0.1651 -0.2800
  214MOL   C14343169   7.235   7.784   6.393  0.3766 -0.2806  0.3912
  214MOL   C14443170   7.326   0.093   6.325 -0.1622 -0.9030  0.1878
  214MOL   C14543171   7.347   0.231   6.385  0.4021  0.4106 -0.0781
  214MOL   H14643172   7.258   0.000   6.500  0.3688 -0.5565  0.4047
  214MOL   H14743173   7.129   0.019   6.391  0.1793 -1.1185 -4.2231
  214MOL   H14843174   7.427   0.051   6.315  0.8018  1.0320  1.6823
  214MOL   H14943175   7.297   0.109   6.221 -0.5983 -0.1918  0.4191
  214MOL   H15043176   7.256   0.287   6.407  0.4337  0.7930 -0.9051
  214MOL   H15143177   7.394   0.284   6.302 -0.7769  1.7231  0.0667
  214MOL   O15243178   7.425   0.220   6.507  0.3128 -0.1344  0.0821
  214MOL   C15343179   7.372   0.298   6.616  0.1500  0.1644  0.4571
  214MOL   C15443180   7.450   0.264   6.745  0.3558  0.5437  0.3332
  214MOL   C15543181   7.467   0.120   6.790 -0.3287  0.1007  1.0610
  214MOL   H15643182   7.265   0.279   6.627  0.2752 -1.2633 -0.5410
  214MOL   H15743183   7.381   0.405   6.595  1.4586  0.0672  0.4938
  214MOL   H15843184   7.548   0.311   6.754  1.5718 -1.3550 -2.4513
  214MOL   H15943185   7.388   0.312   6.820 -2.1040 -0.2538 -1.1305
  214MOL   H16043186   7.545   0.124   6.867  0.1928  2.0645  0.4647
  214MOL   H16143187   7.515   0.064   6.710  0.3041  1.6328  0.3467
  214MOL   O16243188   7.348   0.066   6.845  0.1133 -0.5812  0.0861
  214MOL   C16343189   7.368   7.723   6.900  0.1535 -0.0996  1.2804
  214MOL   C16443190   7.250   7.681   6.985  0.1183 -0.2881  0.8550
  214MOL   C16543191   7.117   7.678   6.901 -0.0145 -0.1171 -0.2808
  214MOL   H16643192   7.460   7.709   6.956  2.0470 -0.0973 -1.7009
  214MOL   H16743193   7.381   7.654   6.816 -0.5400  1.5973 -0.2603
  214MOL   H16843194   7.268   7.585   7.033 -1.5660 -1.4588 -0.8043
  214MOL   H16943195   7.243   7.757   7.063  1.4262 -0.8721  1.5464
  214MOL   H17043196   7.119   7.601   6.824 -2.9795 -0.5321 -0.0012
  214MOL   H17143197   7.105   7.769   6.843 -0.4978 -0.1150 -0.1791
  214MOL   O17243198   7.011   7.645   6.991  0.4228  0.1507 -0.6756
  214MOL   C17343199   6.891   7.608   6.929  0.0072  0.8990  0.5963
  214MOL   C17443200   6.794   7.588   7.044  0.7459  0.4065  0.1045
  214MOL   C17543201   6.675   7.510   7.003 -0.3405  0.4791 -0.1813
  214MOL   H17643202   6.917   7.525   6.865 -2.6758  0.3243  0.1611
  214MOL   H17743203   6.838   7.691   6.881 -1.3684  0.0302  0.5634
  214MOL   H17843204   6.845   7.541   7.128 -0.1346 -0.5522  0.1060
  214MOL   H17943205   6.758   7.684   7.079  1.2666  0.8114 -0.4459
  214MOL   H18043206   6.707   7.408   6.984 -2.0490  0.3291 -2.4847
  214MOL   H18143207   6.625   7.549   6.914 -1.0488  0.6761  0.2975
  214MOL   O18243208   6.583   7.505   7.115  0.0000  0.5427 -0.3538
  214MOL   C18343209   6.455   7.460   7.080  0.6086 -0.1095  0.3496
  214MOL   C18443210   6.348   7.449   7.189 -1.2067  0.0060  0.2645
  214MOL   C18543211   6.207   7.398   7.158 -0.7896 -0.2140  0.8012
  214MOL   H18643212   6.476   7.358   7.046  0.4496 -0.8714  2.4575
  214MOL   H18743213   6.412   7.508   6.992  1.7261 -1.0013 -0.6967
  214MOL   H18843214   6.382   7.393   7.276 -0.1790 -0.1653 -0.2351
  214MOL   H18943215   6.328   7.548   7.231  0.0911 -0.0902  1.1315
  214MOL   H19043216   6.218   7.300   7.111  0.0253  0.9614 -1.5325
  214MOL   H19143217   6.159   7.467   7.088  0.2240  1.4443  1.7251
  214MOL   O19243218   6.137   7.398   7.278 -0.1664 -0.4084 -0.4705
  214MOL   C19343219   6.000   7.346   7.265 -0.9118  0.0317  0.0017
  214MOL   C19443220   5.922   7.382   7.391 -0.0786 -0.4503 -0.8461
  214MOL   C19543221   5.976   7.327   7.519  0.5345 -0.3489 -0.5087
  214MOL   H19643222   6.010   7.238   7.251  1.1131  0.0519  1.0942
  214MOL   H19743223   5.944   7.385   7.180 -1.0601  0.3001  0.2193
  214MOL   H19843224   5.911   7.490   7.401 -0.0126 -0.5702  0.5483
  214MOL   H19943225   5.828   7.330   7.369 -0.0801 -0.0625 -1.7482
  214MOL   H20043226   5.949   7.227   7.554  1.3457 -0.6793 -0.8120
  214MOL   H20143227   5.947   7.395   7.599 -0.7637 -0.6594 -0.7098
  214MOL   H20243228   6.085   7.333   7.510  0.6303  0.1818  0.9178
  215MOL     O143229   6.297   0.406   4.708 -0.1581 -0.0820  0.2140
  215MOL     C243230   6.270   0.290   4.632  0.5385 -0.0953  0.4148
  215MOL     C343231   6.189   0.316   4.504 -0.2028 -1.1388 -0.6835
  215MOL     C443232   6.155   0.185   4.427  0.2574 -0.3026  0.5995
  215MOL     H543233   6.220   0.223   4.702 -0.6429  0.5427  0.1974
  215MOL     H643234   6.365   0.245   4.602  0.9206  1.7949 -1.3422
  215MOL     H743235   6.096   0.360   4.539  1.2747  0.8681  0.8156
  215MOL     H843236   6.244   0.383   4.438 -1.0429  2.2879  1.9257
  215MOL     H943237   6.119   0.116   4.503 -0.1494 -0.0219  0.6623
  215MOL    H1043238   6.236   0.137   4.372 -1.3567 -4.3418  1.5805
  215MOL    H1143239   6.336   0.379   4.790 -2.8990 -4.0747  0.3375
  215MOL    O1243240   6.065   0.228   4.330  0.6715 -0.3433 -0.4772
  215MOL    C1343241   6.013   0.114   4.266 -0.9390  1.1330 -0.3510
  215MOL    C1443242   5.909   0.151   4.162  0.8312  0.3818  0.4087
  215MOL    C1543243   5.816   0.045   4.100 -0.0741 -0.1209  0.1734
  215MOL    H1643244   5.966   0.043   4.334  2.3011 -1.6892 -0.9326
  215MOL    H1743245   6.098   0.059   4.227 -0.5309  1.1754  0.4611
  215MOL    H1843246   5.845   0.217   4.219  0.2845 -2.2911  3.0380
  215MOL    H1943247   5.964   0.207   4.086  1.7483  0.3930  1.0820
  215MOL    H2043248   5.744   0.097   4.036 -1.5282 -1.5432  0.6237
  215MOL    H2143249   5.769   0.004   4.189  1.7779 -0.4936  0.9908
  215MOL    O2243250   5.893   7.742   4.028  0.2492  0.0755 -0.4584
  215MOL    C2343251   5.822   7.680   3.921  0.7152  0.9164  0.0993
  215MOL    C2443252   5.902   7.557   3.876 -0.8006 -0.0828  0.1334
  215MOL    C2543253   5.927   7.456   3.992 -0.0680  1.1287 -0.0647
  215MOL    H2643254   5.812   7.742   3.832  1.6344 -0.8817 -1.2753
  215MOL    H2743255   5.717   7.657   3.940  0.8010 -0.1481 -0.6777
  215MOL    H2843256   5.856   7.513   3.787 -1.1223 -0.3115  0.4154
  215MOL    H2943257   5.995   7.586   3.827 -1.9749  0.1776 -2.0125
  215MOL    H3043258   5.836   7.397   4.006  1.2948 -0.6555  1.4499
  215MOL    H3143259   5.949   7.508   4.086  2.4710  0.8204 -0.4701
  215MOL    O3243260   6.045   7.384   3.953  0.0078  0.0340  0.1052
  215MOL    C3343261   6.076   7.285   4.049  0.1222 -0.2354  0.4013
  215MOL    C3443262   6.143   7.158   3.990 -0.0659 -0.2715 -0.7055
  215MOL    C3543263   6.282   7.131   4.056 -0.6027 -0.0726  0.8335
  215MOL    H3643264   5.986   7.253   4.101 -0.4908  2.3352  1.0164
  215MOL    H3743265   6.141   7.326   4.126  0.5059 -0.2565  0.0910
  215MOL    H3843266   6.077   7.071   4.001  1.7454 -1.2611  3.2680
  215MOL    H3943267   6.150   7.176   3.883  2.5607  0.8821 -0.3824
  215MOL    H4043268   6.344   7.221   4.047 -1.4147  0.6031  1.8553
  215MOL    H4143269   6.335   7.048   4.009  2.0689  0.7849  2.2080
  215MOL    O4243270   6.271   7.095   4.191  0.3302  0.0554  0.5953
  215MOL    C4343271   6.399   7.078   4.252 -0.0853  0.3428 -0.1342
  215MOL    C4443272   6.389   7.062   4.402 -0.0550 -0.0651  0.2944
  215MOL    C4543273   6.329   6.927   4.430  0.5597 -0.2132  0.3856
  215MOL    H4643274   6.454   7.170   4.230  0.6337 -0.3645 -1.3547
  215MOL    H4743275   6.452   6.993   4.210 -2.0431 -0.9280 -0.0779
  215MOL    H4843276   6.486   7.067   4.451  0.9669  1.0913 -1.7528
  215MOL    H4943277   6.334   7.147   4.441  0.1722 -0.9283  2.5373
  215MOL    H5043278   6.378   6.848   4.375  0.4628  0.2616 -0.3896
  215MOL    H5143279   6.220   6.926   4.424  0.5895 -0.8317 -0.0185
  215MOL    O5243280   6.358   6.896   4.567 -0.3591  0.3099  0.1412
  215MOL    C5343281   6.266   6.952   4.663  0.4262 -0.0805  0.6443
  215MOL    C5443282   6.316   6.904   4.803  0.4359 -0.1355 -0.1081
  215MOL    C5543283   6.206   6.900   4.909 -0.0325  0.2707 -0.5806
  215MOL    H5643284   6.175   6.894   4.643  2.0833 -2.3845 -0.4350
  215MOL    H5743285   6.258   7.059   4.643 -1.0363 -0.0135  1.5107
  215MOL    H5843286   6.359   6.804   4.811 -1.6349 -0.8258  3.9407
  215MOL    H5943287   6.394   6.975   4.831 -0.0694 -0.5230  2.3537
  215MOL    H6043288   6.129   6.832   4.871  1.5931 -0.9587 -1.7204
  215MOL    H6143289   6.158   6.997   4.914 -1.2448 -0.3974  1.6991
  215MOL    O6243290   6.257   6.851   5.033 -0.3797 -0.3273 -0.3937
  215MOL    C6343291   6.276   6.958   5.126  0.0979 -0.9039  0.1799
  215MOL    C6443292   6.339   6.889   5.248 -0.1414  0.4822  0.3511
  215MOL    C6543293   6.357   6.994   5.365  0.0471 -0.3384 -0.1785
  215MOL    H6643294   6.177   6.995   5.152  0.4612 -1.4573  2.4872
  215MOL    H6743295   6.340   7.036   5.084  0.0032 -1.5045 -1.0769
  215MOL    H6843296   6.268   6.808   5.262 -0.3391  0.5417 -0.2631
  215MOL    H6943297   6.435   6.844   5.222  0.2881  1.2131  0.6649
  215MOL    H7043298   6.257   7.012   5.405  0.4087  0.6145  0.3294
  215MOL    H7143299   6.411   7.080   5.325  0.7814 -0.2526  0.9616
  215MOL    O7243300   6.452   6.944   5.457 -0.0091 -0.2415 -0.0015
  215MOL    C7343301   6.501   7.028   5.562 -0.4111 -0.2965 -0.5447
  215MOL    C7443302   6.561   6.930   5.662 -0.2605 -0.2881  0.6542
  215MOL    C7543303   6.568   6.991   5.810  0.8021  0.3172  0.9500
  215MOL    H7643304   6.428   7.095   5.607 -0.1949  0.1704 -0.8746
  215MOL    H7743305   6.583   7.090   5.525 -0.3486  0.3587  0.6879
  215MOL    H7843306   6.491   6.846   5.659 -3.0173  1.9794 -1.6934
  215MOL    H7943307   6.661   6.895   5.634  1.1423  2.5974  1.8620
  215MOL    H8043308   6.472   7.040   5.825  0.6105 -0.7389  3.3868
  215MOL    H8143309   6.636   7.074   5.826  2.5108 -1.1421  1.4642
  215MOL    O8243310   6.587   6.881   5.893  0.0855 -0.3283 -0.0032
  215MOL    C8343311   6.473   6.813   5.930  0.1210 -0.6810  0.4172
  215MOL    C8443312   6.512   6.704   6.029  0.1721 -0.0536  0.1780
  215MOL    C8543313   6.602   6.590   5.968 -0.0180 -0.4947  0.0084
  215MOL    H8643314   6.427   6.768   5.842  1.3601  2.1431 -1.7688
  215MOL    H8743315   6.408   6.885   5.980  1.1997  0.6148 -0.0121
  215MOL    H8843316   6.559   6.753   6.115  2.4089  0.0689 -1.0870
  215MOL    H8943317   6.419   6.660   6.066  0.4219  0.3147  1.2776
  215MOL    H9043318   6.699   6.639   5.959  0.0624 -0.0598  2.7020
  215MOL    H9143319   6.583   6.562   5.865  0.5334 -0.8226 -0.0098
  215MOL    O9243320   6.597   6.476   6.061  0.1894 -0.0676  0.0694
  215MOL    C9343321   6.702   6.386   6.050  0.0296  0.7580  0.2050
  215MOL    C9443322   6.707   6.309   6.182 -0.5445  0.1715  0.2397
  215MOL    C9543323   6.833   6.222   6.191  0.3656  0.4297  0.8618
  215MOL    H9643324   6.792   6.447   6.037 -0.9235  1.7732 -1.8320
  215MOL    H9743325   6.691   6.316   5.967  0.0237  1.8531 -0.7316
  215MOL    H9843326   6.706   6.382   6.264  0.2575 -0.8979  1.2125
  215MOL    H9943327   6.616   6.250   6.193  1.1967 -3.0900 -2.0624
  215MOL   H10043328   6.835   6.186   6.294  0.2732 -0.4480  0.5543
  215MOL   H10143329   6.915   6.293   6.173 -0.6352  1.3859 -0.0218
  215MOL   O10243330   6.832   6.118   6.090  0.6198  0.2569  0.0617
  215MOL   C10343331   6.944   6.026   6.102  0.2112  0.4756  0.3377
  215MOL   C10443332   7.062   6.093   6.036 -0.5484  0.2403  0.0537
  215MOL   C10543333   7.175   5.985   6.032  0.1120 -0.1583  0.5238
  215MOL   H10643334   6.923   5.932   6.050 -0.6432  0.8495  0.0011
  215MOL   H10743335   6.951   6.005   6.209 -0.8595  0.5130  0.4172
  215MOL   H10843336   7.029   6.135   5.941  0.8701  3.4762  0.8892
  215MOL   H10943337   7.087   6.183   6.094 -1.3291  0.1549  0.5268
  215MOL   H11043338   7.132   5.896   5.986  1.3425 -0.8480  0.7007
  215MOL   H11143339   7.202   5.963   6.135  1.4787  1.5782  0.5552
  215MOL   O11243340   7.286   6.034   5.962  0.3396  0.0286 -0.3427
  215MOL   C11343341   7.369   6.130   6.031 -0.5479  0.1917 -0.3517
  215MOL   C11443342   7.485   6.167   5.931  0.5940 -0.8318  0.1292
  215MOL   C11543343   7.547   6.306   5.971 -0.0546  0.6726  1.1381
  215MOL   H11643344   7.406   6.092   6.126  1.0564  0.0924 -1.0058
  215MOL   H11743345   7.305   6.218   6.040 -0.3704  0.3017 -0.1624
  215MOL   H11843346   7.567   6.096   5.917  2.8795  1.7254  0.0268
  215MOL   H11943347   7.442   6.184   5.832  1.6707  0.2300 -0.1723
  215MOL   H12043348   7.595   6.300   6.069  0.5453  0.4719  0.8321
  215MOL   H12143349   7.464   6.375   5.980 -1.5799 -1.2491  2.2850
  215MOL   O12243350   7.650   6.343   5.878 -0.0515  1.1046  0.3721
  215MOL   C12343351   7.730   6.449   5.919  0.6289  0.1528  0.0064
  215MOL   C12443352   0.011   6.526   5.805  0.1363  0.6493 -0.0280
  215MOL   C12543353   0.094   6.643   5.850 -0.0282 -0.3924  0.3288
  215MOL   H12643354   0.023   6.396   5.970  0.8113  0.1580 -0.2817
  215MOL   H12743355   7.671   6.518   5.979  2.5132  2.3486 -0.5951
  215MOL   H12843356   0.068   6.454   5.747 -1.9470  0.4707 -1.9022
  215MOL   H12943357   7.729   6.560   5.729  0.9394  1.7512 -0.2919
  215MOL   H13043358   0.170   6.661   5.774  0.2085 -2.2228  0.1080
  215MOL   H13143359   0.154   6.620   5.938  0.0057 -0.4587  0.2879
  215MOL   O13243360   0.002   6.749   5.877 -0.0034  0.3603  0.8343
  215MOL   C13343361   0.060   6.871   5.929  0.1718  0.1895 -0.3489
  215MOL   C13443362   7.755   6.985   5.886  0.2422  0.2173  0.2625
  215MOL   C13543363   0.008   7.124   5.938  0.5951 -0.8418  0.0740
  215MOL   H13643364   0.156   6.892   5.880  1.6666 -2.7247  1.2228
  215MOL   H13743365   0.068   6.862   6.037 -0.1098 -0.0532 -0.3489
  215MOL   H13843366   7.767   7.000   5.779  0.8910 -3.3202 -0.2126
  215MOL   H13943367   7.651   6.968   5.915  0.1318 -0.7515 -0.6927
  215MOL   H14043368   0.116   7.121   5.921  1.1371  0.7977  2.8870
  215MOL   H14143369   7.768   7.132   6.043  0.8086  1.5143 -0.0312
  215MOL   O14243370   7.737   7.219   5.862 -0.0163 -0.3846  0.1851
  215MOL   C14343371   7.771   7.349   5.892 -0.0058  0.7737  0.5010
  215MOL   C14443372   7.717   7.428   5.768  0.4228  0.1649 -0.6448
  215MOL   C14543373   0.024   7.423   5.648  0.6775  0.3144  0.3371
  215MOL   H14643374   0.092   7.349   5.896 -0.0611 -0.9850  2.9850
  215MOL   H14743375   7.732   7.367   5.992 -1.8021  0.5863 -0.1477
  215MOL   H14843376   7.619   7.397   5.732 -0.3057 -0.4136  1.7343
  215MOL   H14943377   7.695   7.528   5.805  0.6705 -0.7957  2.2417
  215MOL   H15043378   0.043   7.317   5.632  2.7506  0.8965 -1.4400
  215MOL   H15143379   0.121   7.463   5.680 -0.2412  2.6089  0.3276
  215MOL   O15243380   7.756   7.483   5.536 -0.0678 -0.2334 -0.0756
  215MOL   C15343381   7.672   7.404   5.459 -0.6074 -0.0994  0.0955
  215MOL   C15443382   7.599   7.486   5.353 -0.0065 -0.7518 -0.7473
  215MOL   C15543383   7.481   7.404   5.292 -0.3317 -0.3687  0.4538
  215MOL   H15643384   7.610   7.357   5.536  1.4489 -2.7492  0.2001
  215MOL   H15743385   7.744   7.333   5.418 -0.9725 -1.4234  1.7072
  215MOL   H15843386   7.556   7.576   5.395 -0.0642 -0.2183 -1.9302
  215MOL   H15943387   7.671   7.515   5.275 -1.2194  0.7497 -1.3311
  215MOL   H16043388   7.415   7.375   5.374 -2.6402 -0.8461 -1.5026
  215MOL   H16143389   7.502   7.301   5.263 -0.8273  0.4433 -3.0730
  215MOL   O16243390   7.426   7.469   5.178  0.0427  0.3620  0.1898
  215MOL   C16343391   7.311   7.401   5.130  0.7716  0.0763 -0.0218
  215MOL   C16443392   7.258   7.467   4.995  0.0102 -0.4027 -0.0965
  215MOL   C16543393   7.162   7.387   4.912  0.1380 -0.2656 -0.2879
  215MOL   H16643394   7.237   7.405   5.210 -0.0371 -2.3565 -0.5976
  215MOL   H16743395   7.333   7.299   5.099 -0.9467 -0.5221  0.6497
  215MOL   H16843396   7.197   7.552   5.024 -2.4647 -1.6142 -1.6427
  215MOL   H16943397   7.344   7.497   4.935 -1.5851 -0.9732 -2.7084
  215MOL   H17043398   7.075   7.359   4.971  2.5624 -1.9554  2.6404
  215MOL   H17143399   7.201   7.287   4.890  1.5570  0.3609 -0.6584
  215MOL   O17243400   7.126   7.458   4.793 -0.5249  0.3796 -0.1339
  215MOL   C17343401   7.015   7.415   4.718  0.3586 -1.4977  0.8413
  215MOL   C17443402   7.026   7.494   4.585  0.1580 -0.1551 -0.2722
  215MOL   C17543403   6.897   7.494   4.509  0.3303 -0.3927  0.2715
  215MOL   H17643404   6.922   7.438   4.770  0.9686  0.7752  0.9756
  215MOL   H17743405   7.019   7.307   4.709  1.0775 -1.3195 -1.2876
  215MOL   H17843406   7.066   7.593   4.606 -2.0027  0.9946 -1.3905
  215MOL   H17943407   7.109   7.449   4.530  1.4723 -0.4122  1.8345
  215MOL   H18043408   6.830   7.568   4.552 -0.1446 -1.0015  0.5891
  215MOL   H18143409   6.847   7.397   4.511 -1.1050  0.3245  0.5095
  215MOL   O18243410   6.936   7.522   4.379  0.0051 -0.3104  0.1716
  215MOL   C18343411   6.828   7.520   4.288 -0.8126 -0.0747 -0.1610
  215MOL   C18443412   6.876   7.564   4.151  0.3310 -0.0683 -0.2082
  215MOL   C18543413   6.772   7.597   4.039 -0.6639 -0.3121  0.4819
  215MOL   H18643414   6.748   7.589   4.316 -1.0412 -0.0218 -0.9170
  215MOL   H18743415   6.789   7.419   4.284  1.4249 -0.9467 -1.3318
  215MOL   H18843416   6.929   7.656   4.178 -0.3663 -0.1949  1.6879
  215MOL   H18943417   6.952   7.496   4.114  1.5507  0.3545  1.4411
  215MOL   H19043418   6.701   7.666   4.083 -0.3148 -0.4559  1.2809
  215MOL   H19143419   6.721   7.506   4.006  0.1525 -1.2091  1.6502
  215MOL   O19243420   6.840   7.649   3.927 -0.1667 -0.3396  0.4444
  215MOL   C19343421   6.757   7.698   3.823 -0.7284  0.5134 -0.4034
  215MOL   C19443422   6.844   7.743   3.715  0.5038  0.4410 -0.5316
  215MOL   C19543423   6.953   0.060   3.745 -0.7966 -0.0108 -0.0629
  215MOL   H19643424   6.694   7.779   3.860 -0.6157  0.3003  0.2789
  215MOL   H19743425   6.674   7.633   3.798 -0.4732 -0.3089  0.8232
  215MOL   H19843426   6.897   7.654   3.680 -1.0527 -1.3950  1.6275
  215MOL   H19943427   6.778   7.778   3.635  1.2282  0.5984 -1.0677
  215MOL   H20043428   7.020   0.018   3.820 -2.1600  0.7349  1.6161
  215MOL   H20143429   6.911   0.156   3.774 -0.7891  0.4034 -1.3961
  215MOL   H20243430   7.009   0.083   3.655 -1.2832  1.2627 -0.0514
  216MOL     O143431   0.257   5.632   2.139 -0.1075  0.3713  0.2637
  216MOL     C243432   0.166   5.683   2.043  0.6969  0.4742 -0.4507
  216MOL     C343433   0.250   5.753   1.942 -0.3287  0.1131 -0.0956
  216MOL     C443434   0.175   5.834   1.846 -0.0221  0.7251 -0.0496
  216MOL     H543435   0.102   5.749   2.101 -0.2504 -0.9284  0.1219
  216MOL     H643436   0.114   5.596   2.004 -1.0828  1.5724 -0.5785
  216MOL     H743437   0.329   5.816   1.984  1.0060  0.2195 -2.6547
  216MOL     H843438   0.298   5.680   1.877 -1.2293 -0.4804 -0.0992
  216MOL     H943439   0.244   5.885   1.779  1.1864 -1.8996 -0.8344
  216MOL    H1043440   0.122   5.903   1.912  0.3219  0.6596  0.2985
  216MOL    H1143441   0.287   5.701   2.197 -0.4190  1.5581 -0.9700
  216MOL    O1243442   0.073   5.756   1.781 -0.3657  0.3512 -0.2065
  216MOL    C1343443   0.022   5.819   1.671  0.1822 -0.2691 -0.5479
  216MOL    C1443444   7.750   5.710   1.580 -0.6381 -0.1822 -0.2233
  216MOL    C1543445   7.679   5.769   1.459 -0.5774 -0.1682 -0.6833
  216MOL    H1643446   0.111   5.861   1.623  1.4628 -0.7425  1.3766
  216MOL    H1743447   7.742   5.901   1.692 -0.4413 -0.0106 -3.3405
  216MOL    H1843448   0.040   5.642   1.545  1.3394  1.4570  0.9128
  216MOL    H1943449   7.688   5.648   1.644  0.8625 -0.8694  0.6084
  216MOL    H2043450   7.740   5.835   1.399 -2.0560  1.3921 -0.5157
  216MOL    H2143451   7.599   5.836   1.491  0.8757  0.7707  1.0612
  216MOL    O2243452   7.639   5.658   1.388  0.1056  0.0503 -0.2256
  216MOL    C2343453   7.572   5.693   1.263  0.1775 -0.1233 -0.1434
  216MOL    C2443454   7.569   5.568   1.171 -0.6104  0.5564 -0.1613
  216MOL    C2543455   7.589   5.600   1.017  0.4119  0.2949 -0.2621
  216MOL    H2643456   7.624   5.778   1.217 -0.2491 -0.2854 -0.9335
  216MOL    H2743457   7.473   5.734   1.279  0.7767  2.5708 -2.8454
  216MOL    H2843458   7.665   5.522   1.194 -1.4094 -1.8997 -1.6295
  216MOL    H2943459   7.485   5.506   1.201 -1.3549  1.4171 -0.4520
  216MOL    H3043460   7.504   5.661   0.987 -0.5950 -2.0425 -2.3240
  216MOL    H3143461   7.585   5.509   0.957  2.4507  0.5250 -0.7790
  216MOL    O3243462   7.704   5.678   0.991  0.3673  0.2988 -0.1962
  216MOL    C3343463   7.745   5.675   0.856 -0.0991 -0.4987  0.1378
  216MOL    C3443464   0.017   5.812   0.827 -0.2348 -0.4826 -0.1630
  216MOL    C3543465   0.061   5.805   0.678 -0.2323 -0.3012  0.8226
  216MOL    H3643466   7.666   5.647   0.787  0.8370 -0.8589 -0.8012
  216MOL    H3743467   0.029   5.594   0.844 -0.1372 -0.4380 -0.5082
  216MOL    H3843468   7.742   5.897   0.852 -1.1402 -0.5381 -2.1687
  216MOL    H3943469   0.101   5.818   0.896 -1.9209  1.9129  1.7891
  216MOL    H4043470   7.778   5.825   0.598  0.0339  0.0524  0.6729
  216MOL    H4143471   0.101   5.707   0.653  1.0526  0.2976  0.4839
  216MOL    O4243472   0.167   5.903   0.659  0.7885 -0.2726 -0.0918
  216MOL    C4343473   0.249   5.885   0.549 -0.2677  0.6705  1.0661
  216MOL    C4443474   0.333   6.005   0.517 -0.4039  0.1062  0.0115
  216MOL    C4543475   0.439   5.984   0.404 -0.0450 -0.6576 -0.2792
  216MOL    H4643476   0.191   5.838   0.470  1.8364  0.1127 -0.1855
  216MOL    H4743477   0.313   5.807   0.588 -0.5439 -0.9388 -1.6109
  216MOL    H4843478   0.269   6.092   0.498 -0.5543  0.0615  0.3187
  216MOL    H4943479   0.388   6.040   0.604  0.6595 -0.9196 -0.2373
  216MOL    H5043480   0.467   6.081   0.363  1.8170 -0.8500  0.4787
  216MOL    H5143481   0.388   5.939   0.319 -0.3340 -1.6717  0.4112
  216MOL    O5243482   0.550   5.897   0.443 -0.2010  0.3613 -0.2314
  216MOL    C5343483   0.624   5.878   0.318  0.7896  0.0120 -0.3702
  216MOL    C5443484   0.738   5.779   0.332  0.9351 -0.0534  0.2065
  216MOL    C5543485   0.836   5.786   0.218 -0.1884  1.1431 -0.1049
  216MOL    H5643486   0.660   5.976   0.286 -0.2039 -0.0884 -1.8032
  216MOL    H5743487   0.560   5.850   0.235 -1.1454  1.8716  0.4305
  216MOL    H5843488   0.792   5.785   0.427  2.9417  0.7155 -0.9541
  216MOL    H5943489   0.686   5.684   0.326 -1.0256  0.8763  1.6702
  216MOL    H6043490   0.891   5.693   0.228 -1.4153  0.2837 -1.2973
  216MOL    H6143491   0.917   5.859   0.222  2.1427 -1.3735  0.2125
  216MOL    O6243492   0.770   5.780   0.088 -0.1387 -0.0255 -0.3869
  216MOL    C6343493   0.864   5.802   7.770  0.6369 -0.1722  0.6317
  216MOL    C6443494   0.782   5.793   7.637 -0.3647 -0.0046  0.2391
  216MOL    C6543495   0.868   5.773   7.513  0.0834  0.1773  0.4056
  216MOL    H6643496   0.939   5.723   7.777 -1.7877 -2.6673 -0.7044
  216MOL    H6743497   0.906   5.903   7.778 -0.2850  0.1994  0.7736
  216MOL    H6843498   0.711   5.712   7.651 -0.0054 -0.2221  0.8343
  216MOL    H6943499   0.717   5.880   7.638 -0.9598 -0.4334  3.3181
  216MOL    H7043500   0.813   5.791   7.421 -0.2896 -1.3161  0.3197
  216MOL    H7143501   0.911   5.673   7.505 -0.5780  0.0511 -1.9693
  216MOL    O7243502   0.984   5.861   7.502 -0.1284  1.0709 -0.1775
  216MOL    C7343503   0.950   5.994   7.498  0.3049 -0.1272  0.2878
  216MOL    C7443504   1.077   6.082   7.494 -0.2091 -0.3219  0.2755
  216MOL    C7543505   1.060   6.218   7.436  0.0628  0.1572 -0.3293
  216MOL    H7643506   0.888   6.032   7.579  0.5683  1.8592 -0.4290
  216MOL    H7743507   0.889   5.990   7.408  0.4283 -2.5876  0.2756
  216MOL    H7843508   1.105   6.102   7.597  1.8705 -0.9159 -0.1511
  216MOL    H7943509   1.165   6.030   7.456 -0.7068 -1.7649  1.0348
  216MOL    H8043510   0.980   6.268   7.492 -1.6073 -2.1414 -0.5931
  216MOL    H8143511   1.022   6.207   7.335  0.6060 -2.5439 -0.2644
  216MOL    O8243512   1.181   6.293   7.431  0.4780  0.2931  0.2078
  216MOL    C8343513   1.165   6.406   7.341  0.3609  0.8849  0.2742
  216MOL    C8443514   1.295   6.483   7.330 -0.3520  0.5806 -0.1187
  216MOL    C8543515   1.274   6.626   7.282  0.4247  0.1149  0.4648
  216MOL    H8643516   1.071   6.458   7.362 -1.6247 -1.8300 -1.4850
  216MOL    H8743517   1.160   6.360   7.242  1.8197  1.5434 -0.1180
  216MOL    H8843518   1.334   6.485   7.432  2.1716 -2.3051 -0.9529
  216MOL    H8943519   1.359   6.419   7.269  1.3636 -0.0083  2.1959
  216MOL    H9043520   1.230   6.638   7.183  2.7693  2.7215 -0.3180
  216MOL    H9143521   1.373   6.672   7.274  0.9987 -0.9622  1.2273
  216MOL    O9243522   1.199   6.699   7.373  0.6990 -0.1157 -0.2666
  216MOL    C9343523   1.229   6.835   7.371 -0.0175 -0.2041 -0.3996
  216MOL    C9443524   1.140   6.926   7.455  0.5671 -0.0470  0.1775
  216MOL    C9543525   0.998   6.945   7.406 -0.0746  0.0719  0.5288
  216MOL    H9643526   1.220   6.870   7.268 -2.0746  1.0254  0.1852
  216MOL    H9743527   1.331   6.855   7.405 -0.3806  1.0914 -0.0786
  216MOL    H9843528   1.153   6.908   7.561 -2.2283  2.4183  1.0005
  216MOL    H9943529   1.184   7.026   7.458 -0.2054  0.2585  1.5240
  216MOL   H10043530   0.943   6.862   7.451  1.3877 -2.0209 -1.3997
  216MOL   H10143531   1.000   6.923   7.299  3.1298  0.4094  0.4545
  216MOL   O10243532   0.939   7.072   7.438 -0.5172  0.1578  0.1199
  216MOL   C10343533   0.806   7.092   7.383 -0.4027  1.1687  0.1268
  216MOL   C10443534   0.764   7.226   7.438 -0.0601 -0.0854 -0.4207
  216MOL   C10543535   0.746   7.233   7.588 -0.5425  0.6214  0.1719
  216MOL   H10643536   0.739   7.010   7.407 -0.2218  1.0184  0.1277
  216MOL   H10743537   0.808   7.095   7.274 -3.4365  0.0497 -0.0027
  216MOL   H10843538   0.831   7.304   7.403 -2.9451  1.3168 -3.0511
  216MOL   H10943539   0.677   7.234   7.373  0.9590 -0.3199 -1.8162
  216MOL   H11043540   0.833   7.200   7.644  0.7359  0.8146 -1.6531
  216MOL   H11143541   0.670   7.156   7.604 -0.4342  0.7793  1.4470
  216MOL   O11243542   0.683   7.362   7.616  0.4770  0.3619 -0.0629
  216MOL   C11343543   0.769   7.471   7.641 -0.8353  0.9118 -0.0654
  216MOL   C11443544   0.693   7.579   7.715  1.0008  0.0796 -0.0106
  216MOL   C11543545   0.781   7.703   7.742 -0.1774 -0.1811  0.2031
  216MOL   H11643546   0.813   7.503   7.547 -0.7967 -0.9699 -0.7042
  216MOL   H11743547   0.847   7.425   7.702 -1.4822  0.2354  0.2594
  216MOL   H11843548   0.605   7.610   7.658  1.1888 -0.9117 -0.8574
  216MOL   H11943549   0.660   7.535   0.021  0.6167  2.4264  0.9760
  216MOL   H12043550   0.812   7.752   7.650 -0.2747  0.3825  0.4679
  216MOL   H12143551   0.870   7.668   0.006 -0.0523 -0.2014 -0.0212
  216MOL   O12243552   0.704   0.003   0.028  0.1249 -0.1212 -0.4381
  216MOL   C12343553   0.772   0.121   0.072 -0.2904  0.6660  0.0120
  216MOL   C12443554   0.675   0.200   0.164  0.5696 -0.6984 -0.4128
  216MOL   C12543555   0.749   0.332   0.211  0.3757 -0.8358  0.5810
  216MOL   H12643556   0.800   0.179   7.773  2.6905 -1.2229 -0.3553
  216MOL   H12743557   0.865   0.099   0.125 -0.7225 -1.6839 -0.1160
  216MOL   H12843558   0.595   0.217   0.091 -1.5220  1.2540  2.2352
  216MOL   H12943559   0.643   0.153   0.257 -0.2940 -0.6733 -0.6878
  216MOL   H13043560   0.812   0.355   0.125  0.1370  1.3911  0.9710
  216MOL   H13143561   0.815   0.315   0.296  1.9462 -1.3115 -0.7162
  216MOL   O13243562   0.667   0.449   0.204 -0.5783  0.4397  0.2123
  216MOL   C13343563   0.579   0.448   0.321 -0.6958 -0.0319 -0.7502
  216MOL   C13443564   0.464   0.545   0.302  0.1107  1.5308  0.5230
  216MOL   C13543565   0.387   0.502   0.172  0.6324 -0.4798  0.9015
  216MOL   H13643566   0.624   0.485   0.413 -0.9295  0.3707 -0.7953
  216MOL   H13743567   0.545   0.348   0.347 -1.6074 -0.1895 -2.4908
  216MOL   H13843568   0.394   0.551   0.384  0.0069  0.7115  0.5062
  216MOL   H13943569   0.511   0.641   0.283 -0.2803  1.0483 -3.2796
  216MOL   H14043570   0.354   0.399   0.185  0.8686 -0.6650  0.0942
  216MOL   H14143571   0.451   0.503   0.084  0.3521  0.9674  0.7062
  216MOL   O14243572   0.276   0.590   0.158  1.2766  0.3710 -0.1163
  216MOL   C14343573   0.194   0.562   0.042  0.3628  0.1616 -0.4433
  216MOL   C14443574   0.080   0.665   0.025  0.3706  0.4958 -0.2981
  216MOL   C14543575   7.781   0.677   0.152  0.6263  0.4196 -0.1617
  216MOL   H14643576   0.144   0.466   0.050 -1.6509  1.1339 -1.0567
  216MOL   H14743577   0.258   0.556   7.743  2.0109 -2.2713  0.8665
  216MOL   H14843578   0.112   0.764   7.780  2.9187 -0.5947 -1.2666
  216MOL   H14943579   0.007   0.645   7.735  2.1671 -1.4623 -1.5287
  216MOL   H15043580   0.062   0.710   0.230  1.0964 -0.2650 -0.2873
  216MOL   H15143581   7.745   0.580   0.187  2.2041  0.0668  0.5135
  216MOL   O15243582   7.684   0.776   0.134 -0.1040  0.1951  0.4350
  216MOL   C15343583   7.591   0.782   0.242 -0.3233  0.4665  0.0821
  216MOL   C15443584   7.477   0.867   0.191 -0.3010 -0.5297 -0.3805
  216MOL   C15543585   7.350   0.863   0.271 -0.1044  0.2105  0.2847
  216MOL   H15643586   7.633   0.823   0.334  0.1163 -0.8944  0.5091
  216MOL   H15743587   7.549   0.684   0.265 -1.1942  0.4638 -1.4345
  216MOL   H15843588   7.517   0.968   0.191 -0.4930 -0.4478  0.2090
  216MOL   H15943589   7.451   0.834   0.091 -0.1005 -2.3852  0.1597
  216MOL   H16043590   7.296   0.769   0.254  2.1213 -1.2430  1.0240
  216MOL   H16143591   7.294   0.948   0.233 -0.0824  0.1662  0.1513
  216MOL   O16243592   7.382   0.892   0.412 -0.1166 -0.6318  0.0912
  216MOL   C16343593   7.273   0.883   0.500 -0.2114 -0.6052 -0.4488
  216MOL   C16443594   7.280   0.985   0.614 -0.7492 -0.2147 -0.1851
  216MOL   C16543595   7.279   1.140   0.570 -1.3748  0.4545 -0.3283
  216MOL   H16643596   7.268   0.778   0.526 -2.1006 -0.5357 -0.4454
  216MOL   H16743597   7.184   0.905   0.441  0.7988  1.4832 -1.2723
  216MOL   H16843598   7.188   0.979   0.672 -0.0073  1.1237  1.1594
  216MOL   H16943599   7.368   0.969   0.676 -0.1707  1.2244 -0.6012
  216MOL   H17043600   7.184   1.147   0.517 -0.8300  2.8019 -1.0385
  216MOL   H17143601   7.368   1.147   0.507 -1.0144 -1.2842 -0.0553
  216MOL   O17243602   7.277   1.219   0.689 -0.0656 -0.4573  0.1612
  216MOL   C17343603   7.268   1.357   0.669  0.2132 -0.2262 -0.0909
  216MOL   C17443604   7.325   1.424   0.796 -0.3535 -1.4135 -1.0510
  216MOL   C17543605   7.300   1.576   0.799  0.2584 -0.2340 -0.0659
  216MOL   H17643606   7.166   1.391   0.648  0.4661  0.6242  0.0604
  216MOL   H17743607   7.329   1.388   0.585 -1.8746  2.4681 -0.6771
  216MOL   H17843608   7.284   1.380   0.887 -0.9225  0.4690 -0.3608
  216MOL   H17943609   7.433   1.417   0.805 -0.3371  1.0291  1.5649
  216MOL   H18043610   7.333   1.632   0.711 -1.6397  0.7301 -0.1906
  216MOL   H18143611   7.360   1.623   0.877  1.3025  2.2676 -2.2946
  216MOL   O18243612   7.159   1.599   0.800  0.0185 -0.1611  0.5353
  216MOL   C18343613   7.120   1.735   0.833 -0.1976 -0.3707  0.3091
  216MOL   C18443614   6.976   1.742   0.886 -0.1806  0.0243 -0.2655
  216MOL   C18543615   6.919   1.881   0.915 -0.0777 -0.6498  0.0921
  216MOL   H18643616   7.135   1.801   0.747 -1.1710  0.4901  0.7838
  216MOL   H18743617   7.183   1.782   0.908  1.3622 -0.9350 -0.6254
  216MOL   H18843618   6.913   1.687   0.816  1.7296 -1.7455 -0.6112
  216MOL   H18943619   6.978   1.681   0.976 -2.2918  2.4690  1.5378
  216MOL   H19043620   6.993   1.939   0.970 -1.1932 -0.4436  1.3965
  216MOL   H19143621   6.828   1.872   0.974  0.4983  0.9008  1.2234
  216MOL   O19243622   6.898   1.956   0.798 -0.5857  0.3823 -0.0931
  216MOL   C19343623   6.851   2.093   0.824 -0.4885 -0.1880  0.8564
  216MOL   C19443624   6.714   2.099   0.893 -0.2842  0.0612  0.5152
  216MOL   C19543625   6.644   2.230   0.847  0.2887  0.1570  0.3670
  216MOL   H19643626   6.859   2.147   0.730 -0.1636 -0.7708  0.5475
  216MOL   H19743627   6.926   2.136   0.892 -1.2031  1.0247  0.8901
  216MOL   H19843628   6.649   2.019   0.857  0.4136 -0.8294  1.2259
  216MOL   H19943629   6.714   2.097   1.002  2.5990  1.8033  0.5839
  216MOL   H20043630   6.708   2.317   0.865  3.1743 -2.1809  1.9709
  216MOL   H20143631   6.552   2.244   0.904 -1.6011 -0.0374 -2.5803
  216MOL   H20243632   6.634   2.233   0.739  1.8193 -3.2145  0.0761
  217MOL     O143633   5.387   2.500   2.079 -0.4863 -0.4542  0.4500
  217MOL     C243634   5.253   2.472   2.023 -0.7182 -0.2651 -0.2391
  217MOL     C343635   5.243   2.336   1.951 -0.1837 -0.3527  0.6940
  217MOL     C443636   5.109   2.295   1.894  0.0039  0.0333  0.5521
  217MOL     H543637   5.245   2.553   1.951 -1.1761  0.8075  0.9908
  217MOL     H643638   5.180   2.488   2.103 -0.5170 -1.2457  0.1444
  217MOL     H743639   5.308   2.313   1.867 -1.9034 -0.5183 -0.6175
  217MOL     H843640   5.265   2.251   2.015  0.3268 -0.1949  0.7325
  217MOL     H943641   5.045   2.275   1.979 -1.0220  0.7520 -0.0386
  217MOL    H1043642   5.120   2.202   1.838 -0.7991  1.5642 -2.2987
  217MOL    H1143643   5.383   2.471   2.169 -1.8868 -0.8386  0.2703
  217MOL    O1243644   5.066   2.398   1.810 -0.0812 -0.1757  0.5736
  217MOL    C1343645   4.939   2.375   1.754 -0.1879 -0.5037 -0.3767
  217MOL    C1443646   4.911   2.470   1.639 -0.6537 -0.2530 -0.4658
  217MOL    C1543647   5.010   2.468   1.526 -0.8187 -1.1911 -0.3098
  217MOL    H1643648   4.857   2.374   1.825  0.8663 -0.5527  0.8482
  217MOL    H1743649   4.927   2.277   1.708  1.6924 -0.8617 -0.1449
  217MOL    H1843650   4.809   2.452   1.605 -0.5352  0.0505 -0.9830
  217MOL    H1943651   4.911   2.572   1.676 -1.3583 -0.5091  0.2497
  217MOL    H2043652   5.051   2.370   1.501 -0.2635 -1.1338  0.3685
  217MOL    H2143653   5.092   2.525   1.570  0.0682 -3.7577  1.5336
  217MOL    O2243654   4.965   2.541   1.410  0.3915 -0.1053 -0.4495
  217MOL    C2343655   5.071   2.568   1.316  0.0504  0.2530 -0.5744
  217MOL    C2443656   4.994   2.631   1.191 -0.3524 -0.3789  0.7026
  217MOL    C2543657   4.934   2.774   1.209 -0.2113 -0.3648 -0.4916
  217MOL    H2643658   5.122   2.473   1.300 -1.3482 -0.9004  1.6467
  217MOL    H2743659   5.148   2.635   1.356  0.6100 -0.6450 -0.1498
  217MOL    H2843660   5.052   2.625   1.099  1.4152  0.1595  1.7565
  217MOL    H2943661   4.906   2.569   1.175 -3.3922  4.2020 -1.1196
  217MOL    H3043662   5.013   2.843   1.241  0.5642 -1.8871  0.9507
  217MOL    H3143663   4.862   2.777   1.291  0.7142  1.8122  0.3058
  217MOL    O3243664   4.878   2.807   1.086 -0.2134 -0.6656  0.4390
  217MOL    C3343665   4.850   2.946   1.072  0.9655  0.5004  0.1885
  217MOL    C3443666   4.723   2.962   0.996 -0.3643  0.0409 -0.7056
  217MOL    C3543667   4.714   3.112   0.953  0.1779 -0.1086  0.0537
  217MOL    H3643668   4.942   2.991   1.035 -0.2176  0.3648 -3.0601
  217MOL    H3743669   4.834   2.997   1.167 -2.7258 -0.8454  0.3819
  217MOL    H3843670   4.722   2.892   0.912  1.5114 -1.4268  0.4703
  217MOL    H3943671   4.642   2.947   1.067 -1.3281 -0.2906 -1.8564
  217MOL    H4043672   4.748   3.184   1.028 -1.5175  1.0700 -0.2801
  217MOL    H4143673   4.613   3.151   0.944 -0.0787 -0.7138  0.2767
  217MOL    O4243674   4.780   3.135   0.826 -0.4388 -0.1948  0.6617
  217MOL    C4343675   4.787   3.271   0.791  0.4423 -0.3580  0.1736
  217MOL    C4443676   4.910   3.338   0.849  0.1790  0.3185  0.4159
  217MOL    C4543677   5.047   3.269   0.815 -0.0725 -0.3188 -0.0218
  217MOL    H4643678   4.695   3.325   0.813 -0.9993 -1.3671 -3.1113
  217MOL    H4743679   4.783   3.279   0.682  1.9075  0.2891  0.1408
  217MOL    H4843680   4.920   3.440   0.813  0.9478  0.3570  0.7434
  217MOL    H4943681   4.914   3.345   0.958  0.7640  0.7744  0.3679
  217MOL    H5043682   5.067   3.176   0.867 -0.5990 -0.3964  0.0396
  217MOL    H5143683   5.119   3.332   0.868  0.2496 -0.5931 -0.1322
  217MOL    O5243684   5.063   3.268   0.673 -0.0588  0.8618  0.1113
  217MOL    C5343685   5.178   3.190   0.624  0.1818 -0.3940 -0.8958
  217MOL    C5443686   5.147   3.172   0.469 -0.0917  0.1860 -0.3512
  217MOL    C5543687   5.241   3.070   0.399  0.5401 -1.3371  0.4074
  217MOL    H5643688   5.182   3.098   0.683 -1.0043  1.1229  1.5955
  217MOL    H5743689   5.277   3.234   0.640 -0.4510  0.7180  0.0305
  217MOL    H5843690   5.044   3.136   0.476 -0.3541  1.4301  3.1278
  217MOL    H5943691   5.145   3.272   0.426  0.1787  0.7578  0.9671
  217MOL    H6043692   5.236   2.974   0.450 -0.5293 -1.1064  0.7569
  217MOL    H6143693   5.343   3.108   0.406 -0.0884  0.3419  0.9540
  217MOL    O6243694   5.194   3.059   0.267  0.3220 -0.5269  0.7889
  217MOL    C6343695   5.242   2.942   0.197  0.0261 -0.0654  0.7271
  217MOL    C6443696   5.181   2.923   0.052  0.3958  0.1463  0.1449
  217MOL    C6543697   5.030   2.888   0.061  0.0875 -0.0063  0.2392
  217MOL    H6643698   5.221   2.853   0.257  0.6666 -1.0379 -0.4550
  217MOL    H6743699   5.350   2.959   0.196  0.2459 -1.3938  0.3416
  217MOL    H6843700   5.191   3.010   7.776 -2.3383 -0.9809 -1.9148
  217MOL    H6943701   5.225   2.837   0.002  0.3971 -0.0232  0.4376
  217MOL    H7043702   4.982   2.962   0.126  1.2443  2.7663 -1.9423
  217MOL    H7143703   5.031   2.795   0.118  1.5803 -0.6125 -0.7516
  217MOL    O7243704   4.963   2.879   7.723 -0.6075  0.1320 -0.4029
  217MOL    C7343705   4.830   2.838   7.731 -0.3389  0.4763  0.6375
  217MOL    C7443706   4.789   2.818   7.586 -0.4893 -0.6818  0.1245
  217MOL    C7543707   4.645   2.753   7.571 -0.3815  0.7682  0.0197
  217MOL    H7643708   4.766   2.913   7.778 -1.1322 -0.6617  1.4141
  217MOL    H7743709   4.816   2.744   7.786 -1.4948  0.9906  1.2418
  217MOL    H7843710   4.795   2.918   7.543  0.0405  0.0192  1.7862
  217MOL    H7943711   4.862   2.757   7.532 -1.3411  0.9178 -2.9190
  217MOL    H8043712   4.579   2.834   7.602 -0.6081  1.0041 -1.0664
  217MOL    H8143713   4.631   2.668   7.639  0.8235  1.0819  0.6825
  217MOL    O8243714   4.628   2.698   7.438 -0.6244 -0.8141 -0.1562
  217MOL    C8343715   4.492   2.666   7.414  0.5432  0.7813 -0.2092
  217MOL    C8443716   4.465   2.580   7.287 -0.4413 -0.1448 -0.5202
  217MOL    C8543717   4.321   2.535   7.287 -0.1621 -0.2616 -0.3222
  217MOL    H8643718   4.428   2.754   7.413 -1.3939 -0.5151  1.6897
  217MOL    H8743719   4.462   2.620   7.508  1.6041 -1.8678 -1.1160
  217MOL    H8843720   4.484   2.640   7.198 -0.5513  0.3407 -0.2160
  217MOL    H8943721   4.539   2.502   7.267 -0.6850 -0.7248  0.8041
  217MOL    H9043722   4.261   2.624   7.306 -0.2775 -0.4852  0.3865
  217MOL    H9143723   4.301   2.465   7.368  1.4184 -1.0354 -0.5934
  217MOL    O9243724   4.289   2.476   7.166  0.2898 -0.0856 -0.6377
  217MOL    C9343725   4.159   2.417   7.170  0.1710  0.3890 -0.1209
  217MOL    C9443726   4.145   2.350   7.038 -0.6278 -0.1517  0.5857
  217MOL    C9543727   4.008   2.286   7.029 -0.6854  0.0889 -0.6404
  217MOL    H9643728   4.079   2.488   7.190  1.4263  1.0112  2.9935
  217MOL    H9743729   4.147   2.351   7.256  0.0660  0.8031  0.1811
  217MOL    H9843730   4.153   2.420   6.955 -1.5598  1.7398  2.0371
  217MOL    H9943731   4.214   2.267   7.022  0.9771  0.8898  1.9938
  217MOL   H10043732   3.931   2.360   7.051 -0.8970 -0.2039 -0.3929
  217MOL   H10143733   3.993   2.212   7.107 -1.3161 -0.9339 -1.6941
  217MOL   O10243734   3.976   2.226   6.903  0.2384 -0.5289 -0.2879
  217MOL   C10343735   3.856   2.157   6.899 -0.3188 -0.0395  0.1959
  217MOL   C10443736   3.844   2.103   6.756  0.2494 -0.1402 -0.4656
  217MOL   C10543737   3.731   2.001   6.736  0.1767  0.2340  0.5375
  217MOL   H10643738   3.777   2.225   6.930 -0.3325 -0.1859  0.4878
  217MOL   H10743739   3.866   2.079   6.974  0.6789 -0.4547 -0.3502
  217MOL   H10843740   3.837   2.183   6.681 -0.8279  0.0927 -0.1314
  217MOL   H10943741   3.936   2.051   6.729  1.2727  1.2777  0.1880
  217MOL   H11043742   3.638   2.054   6.757  1.1635  1.2373  2.5753
  217MOL   H11143743   3.745   1.919   6.806 -0.3785 -0.1000  0.2585
  217MOL   O11243744   3.743   1.958   6.602 -0.3218  0.2740 -0.7292
  217MOL   C11343745   3.647   1.853   6.580  1.0088 -0.7567  0.3331
  217MOL   C11443746   3.698   1.715   6.546 -0.3399 -0.3482 -0.0015
  217MOL   C11543747   3.607   1.622   6.478 -0.6141 -0.0942 -0.9006
  217MOL   H11643748   3.599   1.901   6.495  0.5277 -1.2063  0.3467
  217MOL   H11743749   3.578   1.843   6.664  0.5185  2.2546  0.3422
  217MOL   H11843750   3.797   1.726   6.503 -0.9637 -0.5032 -1.5289
  217MOL   H11943751   3.718   1.672   6.644  0.0710 -0.9428 -0.3457
  217MOL   H12043752   3.503   1.615   6.510 -0.7711  1.0528 -1.1346
  217MOL   H12143753   3.644   1.520   6.486 -1.5819 -0.1978  2.9545
  217MOL   O12243754   3.603   1.670   6.341 -0.0986 -0.1250 -0.4234
  217MOL   C12343755   3.495   1.622   6.266  0.0224 -0.0127  0.1558
  217MOL   C12443756   3.495   1.695   6.131  0.1080 -0.2712 -0.0863
  217MOL   C12543757   3.490   1.843   6.142  0.2254  0.2544  0.4942
  217MOL   H12643758   3.395   1.643   6.305 -0.5739  0.6234 -1.6892
  217MOL   H12743759   3.487   1.515   6.247  0.3232  0.3455 -2.0625
  217MOL   H12843760   3.574   1.658   6.066  0.5121 -0.0438  0.2706
  217MOL   H12943761   3.404   1.673   6.075  0.7909  1.5905 -1.9674
  217MOL   H13043762   3.581   1.874   6.192 -0.3425  1.5909  0.7314
  217MOL   H13143763   3.399   1.873   6.194 -2.0010 -1.4534 -2.2402
  217MOL   O13243764   3.495   1.902   6.009  0.9977 -0.8197 -0.7125
  217MOL   C13343765   3.463   2.040   5.998 -0.7526  0.7568 -1.3543
  217MOL   C13443766   3.445   2.073   5.850 -0.1854 -0.2783 -0.1133
  217MOL   C13543767   3.430   2.225   5.837 -0.6493 -0.3301 -0.0226
  217MOL   H13643768   3.559   2.083   6.026  0.0237 -1.6212 -0.2307
  217MOL   H13743769   3.387   2.077   6.065  0.2636  1.0465 -0.3489
  217MOL   H13843770   3.528   2.035   5.790 -0.0506  0.1583 -0.1987
  217MOL   H13943771   3.357   2.015   5.821 -1.0440  0.3286  1.2182
  217MOL   H14043772   3.524   2.270   5.869 -1.0000 -0.0063  0.5650
  217MOL   H14143773   3.355   2.262   5.907 -1.1776 -0.3589 -0.5676
  217MOL   O14243774   3.399   2.282   5.704 -0.3111  0.2406  0.1593
  217MOL   C14343775   3.341   2.412   5.713  0.4738  0.0503  0.2262
  217MOL   C14443776   3.322   2.456   5.565  0.7626  0.0621 -0.0296
  217MOL   C14543777   3.261   2.597   5.547 -0.7187 -0.5044  0.0300
  217MOL   H14643778   3.415   2.478   5.759  0.2522  0.6444 -0.2659
  217MOL   H14743779   3.244   2.411   5.762  0.0227 -2.5845 -0.6443
  217MOL   H14843780   3.415   2.436   5.511  0.6044  1.1138 -0.7020
  217MOL   H14943781   3.256   2.386   5.514  0.1698  1.7943 -1.6483
  217MOL   H15043782   3.236   2.630   5.446  0.5715  2.5823  0.6368
  217MOL   H15143783   3.328   2.674   5.586 -0.6340 -1.2738  1.4287
  217MOL   O15243784   3.140   2.611   5.623  0.1724  0.2669  0.6404
  217MOL   C15343785   3.126   2.720   5.717  0.0052 -0.6458 -0.2361
  217MOL   C15443786   2.999   2.696   5.794 -0.3006  0.7266  0.4566
  217MOL   C15543787   3.000   2.559   5.862 -0.3639 -0.5752  0.2557
  217MOL   H15643788   3.115   2.813   5.661  0.6383 -0.7462 -0.5357
  217MOL   H15743789   3.212   2.733   5.784  0.5028  0.2105 -1.0178
  217MOL   H15843790   2.991   2.771   5.872 -1.4977 -1.3660  2.3956
  217MOL   H15943791   2.917   2.707   5.723 -0.5709 -0.1940  0.6186
  217MOL   H16043792   3.090   2.545   5.921 -1.0913 -1.0998  1.2448
  217MOL   H16143793   2.989   2.482   5.786 -1.0344 -0.5607  0.3367
  217MOL   O16243794   2.882   2.565   5.945 -0.2467  0.1679  0.8696
  217MOL   C16343795   2.867   2.446   6.017  0.5535  0.3372 -0.1767
  217MOL   C16443796   2.743   2.450   6.112  0.0258  0.4077  0.1842
  217MOL   C16543797   2.754   2.352   6.228  0.1255 -0.1799 -0.3755
  217MOL   H16643798   2.960   2.438   6.073  2.0902  1.2543 -2.5116
  217MOL   H16743799   2.865   2.362   5.948  0.7586  0.0284  0.1915
  217MOL   H16843800   2.713   2.547   6.153  0.7978  1.2931 -1.2925
  217MOL   H16943801   2.664   2.419   6.044 -0.3026  1.1369  0.2301
  217MOL   H17043802   2.804   2.263   6.192 -0.2538 -1.4117  2.0330
  217MOL   H17143803   2.657   2.304   6.243  1.3976 -3.2877 -1.6569
  217MOL   O17243804   2.807   2.400   6.348  0.4079  0.3907 -0.2260
  217MOL   C17343805   2.807   2.299   6.457 -0.1858 -0.5784 -0.6065
  217MOL   C17443806   2.872   2.358   6.582  0.5849  0.3268 -0.1394
  217MOL   C17543807   2.872   2.265   6.700  0.1882  0.6026  0.7047
  217MOL   H17643808   2.865   2.212   6.426  1.3781  0.1486  0.2316
  217MOL   H17743809   2.708   2.267   6.490  0.6186 -0.5884  1.9256
  217MOL   H17843810   2.973   2.386   6.552  0.9755  0.1977  1.0514
  217MOL   H17943811   2.823   2.453   6.601 -2.5120 -1.1348 -0.5478
  217MOL   H18043812   2.930   2.176   6.676  2.3513  1.8033  1.3015
  217MOL   H18143813   2.770   2.247   6.733  0.6010 -1.3309  0.9936
  217MOL   O18243814   2.942   2.329   6.809  0.7738 -0.1933  0.2032
  217MOL   C18343815   2.922   2.254   6.927  0.1965  0.0904 -0.4990
  217MOL   C18443816   3.020   2.314   7.022 -0.7460 -0.0216  1.4830
  217MOL   C18543817   2.988   2.282   7.167 -0.2733  0.0692  0.4724
  217MOL   H18643818   2.944   2.149   6.909  2.6235  0.3300  0.8510
  217MOL   H18743819   2.819   2.262   6.964 -0.2952 -1.7457 -1.4177
  217MOL   H18843820   3.121   2.278   7.001 -1.6160 -0.2520 -2.6636
  217MOL   H18943821   3.018   2.422   7.011  0.4751 -0.1618 -0.3115
  217MOL   H19043822   2.970   2.176   7.182 -1.0645  0.4583  2.3695
  217MOL   H19143823   2.910   2.342   7.213 -0.4586  0.3180 -0.1719
  217MOL   O19243824   3.109   2.318   7.234  0.0693 -0.1149  0.4661
  217MOL   C19343825   3.103   2.276   7.368 -0.0331 -0.3107 -0.3558
  217MOL   C19443826   3.241   2.261   7.435  0.4063  0.1729 -0.1206
  217MOL   C19543827   3.241   2.309   7.587  0.4885 -0.1383  0.3675
  217MOL   H19643828   3.048   2.183   7.380 -1.8820  0.7234 -0.6883
  217MOL   H19743829   3.038   2.340   7.428  0.5901  1.1070 -1.1679
  217MOL   H19843830   3.281   2.160   7.421  0.1393  0.1818 -0.9373
  217MOL   H19943831   3.323   2.315   7.389 -0.4905  0.1518 -1.7657
  217MOL   H20043832   3.195   2.236   7.654  0.7642 -1.3187 -0.7012
  217MOL   H20143833   3.188   2.403   7.604  0.7672  0.2649 -0.9743
  217MOL   H20243834   3.344   2.324   7.618  1.2713 -2.2387 -1.1362
  218MOL     O143835   6.362   4.991   4.421  0.1210  0.1374 -0.0193
  218MOL     C243836   6.246   5.001   4.505  0.2649  0.4470 -0.0622
  218MOL     C343837   6.278   5.062   4.644  0.0023 -0.4264  0.1828
  218MOL     C443838   6.168   5.054   4.742  0.2815  0.3666  0.1398
  218MOL     H543839   6.202   4.901   4.519 -1.6695  1.2838  0.0575
  218MOL     H643840   6.178   5.052   4.437  1.9489  1.0427 -1.3305
  218MOL     H743841   6.364   5.021   4.697  0.8686  1.1848  0.0462
  218MOL     H843842   6.307   5.167   4.631 -0.0556 -0.5311 -0.8292
  218MOL     H943843   6.213   5.085   4.836 -0.3674  0.1675  0.5196
  218MOL    H1043844   6.123   4.955   4.752 -1.3209  1.0663 -0.0187
  218MOL    H1143845   6.432   5.002   4.483 -0.8456 -0.5105  1.2209
  218MOL    O1243846   6.081   5.156   4.708  0.3803  0.2193  0.4101
  218MOL    C1343847   5.979   5.179   4.806  0.1959 -0.2853 -0.3390
  218MOL    C1443848   5.859   5.244   4.744 -1.0506 -0.0599  0.1999
  218MOL    C1543849   5.755   5.244   4.853  0.3780  0.4180  0.4391
  218MOL    H1643850   6.032   5.241   4.878  1.9494 -1.1000 -0.8905
  218MOL    H1743851   5.949   5.089   4.860 -1.0012  0.5433  0.3985
  218MOL    H1843852   5.872   5.349   4.717 -1.8250  0.4797  1.8051
  218MOL    H1943853   5.841   5.198   4.647 -1.0414  0.3214  0.0159
  218MOL    H2043854   5.778   5.302   4.943  1.6370 -0.7512  0.8930
  218MOL    H2143855   5.753   5.139   4.882 -0.4081  0.0544 -0.9197
  218MOL    O2243856   5.625   5.266   4.787  0.1398  0.4343 -0.3950
  218MOL    C2343857   5.537   5.320   4.885  0.0566 -0.0166 -0.7476
  218MOL    C2443858   5.448   5.421   4.807 -0.3285 -0.0080  0.5169
  218MOL    C2543859   5.336   5.488   4.887  0.1832 -0.0084 -0.1282
  218MOL    H2643860   5.588   5.384   4.957 -0.3378 -0.6525  0.1016
  218MOL    H2743861   5.475   5.243   4.930 -1.6387  1.0864 -1.1847
  218MOL    H2843862   5.505   5.509   4.775 -1.2441  0.3976 -0.0069
  218MOL    H2943863   5.401   5.366   4.725  1.3266  0.6215 -0.8959
  218MOL    H3043864   5.270   5.549   4.824  0.0353 -0.4393 -0.3941
  218MOL    H3143865   5.376   5.551   4.966 -1.1442  1.1940 -0.3846
  218MOL    O3243866   5.252   5.382   4.936  0.8059 -0.0323 -0.6011
  218MOL    C3343867   5.156   5.415   5.040  0.2856  0.1197  0.2661
  218MOL    C3443868   5.073   5.291   5.083  0.8412  0.4842 -0.6943
  218MOL    C3543869   5.146   5.199   5.179  0.5366 -0.4154  0.4073
  218MOL    H3643870   5.077   5.483   5.011 -0.8765 -1.8821 -1.4244
  218MOL    H3743871   5.212   5.449   5.128 -2.4196  1.3397  1.5629
  218MOL    H3843872   4.990   5.330   5.142  1.9333  1.1075  0.4572
  218MOL    H3943873   5.028   5.257   4.990  0.3608 -1.7874  0.3239
  218MOL    H4043874   5.172   5.240   5.277  0.3361 -1.7275  1.0298
  218MOL    H4143875   5.233   5.157   5.129 -0.1949  2.5203 -3.5365
  218MOL    O4243876   5.056   5.103   5.220 -0.0818  0.0456 -0.4770
  218MOL    C4343877   5.073   4.974   5.159 -0.4870  0.2732  0.3476
  218MOL    C4443878   4.945   4.894   5.171 -0.0382 -0.6307  0.2034
  218MOL    C4543879   4.839   4.945   5.076 -0.4392 -0.2615  0.7215
  218MOL    H4643880   5.151   4.932   5.223  0.3990 -1.0531 -1.5492
  218MOL    H4743881   5.108   4.976   5.056 -1.9742  0.8985 -0.1624
  218MOL    H4843882   4.967   4.791   5.142  0.1748 -0.3063 -0.7847
  218MOL    H4943883   4.905   4.894   5.273 -0.7556  2.0159 -0.0471
  218MOL    H5043884   4.879   4.932   4.975  2.3519 -0.5158  1.7991
  218MOL    H5143885   4.836   5.051   5.101  0.3650 -0.0400 -0.0631
  218MOL    O5243886   4.717   4.890   5.115 -0.0719  0.2111  0.3740
  218MOL    C5343887   4.612   4.946   5.036 -0.0917 -0.6598  0.0094
  218MOL    C5443888   4.484   4.887   5.087  0.2038 -0.2258  0.5196
  218MOL    C5543889   4.366   4.927   5.000  0.5534 -0.0482 -0.2663
  218MOL    H5643890   4.626   4.932   4.928 -0.1636 -0.1726 -0.0649
  218MOL    H5743891   4.605   5.054   5.051 -1.3956 -0.3202 -2.6529
  218MOL    H5843892   4.485   4.778   5.098  2.1903 -0.3510 -0.7160
  218MOL    H5943893   4.463   4.917   5.189  0.5625 -0.9319  0.8076
  218MOL    H6043894   4.394   4.946   4.897 -0.4951  0.7049 -0.4151
  218MOL    H6143895   4.316   5.016   5.040 -0.3268 -0.6490 -0.0152
  218MOL    O6243896   4.275   4.817   4.993 -0.8627 -0.2655 -0.3573
  218MOL    C6343897   4.198   4.815   4.875 -0.4075  0.4599 -0.7387
  218MOL    C6443898   4.105   4.697   4.882  0.5314 -0.1000  0.5019
  218MOL    C6543899   3.972   4.699   4.802  0.1362 -0.3630 -0.1642
  218MOL    H6643900   4.262   4.807   4.787  0.9197  0.1133  0.2481
  218MOL    H6743901   4.131   4.901   4.876  0.5385  1.2113  1.6781
  218MOL    H6843902   4.155   4.601   4.866 -1.1796 -1.1373  1.3350
  218MOL    H6943903   4.079   4.670   4.984 -1.5175 -1.7652 -0.4261
  218MOL    H7043904   3.919   4.778   4.854  1.4447  1.4879 -1.5628
  218MOL    H7143905   3.921   4.604   4.814  2.2615 -1.5582 -0.2855
  218MOL    O7243906   3.980   4.739   4.665 -0.1220 -0.5497  0.0808
  218MOL    C7343907   4.052   4.643   4.584  0.3930 -0.8881 -0.0354
  218MOL    C7443908   4.064   4.697   4.444  0.2384 -0.5527 -0.3862
  218MOL    C7543909   4.140   4.618   4.345  0.2688  1.2035 -0.7341
  218MOL    H7643910   4.002   4.546   4.571 -2.8241  0.9220 -1.8126
  218MOL    H7743911   4.155   4.630   4.617  0.5926 -3.4347 -1.4955
  218MOL    H7843912   3.961   4.709   4.409 -1.4570 -2.1490  3.7362
  218MOL    H7943913   4.115   4.793   4.442 -2.7637  1.1116  0.3098
  218MOL    H8043914   4.235   4.589   4.390 -0.0773  0.8001 -0.2572
  218MOL    H8143915   4.155   4.670   4.251  1.0911 -1.9428 -2.4300
  218MOL    O8243916   4.065   4.502   4.312  0.2539  0.6600  0.1287
  218MOL    C8343917   4.127   4.418   4.215 -0.2809  0.0282 -0.3383
  218MOL    C8443918   4.043   4.282   4.220  0.1124  0.2002 -0.2906
  218MOL    C8543919   4.055   4.213   4.356  0.2436  0.7917 -0.2778
  218MOL    H8643920   4.229   4.388   4.239 -0.3941 -0.7758 -0.8240
  218MOL    H8743921   4.114   4.460   4.115 -3.0046 -1.4270 -0.6620
  218MOL    H8843922   3.941   4.290   4.183  0.0382 -1.5587 -0.5089
  218MOL    H8943923   4.090   4.216   4.147 -0.5025  1.0558 -1.4742
  218MOL    H9043924   3.998   4.120   4.361 -0.4351  1.1857 -0.4901
  218MOL    H9143925   4.000   4.280   4.422  1.4552 -2.1799  3.9261
  218MOL    O9243926   4.176   4.202   4.410 -0.5242 -0.1255  0.2944
  218MOL    C9343927   4.175   4.188   4.552 -0.3880 -0.1973  0.5212
  218MOL    C9443928   4.315   4.210   4.612  0.4358  0.6104  0.4287
  218MOL    C9543929   4.357   4.358   4.619  0.1229  0.2444 -0.0352
  218MOL    H9643930   4.155   4.083   4.574  1.0316 -0.5557  0.1106
  218MOL    H9743931   4.093   4.239   4.603 -0.5133 -0.9319  1.0601
  218MOL    H9843932   4.309   4.180   4.717  0.6610 -0.7564  0.0559
  218MOL    H9943933   4.386   4.144   4.563 -1.3807 -1.1510  0.0637
  218MOL   H10043934   4.276   4.407   4.674  0.4120  1.9670 -1.1242
  218MOL   H10143935   4.359   4.384   4.514 -0.7365 -1.5389 -0.5123
  218MOL   O10243936   4.479   4.375   4.681  0.7903 -0.4036 -0.3947
  218MOL   C10343937   4.522   4.513   4.685 -0.1022  0.8429  0.1022
  218MOL   C10443938   4.633   4.528   4.801 -0.0857 -0.2353  0.1976
  218MOL   C10543939   4.578   4.538   4.944  0.7050 -0.8755  1.1311
  218MOL   H10643940   4.442   4.584   4.706  0.7770  1.7653  0.3769
  218MOL   H10743941   4.564   4.541   4.588  1.7706 -0.0242  0.6439
  218MOL   H10843942   4.715   4.456   4.795  0.3857  0.2807  0.3819
  218MOL   H10943943   4.691   4.619   4.787  1.7902 -1.4591 -0.1191
  218MOL   H11043944   4.550   4.436   4.970  0.6825 -1.8939 -2.6828
  218MOL   H11143945   4.503   4.616   4.960  1.0084 -0.2770 -0.3660
  218MOL   O11243946   4.691   4.587   5.013 -0.0578 -1.2810 -0.3309
  218MOL   C11343947   4.687   4.557   5.151 -0.2489  0.5253  0.5631
  218MOL   C11443948   4.785   4.437   5.192  0.0300  0.4781 -0.8064
  218MOL   C11543949   4.940   4.468   5.176 -0.2903  0.3970  0.0418
  218MOL   H11643950   4.585   4.531   5.178 -1.0291  0.9911 -1.8130
  218MOL   H11743951   4.715   4.652   5.197 -2.1931  1.1198  0.5397
  218MOL   H11843952   4.770   4.425   5.300  0.2379 -2.3629 -1.0524
  218MOL   H11943953   4.764   4.338   5.151 -1.2021  0.6018 -0.4941
  218MOL   H12043954   4.969   4.561   5.224  0.5383 -0.3085  0.9509
  218MOL   H12143955   4.966   4.485   5.072  0.5756 -2.1197 -0.1928
  218MOL   O12243956   5.026   4.365   5.225  0.2367  0.0041  0.1157
  218MOL   C12343957   5.165   4.381   5.163  0.1145 -0.0423  0.3854
  218MOL   C12443958   5.263   4.286   5.214  0.1251 -0.3950 -0.1541
  218MOL   C12543959   5.221   4.139   5.185 -0.5716  0.3407 -0.8350
  218MOL   H12643960   5.201   4.482   5.180 -0.9240  0.7634 -1.9005
  218MOL   H12743961   5.147   4.382   5.055 -0.1394  0.5876  0.4278
  218MOL   H12843962   5.359   4.313   5.171 -0.7229  1.1297 -1.1346
  218MOL   H12943963   5.282   4.300   5.321  1.7879 -0.4510 -0.4338
  218MOL   H13043964   5.248   4.120   5.081 -1.7187 -1.5017 -0.8061
  218MOL   H13143965   5.116   4.115   5.199 -0.0770 -1.0058  0.7350
  218MOL   O13243966   5.297   4.053   5.274  0.2142 -0.0843  0.0121
  218MOL   C13343967   5.276   3.912   5.255 -0.3906  0.6699 -0.0797
  218MOL   C13443968   5.371   3.832   5.351  0.0213 -0.9404 -0.6012
  218MOL   C13543969   5.359   3.682   5.333  0.3157 -0.6265  0.2828
  218MOL   H13643970   5.297   3.881   5.153 -2.0011 -1.1479  0.1217
  218MOL   H13743971   5.170   3.889   5.270 -0.3829  1.0637  0.6106
  218MOL   H13843972   5.476   3.860   5.339 -0.3872 -0.1083 -2.3565
  218MOL   H13943973   5.327   3.853   5.449 -0.0553  1.4078 -1.1234
  218MOL   H14043974   5.407   3.637   5.420 -0.5252 -1.7498  0.1828
  218MOL   H14143975   5.414   3.639   5.249  0.2299 -0.3166  0.0645
  218MOL   O14243976   5.225   3.639   5.330 -0.4939  0.6717  0.1211
  218MOL   C14343977   5.206   3.509   5.288 -0.1231 -0.1869  0.6753
  218MOL   C14443978   5.052   3.495   5.272 -0.6068  1.3370  0.1764
  218MOL   C14543979   4.994   3.558   5.150  0.0527  0.1354  0.3153
  218MOL   H14643980   5.234   3.433   5.361 -0.5931  0.2536  1.3230
  218MOL   H14743981   5.258   3.493   5.193 -0.4609 -1.1729  0.6494
  218MOL   H14843982   5.030   3.388   5.273  3.0922  0.4769 -0.3829
  218MOL   H14943983   4.997   3.533   5.358  1.4655  0.1716  2.0762
  218MOL   H15043984   5.025   3.514   5.055  0.0640 -0.0747  0.4164
  218MOL   H15143985   5.020   3.664   5.150  0.5558  0.0291  2.2166
  218MOL   O15243986   4.855   3.547   5.152  0.1011 -0.6828 -0.2476
  218MOL   C15343987   4.793   3.644   5.061 -0.0223 -0.3154 -0.2698
  218MOL   C15443988   4.768   3.573   4.928 -0.9507  0.7138  0.1351
  218MOL   C15543989   4.751   3.667   4.807 -0.0937 -0.4966  0.3635
  218MOL   H15643990   4.860   3.729   5.049 -0.8429  0.0775 -2.2541
  218MOL   H15743991   4.693   3.669   5.098 -1.4502 -3.8486 -1.4629
  218MOL   H15843992   4.858   3.520   4.897 -0.8584  0.5189  0.7403
  218MOL   H15943993   4.687   3.500   4.935  2.1795 -2.9278  0.1290
  218MOL   H16043994   4.841   3.729   4.800  0.4004 -1.1474  0.8499
  218MOL   H16143995   4.669   3.736   4.827  1.0330  0.1526  3.0450
  218MOL   O16243996   4.715   3.594   4.693 -0.1548  0.4791  0.5173
  218MOL   C16343997   4.735   3.661   4.566 -0.3565 -0.3807 -0.0829
  218MOL   C16443998   4.708   3.556   4.449 -0.7395  0.2050  0.5387
  218MOL   C16543999   4.788   3.427   4.465 -0.1908  0.1314 -0.1854
  218MOL   H16644000   4.836   3.698   4.550 -1.2634  2.5522  0.7084
  218MOL   H16744001   4.666   3.744   4.553  1.2878  0.8631 -1.0560
  218MOL   H16844002   4.600   3.540   4.454 -0.9302  1.6540  1.2129
  218MOL   H16944003   4.727   3.606   4.353 -2.3857  1.5848  0.9013
  218MOL   H17044004   4.740   3.374   4.548  1.2817 -3.7855 -1.7164
  218MOL   H17144005   4.894   3.446   4.481 -0.1505 -0.6236  0.4695
  218MOL   O17244006   4.754   3.365   4.347  0.0035 -0.6390 -0.1619
  218MOL   C17344007   4.808   3.243   4.336  0.1594  0.1866  0.4393
  218MOL   C17444008   4.771   3.194   4.197  0.0620  0.0268 -0.0975
  218MOL   C17544009   4.621   3.217   4.164  0.1669 -0.6505 -0.2317
  218MOL   H17644010   4.767   3.178   4.414 -1.8731  2.9126  1.7081
  218MOL   H17744011   4.914   3.233   4.358 -0.4815 -1.7185  2.9733
  218MOL   H17844012   4.833   3.243   4.121  0.0192  0.9270  0.4475
  218MOL   H17944013   4.791   3.088   4.179  0.2500  0.0722 -0.1574
  218MOL   H18044014   4.610   3.320   4.130  0.8793  0.6220  3.2421
  218MOL   H18144015   4.557   3.203   4.251  1.4552 -0.0078  0.8381
  218MOL   O18244016   4.585   3.128   4.054  0.6872  0.7116 -0.2297
  218MOL   C18344017   4.460   3.152   3.993 -0.4888 -0.0059 -0.4110
  218MOL   C18444018   4.469   3.097   3.840 -0.0552  0.1600 -0.2068
  218MOL   C18544019   4.355   3.128   3.747  0.2292  0.5433 -0.2057
  218MOL   H18644020   4.439   3.258   3.992 -1.0718 -0.1096  0.3477
  218MOL   H18744021   4.378   3.103   4.045 -0.2838 -0.5429 -0.5811
  218MOL   H18844022   4.560   3.133   3.791 -1.0724 -0.6532 -2.8159
  218MOL   H18944023   4.487   2.989   3.840  0.3964  0.2222 -1.2854
  218MOL   H19044024   4.385   3.126   3.642 -0.3668  1.0711 -0.3906
  218MOL   H19144025   4.315   3.228   3.760 -0.4858  0.0584  1.4624
  218MOL   O19244026   4.257   3.038   3.782 -0.2237  0.5289 -0.5337
  218MOL   C19344027   4.139   3.050   3.704  0.2808 -0.1988  0.0014
  218MOL   C19444028   4.036   2.944   3.746 -0.4000  0.8915  0.8464
  218MOL   C19544029   4.065   2.801   3.707  0.2304 -0.2124  0.2040
  218MOL   H19644030   4.147   3.030   3.597  0.6176  0.2212 -0.0535
  218MOL   H19744031   4.088   3.146   3.714  0.0859 -0.4378  1.3136
  218MOL   H19844032   4.037   2.948   3.854 -0.3131  2.7206  0.7980
  218MOL   H19944033   3.937   2.982   3.721 -1.1123  0.2116  2.6119
  218MOL   H20044034   4.165   2.778   3.742  0.4444 -1.7984 -1.3829
  218MOL   H20144035   4.077   2.793   3.599 -0.7708  2.0901 -0.1070
  218MOL   H20244036   3.987   2.735   3.747  1.4938 -0.6815  1.9407
  219MOL     O144037   0.337   5.231   4.557 -0.0359 -0.8101 -0.3720
  219MOL     C244038   0.365   5.104   4.607 -0.3233  0.3327  0.0721
  219MOL     C344039   0.398   5.093   4.756 -0.0267 -0.3043 -0.5545
  219MOL     C444040   0.433   4.952   4.785 -0.2159 -0.1374 -1.1618
  219MOL     H544041   0.446   5.071   4.542 -0.6006 -1.5441  0.6323
  219MOL     H644042   0.297   5.026   4.574  2.8176 -1.9132 -1.3975
  219MOL     H744043   0.477   5.155   4.799  0.4614 -1.6607  0.5696
  219MOL     H844044   0.314   5.128   4.816  1.3620  1.6143  0.3104
  219MOL     H944045   0.514   4.910   4.725 -0.8610 -0.6205 -1.6909
  219MOL    H1044046   0.354   4.880   4.764 -0.3753 -0.1541 -0.4847
  219MOL    H1144047   0.248   5.254   4.581  0.1145  2.2453 -2.5824
  219MOL    O1244048   0.490   4.940   4.911  0.3738 -0.4272 -0.5540
  219MOL    C1344049   0.396   4.904   5.013 -0.0526 -0.0548  0.3182
  219MOL    C1444050   0.353   4.760   4.995  0.3832  0.3452  0.2719
  219MOL    C1544051   0.260   4.721   5.110 -0.0252 -0.0091  0.3621
  219MOL    H1644052   0.308   4.968   5.019 -0.4672 -0.6193  0.3032
  219MOL    H1744053   0.446   4.906   5.110 -0.3257 -0.6751  0.4776
  219MOL    H1844054   0.308   4.750   4.896  3.0525 -0.7964 -0.8883
  219MOL    H1944055   0.439   4.693   5.005 -0.6402 -0.9462  0.6128
  219MOL    H2044056   0.171   4.780   5.130 -0.2355  0.4642 -1.8247
  219MOL    H2144057   0.313   4.716   5.205  0.0775  1.2793  0.3858
  219MOL    O2244058   0.218   4.584   5.086  0.3618 -0.2352 -0.1520
  219MOL    C2344059   0.150   4.532   5.192 -0.7444 -0.3494 -0.4300
  219MOL    C2444060   0.071   4.406   5.152  0.4317  0.3788 -0.3102
  219MOL    C2544061   0.012   4.350   5.282 -0.7152 -0.5474  0.7850
  219MOL    H2644062   0.085   4.608   5.234 -0.5097  0.2625 -1.1685
  219MOL    H2744063   0.229   4.508   5.263 -1.2526 -0.5415  0.0722
  219MOL    H2844064   7.780   4.414   5.078  0.9527 -2.8732 -1.2847
  219MOL    H2944065   0.150   4.342   5.113 -0.6175  0.2879 -2.3273
  219MOL    H3044066   0.089   4.332   5.357  0.0022 -1.1733 -0.0865
  219MOL    H3144067   7.767   4.251   5.247 -1.3042  0.0158 -0.2885
  219MOL    O3244068   7.703   4.440   5.321  0.4827 -0.0034  0.0764
  219MOL    C3344069   7.651   4.399   5.449  0.5937  0.0452  0.4437
  219MOL    C3444070   7.536   4.492   5.481  0.2868 -0.8863  0.1736
  219MOL    C3544071   7.515   4.511   5.628 -0.0634  0.7031 -0.0686
  219MOL    H3644072   7.727   4.398   5.527  1.3312 -0.8671 -0.2590
  219MOL    H3744073   7.604   4.302   5.433  0.9869  0.2535 -2.1990
  219MOL    H3844074   7.562   4.591   5.444  1.1608 -1.1773  0.0014
  219MOL    H3944075   7.444   4.470   5.426 -0.3688 -0.4099  1.0540
  219MOL    H4044076   7.603   4.554   5.676  0.6625  1.4292 -2.0041
  219MOL    H4144077   7.487   4.417   5.676 -0.1910 -0.2842 -2.0407
  219MOL    O4244078   7.418   4.602   5.639 -0.2404  0.5182  0.8231
  219MOL    C4344079   7.370   4.611   5.772 -0.4412 -0.8329 -0.4622
  219MOL    C4444080   7.266   4.717   5.773 -0.1404 -0.4803  0.6346
  219MOL    C4544081   7.317   4.857   5.726 -0.5830 -0.2216 -0.0143
  219MOL    H4644082   7.452   4.645   5.835 -0.7990 -3.8081  1.7327
  219MOL    H4744083   7.343   4.516   5.819 -0.0273 -0.3599  0.7768
  219MOL    H4844084   7.193   4.680   5.700  1.2183 -2.0314  0.0498
  219MOL    H4944085   7.225   4.719   5.874  0.8502 -2.6715  1.1010
  219MOL    H5044086   7.389   4.856   5.645  0.5341 -0.3803  0.9560
  219MOL    H5144087   7.380   4.897   5.806 -1.5136  0.1985  0.5266
  219MOL    O5244088   7.205   4.944   5.710  0.1389 -0.4263 -0.0735
  219MOL    C5344089   7.233   5.083   5.711 -0.4080  0.0896 -0.8573
  219MOL    C5444090   7.107   5.160   5.755 -0.1249 -0.1809  0.5882
  219MOL    C5544091   7.118   5.312   5.749  0.2973 -1.0756  0.6303
  219MOL    H5644092   7.271   5.120   5.616 -1.9792  0.2846 -1.4131
  219MOL    H5744093   7.313   5.101   5.783 -0.6076  2.4181 -1.1962
  219MOL    H5844094   7.030   5.136   5.682  0.0608  2.4379 -0.5190
  219MOL    H5944095   7.060   5.124   5.847 -0.7255 -1.5680 -0.2449
  219MOL    H6044096   7.021   5.361   5.752  1.2703  0.9100  0.6252
  219MOL    H6144097   7.160   5.329   5.650 -0.1594  1.6356  0.8692
  219MOL    O6244098   7.201   5.373   5.848  0.6421  0.5203 -0.5307
  219MOL    C6344099   7.218   5.507   5.816  0.5089 -0.8206 -0.0903
  219MOL    C6444100   7.301   5.567   5.932  0.0574 -0.0323 -0.2523
  219MOL    C6544101   7.363   5.709   5.925  0.0385  0.4687 -0.1401
  219MOL    H6644102   7.121   5.554   5.801  1.0860  0.3843 -0.1398
  219MOL    H6744103   7.274   5.500   5.722  1.7917  1.4800  0.4778
  219MOL    H6844104   7.239   5.566   6.022  1.7280  2.4775  0.9777
  219MOL    H6944105   7.380   5.495   5.952  0.1421 -0.9887 -3.7800
  219MOL    H7044106   7.293   5.774   5.874 -1.4104 -1.2869 -0.4208
  219MOL    H7144107   7.443   5.697   5.852 -1.9421 -1.6921 -2.0161
  219MOL    O7244108   7.400   5.745   6.058  0.8424 -0.5068  0.1250
  219MOL    C7344109   7.538   5.770   6.077  0.4914  0.8647  0.1914
  219MOL    C7444110   7.575   5.827   6.219 -0.4898 -0.3304 -0.6889
  219MOL    C7544111   7.572   5.729   6.337 -0.2431 -0.3479  0.1947
  219MOL    H7644112   7.572   5.829   5.992  1.0499 -1.5732 -1.3431
  219MOL    H7744113   7.606   5.685   6.071  2.0365  2.0772  0.4870
  219MOL    H7844114   7.674   5.872   6.221 -0.6109 -0.1193  2.2436
  219MOL    H7944115   7.506   5.908   6.238  1.1616  1.4940 -2.2614
  219MOL    H8044116   7.669   5.681   6.346  0.3889  0.5342 -1.6294
  219MOL    H8144117   7.501   5.648   6.322  0.1465 -0.3064 -2.1039
  219MOL    O8244118   7.533   5.787   6.459 -0.6022 -0.0781 -0.0252
  219MOL    C8344119   7.541   5.703   6.564 -0.3146  0.4174 -0.5922
  219MOL    C8444120   7.447   5.754   6.671 -0.3418  0.6403 -0.5368
  219MOL    C8544121   7.501   5.688   6.799 -0.0641 -0.9046 -0.7661
  219MOL    H8644122   7.644   5.686   6.595 -0.6789  0.2389  0.5319
  219MOL    H8744123   7.503   5.605   6.536  1.9191 -0.5371 -0.3389
  219MOL    H8844124   7.454   5.862   6.686  0.7704  0.2683  1.8644
  219MOL    H8944125   7.343   5.728   6.653 -0.4079 -0.4703  1.3226
  219MOL    H9044126   7.599   5.731   6.818 -1.0302  1.0306 -0.0573
  219MOL    H9144127   7.515   5.581   6.780  1.5441 -0.5197 -1.8472
  219MOL    O9244128   7.413   5.729   6.902 -0.2362 -0.4612 -0.1277
  219MOL    C9344129   7.463   5.695   7.036  0.4163 -0.4525  0.2943
  219MOL    C9444130   7.342   5.699   7.127 -0.1157  0.1952  0.3547
  219MOL    C9544131   7.379   5.673   7.270 -0.2625  0.1468 -0.1277
  219MOL    H9644132   7.538   5.771   7.055 -3.1529  2.9068  1.5148
  219MOL    H9744133   7.502   5.593   7.045  0.2499 -0.4194  1.4525
  219MOL    H9844134   7.300   5.799   7.114  0.6789  0.4539 -0.2973
  219MOL    H9944135   7.272   5.629   7.082  0.1522 -0.9300  1.6513
  219MOL   H10044136   7.468   5.732   7.293  1.0405 -1.4504 -1.0268
  219MOL   H10144137   7.404   5.568   7.276 -1.4619 -0.3467 -3.0617
  219MOL   O10244138   7.267   5.695   7.355  0.1012 -0.0970 -0.3434
  219MOL   C10344139   7.261   5.634   7.475  0.5002 -0.0565 -0.3596
  219MOL   C10444140   7.116   5.641   7.521 -0.6481  0.2116 -0.0027
  219MOL   C10544141   7.088   5.580   7.666 -0.2520  0.6464  0.0849
  219MOL   H10644142   7.329   5.681   7.546 -2.2854  0.2310  2.2338
  219MOL   H10744143   7.289   5.528   7.473  1.4793  0.1507  1.4569
  219MOL   H10844144   7.071   5.740   7.522  0.6914  0.8306 -0.1663
  219MOL   H10944145   7.064   5.574   7.452  0.5802  0.2208 -0.9554
  219MOL   H11044146   7.099   5.472   7.663 -0.9847  0.5897 -1.3559
  219MOL   H11144147   6.985   5.607   7.692 -0.4748 -1.6347  1.7043
  219MOL   O11244148   7.170   5.627   7.771 -0.3546 -0.0632 -0.8625
  219MOL   C11344149   7.133   5.551   0.102 -0.2992  0.5707 -0.0055
  219MOL   C11444150   7.245   5.570   0.200 -0.5674 -0.0900 -0.3740
  219MOL   C11544151   7.237   5.470   0.324 -0.2501  0.1499  0.1981
  219MOL   H11644152   7.114   5.445   0.086  1.6648  0.3900 -1.3548
  219MOL   H11744153   7.039   5.596   0.135 -0.4795  0.6082 -0.5624
  219MOL   H11844154   7.340   5.562   0.149 -1.0016  1.8009 -1.5110
  219MOL   H11944155   7.245   5.671   0.239  0.4998 -0.5562  0.8611
  219MOL   H12044156   7.156   5.497   0.392  1.2963  1.3136  1.6289
  219MOL   H12144157   7.319   5.502   0.388  1.3795  0.4541 -1.9968
  219MOL   O12244158   7.239   5.330   0.296  0.2623  0.0764 -0.1887
  219MOL   C12344159   7.178   5.233   0.383 -0.7961  0.1959  0.5168
  219MOL   C12444160   7.235   5.098   0.358  0.1809  0.2582 -0.7280
  219MOL   C12544161   7.390   5.105   0.370  0.1491 -0.3962 -0.1594
  219MOL   H12644162   7.071   5.212   0.371 -0.6869  0.5637 -1.1923
  219MOL   H12744163   7.193   5.250   0.490  3.7346 -0.4896  0.0930
  219MOL   H12844164   7.199   5.030   0.434  3.0541 -0.7238 -0.1961
  219MOL   H12944165   7.199   5.072   0.258 -1.0458  2.2648 -0.8359
  219MOL   H13044166   7.411   5.149   0.468 -0.1391 -3.4631  1.3566
  219MOL   H13144167   7.431   5.179   0.301 -0.0617  1.8608  2.0720
  219MOL   O13244168   7.447   4.974   0.337 -0.0337  0.3364 -0.0189
  219MOL   C13344169   7.584   4.973   0.375  0.0977 -0.0251  0.2110
  219MOL   C13444170   7.657   4.851   0.304 -0.6919 -1.4943 -0.3060
  219MOL   C13544171   0.018   4.835   0.341  0.6092 -0.1911 -0.1865
  219MOL   H13644172   7.590   4.965   0.483  2.9627 -0.8304  0.0404
  219MOL   H13744173   7.627   5.072   0.363  0.6011 -0.2854 -0.1595
  219MOL   H13844174   7.610   4.759   0.340  0.7201 -1.2670  2.2487
  219MOL   H13944175   7.654   4.837   0.196  0.3020 -0.7253 -0.4406
  219MOL   H14044176   0.017   4.856   0.448 -3.1580 -1.7257  0.1676
  219MOL   H14144177   0.082   4.906   0.288  0.6571 -1.9913 -2.6003
  219MOL   O14244178   0.077   4.718   0.298  0.5555 -0.0706 -0.0690
  219MOL   C14344179   0.028   4.606   0.366  0.1958 -0.2392 -0.6633
  219MOL   C14444180   0.078   4.484   0.292 -0.5626  0.3434 -0.5377
  219MOL   C14544181   7.765   4.460   0.180 -0.4643 -0.7519  0.4091
  219MOL   H14644182   7.711   4.598   0.392  0.4019 -4.6720 -0.6966
  219MOL   H14744183   0.075   4.601   0.464 -0.1703  1.8188 -0.3602
  219MOL   H14844184   0.172   4.506   0.241  0.3646 -1.6977  0.2420
  219MOL   H14944185   0.092   4.400   0.360 -0.6530  0.7051 -0.0693
  219MOL   H15044186   7.778   4.545   0.113 -0.6403 -0.9138  0.1698
  219MOL   H15144187   7.669   4.446   0.229 -0.5629 -2.0166 -0.1169
  219MOL   O15244188   0.025   4.341   0.125  0.2252  0.1332  0.1434
  219MOL   C15344189   7.740   4.308   0.007 -0.0013 -0.1649 -0.8211
  219MOL   C15444190   0.015   4.366   7.666 -0.4250  0.3437  0.7587
  219MOL   C15544191   7.730   4.311   7.546 -0.0054 -0.2609 -0.1547
  219MOL   H15644192   7.635   4.338   0.007  0.4719  1.7193 -3.9917
  219MOL   H15744193   7.742   4.200   7.778  0.7000  0.0375 -2.0744
  219MOL   H15844194   0.015   4.475   7.673  0.3180  0.3943  0.1009
  219MOL   H15944195   0.118   4.329   7.665 -0.9074 -1.0203 -1.8534
  219MOL   H16044196   7.624   4.337   7.556  0.1168 -0.7481  3.3634
  219MOL   H16144197   7.725   4.203   7.530  2.1987 -0.3071 -0.6064
  219MOL   O16244198   0.004   4.376   7.438  0.0585 -0.1828 -0.3101
  219MOL   C16344199   7.725   4.354   7.308  0.3722 -0.0168 -0.0026
  219MOL   C16444200   0.024   4.426   7.200 -0.2310  0.0876  0.4426
  219MOL   C16544201   7.751   4.445   7.061 -0.2031  0.0482 -0.5037
  219MOL   H16644202   7.624   4.395   7.313  0.3507  0.0128 -0.5925
  219MOL   H16744203   7.713   4.250   7.278 -3.2736  1.0078 -2.4024
  219MOL   H16844204   0.057   4.519   7.246  0.0245 -0.4538  1.3583
  219MOL   H16944205   0.116   4.372   7.182 -1.5035 -1.1018 -2.9729
  219MOL   H17044206   7.680   4.528   7.061 -0.2639  0.0024 -1.6949
  219MOL   H17144207   7.704   4.356   7.021  2.4557 -0.0195 -3.7280
  219MOL   O17244208   0.068   4.490   6.975 -0.6019 -0.0007  0.2436
  219MOL   C17344209   0.050   4.446   6.842  0.6243 -0.3113 -0.0162
  219MOL   C17444210   0.162   4.502   6.756 -0.1513 -0.1047  0.6829
  219MOL   C17544211   0.301   4.452   6.780  0.6727  0.3204 -0.3159
  219MOL   H17644212   7.738   4.478   6.815  0.9124  0.5976 -0.0478
  219MOL   H17744213   0.049   4.339   6.825  0.5020 -0.5844  1.6551
  219MOL   H17844214   0.129   4.505   6.653 -2.1920  0.8012  1.3454
  219MOL   H17944215   0.164   4.609   6.776 -2.3146 -0.4043  2.7744
  219MOL   H18044216   0.317   4.347   6.754  3.3469  0.6354 -0.1235
  219MOL   H18144217   0.304   4.452   6.889 -0.8190  0.4809 -0.2684
  219MOL   O18244218   0.389   4.537   6.710 -0.5203  0.0344 -0.2127
  219MOL   C18344219   0.518   4.530   6.751  0.0503  0.5797  0.2522
  219MOL   C18444220   0.598   4.627   6.664  0.1594 -0.3812  0.0145
  219MOL   C18544221   0.573   4.769   6.724  0.1379 -0.1610 -0.1501
  219MOL   H18644222   0.556   4.431   6.728  0.9216  0.6811  1.1895
  219MOL   H18744223   0.521   4.555   6.857 -0.9211 -0.8987  0.6331
  219MOL   H18844224   0.701   4.592   6.659  0.2453 -0.2320  0.6528
  219MOL   H18944225   0.562   4.621   6.562  0.9714 -1.3563 -0.2225
  219MOL   H19044226   0.595   4.770   6.831 -0.2933 -0.4781 -0.0604
  219MOL   H19144227   0.471   4.799   6.701 -0.1248  0.0968  1.2733
  219MOL   O19244228   0.673   4.849   6.656 -0.1304 -0.2905  0.1603
  219MOL   C19344229   0.675   4.987   6.689 -0.1503 -0.0146 -0.2126
  219MOL   C19444230   0.823   5.031   6.696 -0.0357 -0.5012 -0.5814
  219MOL   C19544231   0.914   4.951   6.788 -0.1413 -0.3114 -0.7022
  219MOL   H19644232   0.639   4.995   6.792 -2.2713 -1.6812 -0.8115
  219MOL   H19744233   0.629   5.043   6.608 -2.5658  1.5548  2.1484
  219MOL   H19844234   0.867   5.033   6.596  0.2915  2.0793 -0.4272
  219MOL   H19944235   0.825   5.138   6.720 -4.7257 -0.6748  1.0897
  219MOL   H20044236   0.891   4.971   6.892  2.5536  2.8476 -0.6068
  219MOL   H20144237   1.016   4.989   6.779 -0.2740  0.0228 -0.8102
  219MOL   H20244238   0.915   4.847   6.755 -1.2405  0.0356 -1.8960
  220MOL     O144239   4.288   5.687   3.602 -0.3261  0.1732 -0.2743
  220MOL     C244240   4.415   5.742   3.546 -0.6504 -0.1993 -0.6077
  220MOL     C344241   4.398   5.885   3.489 -0.6242 -0.0666  0.0155
  220MOL     C444242   4.535   5.947   3.457  0.4525  0.6462  0.3195
  220MOL     H544243   4.462   5.663   3.488 -0.0459 -1.7661  1.9843
  220MOL     H644244   4.462   5.752   3.643  0.2035 -1.2516 -0.9024
  220MOL     H744245   4.343   5.895   3.396  1.1014 -0.6057 -1.0974
  220MOL     H844246   4.355   5.947   3.567  0.3948  1.1382 -0.3518
  220MOL     H944247   4.594   5.888   3.388  0.1682  0.4762  0.2207
  220MOL    H1044248   4.591   5.961   3.550  1.1743 -2.9930  0.5035
  220MOL    H1144249   4.289   5.595   3.583 -0.8382 -0.3227  1.9858
  220MOL    O1244250   4.509   6.068   3.385 -0.2221  0.7118 -0.1579
  220MOL    C1344251   4.629   6.131   3.338 -0.8630  0.0776  0.7240
  220MOL    C1444252   4.620   6.275   3.292  0.4016  0.0875 -0.4717
  220MOL    C1544253   4.762   6.328   3.249  0.5547  0.6083 -0.6450
  220MOL    H1644254   4.674   6.080   3.253 -0.4446 -1.0232  1.5937
  220MOL    H1744255   4.702   6.126   3.418 -0.2711  3.0626  0.4227
  220MOL    H1844256   4.561   6.275   3.200  0.0434  0.5048 -0.2473
  220MOL    H1944257   4.567   6.338   3.363  0.7348 -2.2828  1.9340
  220MOL    H2044258   4.818   6.254   3.192 -1.7355 -1.3179 -0.4625
  220MOL    H2144259   4.821   6.351   3.337 -1.6412  0.0885  0.9879
  220MOL    O2244260   4.753   6.450   3.176 -0.2248  0.3674  0.2414
  220MOL    C2344261   4.878   6.496   3.129 -0.3164  0.5147 -0.0844
  220MOL    C2444262   4.871   6.642   3.093  0.1831 -0.4259  0.1061
  220MOL    C2544263   5.006   6.709   3.074  0.2926 -0.3397  0.0761
  220MOL    H2644264   4.900   6.432   3.044 -0.1642  0.3412  0.0838
  220MOL    H2744265   4.955   6.484   3.205  1.8980 -2.3078 -2.6403
  220MOL    H2844266   4.821   6.636   2.997 -1.7558 -0.4691  1.0895
  220MOL    H2944267   4.802   6.703   3.152 -0.6062 -0.2794 -0.9661
  220MOL    H3044268   5.076   6.658   3.008 -0.6791 -1.1333 -0.3562
  220MOL    H3144269   5.047   6.731   3.172  0.4526  2.6724 -0.6151
  220MOL    O3244270   4.979   6.835   3.005 -0.0752  0.4552 -0.0184
  220MOL    C3344271   5.090   6.914   2.995 -0.6120 -0.6431 -0.1954
  220MOL    C3444272   5.061   7.042   2.903  0.2021  0.2442 -0.7385
  220MOL    C3544273   5.174   7.151   2.894  0.6056 -0.1603 -0.0734
  220MOL    H3644274   5.174   6.866   2.946 -0.1360  1.6545 -1.7089
  220MOL    H3744275   5.127   6.940   3.094  0.4475  0.6443 -0.9121
  220MOL    H3844276   5.027   7.006   2.806  0.0042 -4.1417  0.8617
  220MOL    H3944277   4.976   7.098   2.942  0.2424  0.3131 -0.7497
  220MOL    H4044278   5.266   7.095   2.880  2.2040  2.1857  0.9132
  220MOL    H4144279   5.199   7.196   2.990 -0.6304  0.9126 -0.2416
  220MOL    O4244280   5.159   7.246   2.784  0.3548  0.2641 -0.1135
  220MOL    C4344281   5.078   7.360   2.816 -0.4947 -0.2839  0.1736
  220MOL    C4444282   5.059   7.442   2.689 -0.5072 -0.2141  0.2501
  220MOL    C4544283   4.981   7.573   2.713 -0.2262 -0.1945 -0.2756
  220MOL    H4644284   5.113   7.409   2.907 -0.4788  0.1713 -0.0776
  220MOL    H4744285   4.982   7.314   2.838  0.1176 -1.7542 -0.1316
  220MOL    H4844286   5.153   7.482   2.650 -0.3575 -0.4018  0.4195
  220MOL    H4944287   5.007   7.381   2.615 -3.8777  1.7096  0.9226
  220MOL    H5044288   4.882   7.560   2.757  1.0654 -0.6544  2.6238
  220MOL    H5144289   4.975   7.632   2.622  1.1748  0.3423 -0.0290
  220MOL    O5244290   5.075   7.649   2.787 -0.2278 -0.1066  0.0878
  220MOL    C5344291   5.027   7.695   2.912 -0.4286  0.6712 -0.1200
  220MOL    C5444292   5.081   0.047   2.954  0.7539 -1.0625  0.5312
  220MOL    C5544293   5.231   0.049   2.952  0.4806 -0.7220 -0.2388
  220MOL    H5644294   5.062   7.623   2.987 -1.0137  2.3264  1.7819
  220MOL    H5744295   4.918   7.700   2.913 -0.4803 -0.3312  0.8863
  220MOL    H5844296   5.046   0.112   2.874  1.6198  0.8201  1.6365
  220MOL    H5944297   5.040   0.093   3.044  3.9573  0.9086  1.0493
  220MOL    H6044298   5.271   0.041   2.851  0.0933  1.3392 -0.5812
  220MOL    H6144299   5.274   7.750   3.001  2.3809 -1.2642 -2.7660
  220MOL    O6244300   5.272   0.169   3.022 -0.5192  0.4090  0.0488
  220MOL    C6344301   5.411   0.189   3.016  0.4039  0.7572 -0.7256
  220MOL    C6444302   5.441   0.340   3.029  0.3848  1.3516  0.0328
  220MOL    C6544303   5.583   0.371   2.983  0.1331 -0.3162 -0.0509
  220MOL    H6644304   5.448   0.163   2.916  0.5005  0.7153 -0.6796
  220MOL    H6744305   5.478   0.124   3.072 -0.4149  0.2801 -0.2968
  220MOL    H6844306   5.371   0.383   2.957 -0.2412 -0.2879 -0.3812
  220MOL    H6944307   5.422   0.379   3.129 -0.8574  3.0584 -0.8509
  220MOL    H7044308   5.593   0.356   2.875  0.1630  2.1275 -0.4045
  220MOL    H7144309   5.653   0.308   3.038 -0.6203 -2.9116 -1.9551
  220MOL    O7244310   5.612   0.509   3.027  0.3992 -0.5153 -0.3674
  220MOL    C7344311   5.708   0.571   2.949 -0.1959  0.1645  0.1675
  220MOL    C7444312   5.787   0.677   3.024  0.0641 -0.0406  0.1509
  220MOL    C7544313   5.892   0.736   2.945 -0.7390 -0.2083 -0.5034
  220MOL    H7644314   5.661   0.603   2.856  1.4540  1.3032 -0.2932
  220MOL    H7744315   5.782   0.497   2.919 -0.3137 -1.4631  3.6589
  220MOL    H7844316   5.716   0.756   3.050  1.5642  1.4086 -0.0662
  220MOL    H7944317   5.840   0.657   3.117  0.9098  2.5798  0.2776
  220MOL    H8044318   5.861   0.778   2.849  1.8856 -0.9342 -1.7143
  220MOL    H8144319   5.964   0.657   2.923  0.3966  0.8365 -0.6171
  220MOL    O8244320   5.950   0.839   3.019 -0.0449 -0.7265  0.3069
  220MOL    C8344321   6.089   0.845   2.984  0.3428 -0.3722 -0.1537
  220MOL    C8444322   6.121   0.970   3.062  0.7003  0.0678  0.5392
  220MOL    C8544323   6.126   0.931   3.215  0.3614  0.1208 -0.1737
  220MOL    H8644324   6.106   0.848   2.876  0.2295 -0.0634 -0.1621
  220MOL    H8744325   6.140   0.759   3.026 -0.7563  0.1094  2.2281
  220MOL    H8844326   6.220   1.005   3.033  0.4298  1.3543  1.0888
  220MOL    H8944327   6.051   1.052   3.044 -1.4075 -1.9243 -0.6276
  220MOL    H9044328   6.182   0.838   3.226 -0.5829 -0.4790 -0.3837
  220MOL    H9144329   6.027   0.913   3.256 -0.4069  1.4301 -1.4177
  220MOL    O9244330   6.193   1.041   3.278  0.6898  0.0167  0.5475
  220MOL    C9344331   6.257   1.012   3.399 -0.0293 -0.2902  0.7658
  220MOL    C9444332   6.311   1.139   3.463 -0.0914 -0.2048 -0.1863
  220MOL    C9544333   6.394   1.105   3.591 -0.2051  0.4700  0.0070
  220MOL    H9644334   6.336   0.938   3.389 -0.3010 -0.2729 -1.6916
  220MOL    H9744335   6.179   0.979   3.467 -0.4380 -1.2584 -0.1621
  220MOL    H9844336   6.369   1.202   3.396 -1.6115  0.5093 -0.8482
  220MOL    H9944337   6.228   1.201   3.498  1.1456  3.3905 -3.3977
  220MOL   H10044338   6.331   1.072   3.674 -0.4544  0.9846  0.0283
  220MOL   H10144339   6.447   1.195   3.621  1.1444  0.0953 -1.2211
  220MOL   O10244340   6.485   1.007   3.547 -0.3699  0.2028  0.1521
  220MOL   C10344341   6.589   0.972   3.634 -1.1460 -0.0201  0.2583
  220MOL   C10444342   6.624   0.828   3.598 -0.2012 -0.1845  0.0507
  220MOL   C10544343   6.513   0.729   3.593 -0.6131  0.2021  0.2289
  220MOL   H10644344   6.565   0.968   3.740  0.4098  4.1685  0.8741
  220MOL   H10744345   6.677   1.036   3.628 -1.6974  1.0041  2.4858
  220MOL   H10844346   6.667   0.813   3.499  1.1493  0.6082  0.4996
  220MOL   H10944347   6.707   0.798   3.661  2.8847 -0.2906 -3.8423
  220MOL   H11044348   6.451   0.760   3.509  0.2282 -0.0183 -0.4757
  220MOL   H11144349   6.456   0.742   3.686 -2.9322 -0.7599 -1.0132
  220MOL   O11244350   6.559   0.599   3.581  0.8685  0.2004 -0.0152
  220MOL   C11344351   6.463   0.500   3.623  0.3604  0.2199 -0.5003
  220MOL   C11444352   6.518   0.358   3.603 -0.6079  0.1802 -0.0760
  220MOL   C11544353   6.589   0.341   3.473 -0.1276  0.5665 -0.1367
  220MOL   H11644354   6.379   0.511   3.555 -0.3082  0.6035  0.3753
  220MOL   H11744355   6.423   0.515   3.724 -0.2942  0.2169 -0.7594
  220MOL   H11844356   6.590   0.345   3.684  1.0600  1.8581 -1.2349
  220MOL   H11944357   6.457   0.268   3.611  0.5366 -0.5587  0.5522
  220MOL   H12044358   6.658   0.424   3.460 -0.9183  1.2451 -0.0651
  220MOL   H12144359   6.515   0.355   3.394 -0.5942 -0.3112  0.1399
  220MOL   O12244360   6.649   0.212   3.462 -0.2225  0.4855 -0.3536
  220MOL   C12344361   6.706   0.209   3.328  0.2051 -0.0007  0.4178
  220MOL   C12444362   6.795   0.089   3.320  0.1321  0.2013  0.3344
  220MOL   C12544363   6.895   0.087   3.206  0.4638 -0.3978  0.0183
  220MOL   H12644364   6.767   0.293   3.294 -0.0897 -0.2431 -0.7083
  220MOL   H12744365   6.622   0.198   3.259  1.7035  0.0903 -1.4602
  220MOL   H12844366   6.858   0.080   3.408 -1.7212 -1.5676  1.5355
  220MOL   H12944367   6.735   7.786   3.310 -1.0418  1.0681 -0.8228
  220MOL   H13044368   6.947   7.779   3.203  0.6479 -0.2848 -0.3882
  220MOL   H13144369   6.971   0.163   3.224 -1.7325  2.4578 -2.2955
  220MOL   O13244370   6.814   0.112   3.091 -0.3049  0.7845 -0.0904
  220MOL   C13344371   6.895   0.151   2.981  0.5587  0.1799  0.1806
  220MOL   C13444372   6.801   0.200   2.865 -0.1954 -0.0064  0.3052
  220MOL   C13544373   6.714   0.083   2.812  0.0431  0.4046  0.5071
  220MOL   H13644374   6.956   0.066   2.950  0.7829  0.3542  0.1447
  220MOL   H13744375   6.952   0.239   3.008 -0.1761  1.1510 -1.3823
  220MOL   H13844376   6.756   0.289   2.906 -0.7281 -0.8143  1.4880
  220MOL   H13944377   6.860   0.233   2.779 -1.3107 -0.8363 -0.7934
  220MOL   H14044378   6.648   0.054   2.894  0.0995  0.3575  0.5351
  220MOL   H14144379   6.784   0.001   2.793 -0.5184  0.2577 -1.0567
  220MOL   O14244380   6.640   0.125   2.703  0.3718 -0.0884 -0.2772
  220MOL   C14344381   6.699   0.089   2.578 -0.2301 -0.1729 -0.1969
  220MOL   C14444382   6.613   0.159   2.477  0.0502 -0.1117 -0.2291
  220MOL   C14544383   6.658   0.134   2.335  0.2645 -0.1233 -0.7616
  220MOL   H14644384   6.693   7.768   2.576  1.5194 -0.4281  3.3541
  220MOL   H14744385   6.800   0.130   2.573 -0.6580  0.9968  0.6080
  220MOL   H14844386   6.511   0.126   2.496  0.4268  0.6476  3.4583
  220MOL   H14944387   6.605   0.266   2.500 -0.2252 -0.2090  0.1279
  220MOL   H15044388   6.767   0.140   2.336  0.2154  0.5816  1.4794
  220MOL   H15144389   6.630   0.217   2.269  0.8827  0.6218 -0.0940
  220MOL   O15244390   6.616   7.788   2.292 -0.3874  0.1897  0.3924
  220MOL   C15344391   6.488   0.001   2.230 -0.4466  0.0279 -0.1985
  220MOL   C15444392   6.439   7.668   2.170  0.5937  0.0504  0.1610
  220MOL   C15544393   6.466   7.553   2.257  0.2655  0.1868 -0.3814
  220MOL   H15644394   6.477   0.084   2.159 -0.1043  1.5596  1.4900
  220MOL   H15744395   6.409   0.027   2.301 -0.7722 -0.2449 -0.4630
  220MOL   H15844396   6.336   7.689   2.141  0.5172  1.5292  1.4545
  220MOL   H15944397   6.491   7.654   2.074 -0.2389  2.1973 -0.6385
  220MOL   H16044398   6.431   7.562   2.360  0.0869  1.8643 -0.5674
  220MOL   H16144399   6.573   7.539   2.270 -0.2579 -1.5580  2.3821
  220MOL   O16244400   6.396   7.439   2.208  0.0637 -0.3872 -0.2031
  220MOL   C16344401   6.437   7.315   2.264  0.5064 -0.1049  1.4493
  220MOL   C16444402   6.346   7.199   2.218  0.1910 -0.4677  0.3576
  220MOL   C16544403   6.200   7.211   2.245 -0.3077  0.6301  0.0629
  220MOL   H16644404   6.434   7.322   2.373  1.7561 -2.7904  1.6903
  220MOL   H16744405   6.539   7.289   2.236  0.2620  0.9377 -0.5002
  220MOL   H16844406   6.367   7.181   2.113  1.0623 -1.0908  0.6302
  220MOL   H16944407   6.370   7.100   2.258 -0.1293 -0.5739  0.2890
  220MOL   H17044408   6.157   7.287   2.179 -1.2961  0.2292  0.2383
  220MOL   H17144409   6.178   7.228   2.350 -1.4358  1.2842 -0.2741
  220MOL   O17244410   6.141   7.087   2.202  0.1389  0.3825 -0.3132
  220MOL   C17344411   6.000   7.099   2.197 -0.3421 -0.2778 -0.4190
  220MOL   C17444412   5.927   6.963   2.234 -0.5280 -0.0840  0.2613
  220MOL   C17544413   5.778   6.961   2.228 -0.5962  0.2724 -0.0464
  220MOL   H17644414   5.974   7.138   2.098  0.5960  0.8816 -0.2103
  220MOL   H17744415   5.961   7.174   2.265 -0.9379 -0.9942  0.0443
  220MOL   H17844416   5.958   6.886   2.163  1.7613  2.6925 -1.8458
  220MOL   H17944417   5.961   6.933   2.334  1.4490  1.3975  0.0560
  220MOL   H18044418   5.736   7.023   2.307  0.1762 -1.9325  2.1293
  220MOL   H18144419   5.742   6.860   2.242 -2.0350  0.8301  0.3476
  220MOL   O18244420   5.730   7.005   2.109 -0.2112  0.8053  0.1635
  220MOL   C18344421   5.608   7.067   2.109  0.2759  0.5333  0.3664
  220MOL   C18444422   5.546   7.046   1.962 -0.0459  0.1338 -0.2403
  220MOL   C18544423   5.404   7.106   1.963 -0.0040 -0.1261 -0.2275
  220MOL   H18644424   5.620   7.172   2.136 -0.3106  0.7109 -0.0677
  220MOL   H18744425   5.552   7.028   2.194 -1.2835  0.6421 -0.5930
  220MOL   H18844426   5.607   7.086   1.881  2.1933  0.0643  1.3776
  220MOL   H18944427   5.536   6.939   1.939 -0.3674  0.1490 -0.1809
  220MOL   H19044428   5.401   7.211   1.992  1.2659 -0.5615  1.5782
  220MOL   H19144429   5.347   7.054   2.040 -0.2969  2.6823  1.5100
  220MOL   O19244430   5.339   7.078   1.836  0.5822  0.3017 -0.0703
  220MOL   C19344431   5.202   7.107   1.835 -0.4543 -0.2286  0.5160
  220MOL   C19444432   5.149   7.096   1.691 -0.2782  1.3212 -0.3136
  220MOL   C19544433   5.214   7.195   1.595  0.4406  0.1469  1.0539
  220MOL   H19644434   5.177   7.199   1.889 -1.4874 -1.1347  1.6062
  220MOL   H19744435   5.159   7.027   1.894 -1.2265 -0.3733 -0.2333
  220MOL   H19844436   5.164   6.998   1.647  0.8545  1.5671 -0.4887
  220MOL   H19944437   5.040   7.097   1.700 -0.3542 -3.1526  0.2354
  220MOL   H20044438   5.187   7.177   1.490 -1.5641  0.2632  1.5190
  220MOL   H20144439   5.322   7.188   1.602  0.6612  2.2933  0.2566
  220MOL   H20244440   5.183   7.298   1.610  0.7500  0.5127 -0.7128
  221MOL     O144441   1.109   5.648   2.463 -0.0609 -0.2971  0.2397
  221MOL     C244442   1.190   5.689   2.348  0.3719  0.5365 -0.5174
  221MOL     C344443   1.109   5.709   2.228  0.8561 -0.7635  0.2080
  221MOL     C444444   1.011   5.826   2.260 -0.5685 -0.3062 -0.2060
  221MOL     H544445   1.283   5.633   2.337 -0.3699 -0.5835 -1.2297
  221MOL     H644446   1.235   5.786   2.371  0.2535  0.7020 -0.9663
  221MOL     H744447   1.179   5.716   2.144 -1.2743 -1.6674 -1.6992
  221MOL     H844448   1.057   5.615   2.207 -0.3947  0.6820 -3.7064
  221MOL     H944449   0.965   5.820   2.359  1.5286  0.7735  0.8831
  221MOL    H1044450   0.938   5.842   2.181 -1.5586 -0.5066  0.6603
  221MOL    H1144451   1.161   5.661   2.541  0.3690  0.0891 -0.1118
  221MOL    O1244452   1.092   5.945   2.250  0.5696  0.3252  0.3131
  221MOL    C1344453   1.015   6.054   2.298  1.0669  0.1899  0.4835
  221MOL    C1444454   1.109   6.172   2.316  1.1041 -0.5219 -0.3965
  221MOL    C1544455   1.056   6.295   2.260 -0.3946  0.0059  0.1124
  221MOL    H1644456   0.983   6.025   2.398  1.1379 -2.9222 -0.3377
  221MOL    H1744457   0.928   6.062   2.233  1.3816 -1.6278 -0.2187
  221MOL    H1844458   1.144   6.172   2.419 -0.7510 -1.1333  0.2667
  221MOL    H1944459   1.192   6.150   2.250  1.9775  1.7711 -0.0996
  221MOL    H2044460   1.114   6.379   2.299 -0.1801  0.2057 -0.6239
  221MOL    H2144461   0.959   6.311   2.308  0.4756  0.3173  1.8259
  221MOL    O2244462   1.039   6.285   2.116  0.1991  0.0296  0.3353
  221MOL    C2344463   0.956   6.392   2.067  0.5339 -0.1894 -0.0888
  221MOL    C2444464   0.880   6.363   1.937 -1.1721 -0.1543 -0.2428
  221MOL    C2544465   0.800   6.482   1.879 -0.2532  0.0763 -0.0346
  221MOL    H2644466   1.017   6.480   2.046  0.3146 -0.6002 -2.5567
  221MOL    H2744467   0.880   6.421   2.140  0.5989  2.6052 -1.0832
  221MOL    H2844468   0.953   6.337   1.859 -1.7602  0.0915 -0.8781
  221MOL    H2944469   0.821   6.272   1.928  1.3623 -1.8607 -0.2311
  221MOL    H3044470   0.873   6.545   1.829 -1.9389  2.5005  0.4534
  221MOL    H3144471   0.763   6.541   1.963 -0.1558  0.5291 -0.3076
  221MOL    O3244472   0.685   6.448   1.801  0.1914  0.2385  0.4540
  221MOL    C3344473   0.603   6.554   1.754 -0.7388 -0.5484 -0.0929
  221MOL    C3444474   0.460   6.511   1.749 -0.1088 -0.0263 -1.1706
  221MOL    C3544475   0.367   6.632   1.707  0.4311 -0.5927  0.3975
  221MOL    H3644476   0.640   6.578   1.655  1.6420 -3.1341  0.1215
  221MOL    H3744477   0.614   6.646   1.813 -0.2650 -0.4175 -0.3786
  221MOL    H3844478   0.446   6.422   1.687 -1.7927 -2.1850  2.1243
  221MOL    H3944479   0.429   6.481   1.849  0.1835 -3.8205 -2.1545
  221MOL    H4044480   0.388   6.666   1.606  0.2107 -0.9135  0.2432
  221MOL    H4144481   0.390   6.717   1.771 -0.0098  0.8707 -1.3316
  221MOL    O4244482   0.235   6.596   1.721 -1.0607  0.0521 -0.2662
  221MOL    C4344483   0.145   6.699   1.695 -0.2319  0.8941  0.1271
  221MOL    C4444484   0.001   6.661   1.733  0.4792 -0.4563  0.2677
  221MOL    C4544485   7.672   6.740   1.668 -0.6254 -0.3656  0.1929
  221MOL    H4644486   0.140   6.714   1.587 -1.6293 -0.7820 -0.0743
  221MOL    H4744487   0.172   6.791   1.746 -0.7065 -0.1555  2.3475
  221MOL    H4844488   7.767   6.555   1.721  1.8315 -0.6001 -1.1153
  221MOL    H4944489   0.004   6.671   1.842  2.9600 -1.2124  0.3189
  221MOL    H5044490   7.682   6.713   1.562 -1.7861 -2.1897  0.5201
  221MOL    H5144491   7.686   6.848   1.673 -0.8800 -0.3344  0.2192
  221MOL    O5244492   7.550   6.696   1.726 -0.5308  0.2603  0.1248
  221MOL    C5344493   7.431   6.739   1.659  0.5223  0.3295  0.3162
  221MOL    C5444494   7.307   6.681   1.713 -0.5150 -0.0057 -0.6058
  221MOL    C5544495   7.174   6.729   1.661 -0.2034  0.1480 -0.9128
  221MOL    H5644496   7.433   6.713   1.553 -5.3574 -0.0817  0.1607
  221MOL    H5744497   7.436   6.847   1.666  1.2731  0.2684  0.8189
  221MOL    H5844498   7.319   6.575   1.694  1.2714  0.0987 -0.1607
  221MOL    H5944499   7.317   6.702   1.820 -1.1396  0.8900 -0.7092
  221MOL    H6044500   7.167   6.713   1.553 -1.3365 -3.3034 -0.3918
  221MOL    H6144501   7.144   6.830   1.689 -2.9961 -1.0214  0.5785
  221MOL    O6244502   7.072   6.641   1.713 -0.1966  0.0660  0.5261
  221MOL    C6344503   6.941   6.682   1.696  0.6821  0.4811  0.2673
  221MOL    C6444504   6.833   6.576   1.702  0.7092 -0.3361 -0.4419
  221MOL    C6544505   6.690   6.624   1.674  0.1406  0.7402 -0.0338
  221MOL    H6644506   6.941   6.723   1.595  2.2710  1.0924  0.5082
  221MOL    H6744507   6.925   6.764   1.767 -2.4889 -1.3310  1.7752
  221MOL    H6844508   6.859   6.504   1.625 -2.3648 -2.3978  0.3274
  221MOL    H6944509   6.825   6.516   1.793  1.2409  0.4398  0.1221
  221MOL    H7044510   6.699   6.689   1.588 -0.2936  1.3022  0.3450
  221MOL    H7144511   6.663   6.679   1.764 -2.6248  0.9318 -0.9645
  221MOL    O7244512   6.598   6.522   1.658 -0.1897 -0.0290  1.1411
  221MOL    C7344513   6.470   6.569   1.627 -0.1319  0.1011  0.5349
  221MOL    C7444514   6.368   6.465   1.674  0.1708  0.2618 -0.3064
  221MOL    C7544515   6.218   6.513   1.673  0.0420  0.3669  0.4284
  221MOL    H7644516   6.450   6.581   1.520  0.4958  3.8726  0.7884
  221MOL    H7744517   6.449   6.663   1.677 -0.6053  0.0028  0.5266
  221MOL    H7844518   6.363   6.369   1.622 -1.9149  0.3683 -0.3247
  221MOL    H7944519   6.388   6.445   1.780 -0.3583  0.6470 -0.1330
  221MOL    H8044520   6.204   6.599   1.739 -1.0589  0.5016  0.0375
  221MOL    H8144521   6.147   6.434   1.696 -0.0976  0.5877  0.7547
  221MOL    O8244522   6.189   6.539   1.537 -0.2910  0.1530 -0.1314
  221MOL    C8344523   6.073   6.624   1.520  0.0078  0.2248 -0.2474
  221MOL    C8444524   6.073   6.679   1.382  0.4999  0.2594 -0.3546
  221MOL    C8544525   5.953   6.775   1.359 -0.5305 -0.0750  0.4431
  221MOL    H8644526   6.067   6.705   1.592 -0.2433 -1.2864  1.4775
  221MOL    H8744527   5.982   6.564   1.534 -0.1096 -0.0153 -1.8560
  221MOL    H8844528   6.170   6.721   1.359  0.1046  0.2574 -2.1194
  221MOL    H8944529   6.068   6.598   1.309  0.4916  1.3502 -1.5829
  221MOL    H9044530   5.971   6.871   1.407 -0.1304 -1.7277  3.7549
  221MOL    H9144531   5.857   6.729   1.385 -0.5867 -0.2275 -0.0446
  221MOL    O9244532   5.940   6.800   1.215  0.5232 -0.0707  0.2014
  221MOL    C9344533   5.814   6.861   1.182  1.2119  0.4132  0.4641
  221MOL    C9444534   5.815   6.928   1.045 -0.3008 -0.2374  0.2359
  221MOL    C9544535   5.824   6.829   0.927  0.2375  0.8254  0.0989
  221MOL    H9644536   5.768   6.924   1.258 -2.4909  0.4150 -1.6618
  221MOL    H9744537   5.753   6.770   1.183  2.3998 -0.4181 -0.9761
  221MOL    H9844538   5.738   7.002   1.025  0.4910  0.7046  0.6100
  221MOL    H9944539   5.901   6.995   1.054  1.7837 -3.0448  2.3621
  221MOL   H10044540   5.723   6.787   0.920  0.2226  0.8112  0.3912
  221MOL   H10144541   5.894   6.754   0.965 -0.4612  1.1127  2.0077
  221MOL   O10244542   5.870   6.885   0.809  0.3491  0.4763  0.3604
  221MOL   C10344543   5.914   6.788   0.728  0.1409 -0.0889  0.4499
  221MOL   C10444544   5.960   6.848   0.594  0.2742  0.0637  0.2316
  221MOL   C10544545   5.997   6.748   0.485  0.2048  0.0405  0.1002
  221MOL   H10644546   5.829   6.724   0.705  1.2181  0.2730 -5.5863
  221MOL   H10744547   5.993   6.724   0.767 -0.4917 -0.4996  1.0598
  221MOL   H10844548   5.880   6.915   0.561 -0.4147 -1.7146 -1.8238
  221MOL   H10944549   6.047   6.903   0.629  0.9676 -0.7646 -0.1772
  221MOL   H11044550   5.909   6.694   0.450 -0.6420  1.1304  0.4951
  221MOL   H11144551   6.052   6.664   0.527 -1.4087  1.3498  5.3066
  221MOL   O11244552   6.064   6.814   0.383 -0.3545 -0.2616  0.0200
  221MOL   C11344553   6.115   6.744   0.271 -0.1690  0.0440 -0.6975
  221MOL   C11444554   6.169   6.855   0.178  0.4656 -0.5821  0.6322
  221MOL   C11544555   6.206   6.809   0.032  0.3888 -0.2110  0.0956
  221MOL   H11644556   6.043   6.680   0.220  0.8212 -0.7409 -1.1433
  221MOL   H11744557   6.187   6.666   0.294  0.0444  0.3043 -0.4776
  221MOL   H11844558   6.090   6.930   0.166 -0.3791 -1.3822  1.1601
  221MOL   H11944559   6.257   6.898   0.224 -0.5688  2.1361  0.1895
  221MOL   H12044560   6.121   6.770   7.765  0.6507  1.0414 -1.2039
  221MOL   H12144561   6.280   6.729   0.037 -0.3137 -0.8630  0.1564
  221MOL   O12244562   6.278   6.910   7.751 -0.1365  0.0988  0.3208
  221MOL   C12344563   6.203   6.956   7.637  0.2267 -0.7703 -0.4601
  221MOL   C12444564   6.296   7.059   7.564  0.5253  0.2221 -0.5054
  221MOL   C12544565   6.246   7.101   7.418  0.2077  0.4435  0.1004
  221MOL   H12644566   6.112   7.009   7.664  1.3930  1.3532 -0.5372
  221MOL   H12744567   6.182   6.864   7.583 -1.5305 -0.5014 -0.2578
  221MOL   H12844568   6.306   7.148   7.626  0.4438  0.2009 -0.4619
  221MOL   H12944569   6.392   7.008   7.554  0.9470  0.4704  2.0581
  221MOL   H13044570   6.302   7.188   7.384  3.4106 -1.7992 -0.6016
  221MOL   H13144571   6.142   7.134   7.415  0.1404  0.1343 -1.0240
  221MOL   O13244572   6.237   6.984   7.335 -0.0017 -0.1034 -0.1024
  221MOL   C13344573   6.256   7.014   7.192  0.3287 -1.4596 -0.9408
  221MOL   C13444574   6.290   6.891   7.112  0.3784  0.1447 -0.1536
  221MOL   C13544575   6.318   6.911   6.962  0.1722  0.0241  0.0464
  221MOL   H13644576   6.330   7.094   7.183  1.2527 -2.3042 -0.9334
  221MOL   H13744577   6.167   7.059   7.148 -0.3645 -0.4980  1.3660
  221MOL   H13844578   6.374   6.847   7.165 -0.5336 -1.0909  0.3049
  221MOL   H13944579   6.205   6.822   7.114 -1.2021  2.0859  0.4258
  221MOL   H14044580   6.226   6.955   6.925 -0.1088 -0.5241  0.0929
  221MOL   H14144581   6.332   6.824   6.899  0.7965  0.8542 -0.9789
  221MOL   O14244582   6.444   6.989   6.938  0.0208  0.1652 -0.3020
  221MOL   C14344583   6.463   7.020   6.802 -0.2431  0.4449  0.0232
  221MOL   C14444584   6.547   7.152   6.790 -0.3845 -0.4415  0.8833
  221MOL   C14544585   6.572   7.203   6.650  0.3744  0.1109 -0.1489
  221MOL   H14644586   6.364   7.023   6.757  0.2024 -2.0054 -1.2287
  221MOL   H14744587   6.520   6.938   6.758  2.9462  2.4343  0.3324
  221MOL   H14844588   6.503   7.227   6.855 -2.0892 -0.6107 -0.0515
  221MOL   H14944589   6.648   7.143   6.831 -1.4005  0.1720  3.6599
  221MOL   H15044590   6.482   7.182   6.593  0.1330  0.4620  0.1017
  221MOL   H15144591   6.661   7.161   6.602  2.1184 -0.3887  3.3703
  221MOL   O15244592   6.601   7.341   6.661  0.1262 -0.2358  0.3463
  221MOL   C15344593   6.593   7.431   6.546  0.1217  0.0845  0.0959
  221MOL   C15444594   6.638   7.566   6.589  0.1778 -0.1904  0.4879
  221MOL   C15544595   6.668   7.657   6.464  0.8381  0.4859 -0.3770
  221MOL   H15644596   6.485   7.427   6.530 -0.2987  0.5457  2.6640
  221MOL   H15744597   6.651   7.392   6.462 -1.8462 -2.0091 -0.3362
  221MOL   H15844598   6.566   7.606   6.661  0.3985  2.7304 -0.8075
  221MOL   H15944599   6.735   7.549   6.635  0.4889  0.9149  0.2676
  221MOL   H16044600   6.572   7.696   6.428  0.9612  0.5325 -0.6555
  221MOL   H16144601   6.701   7.593   6.383 -4.5555 -1.6397 -1.0715
  221MOL   O16244602   6.753   7.762   6.490 -0.1630  0.1438 -0.4222
  221MOL   C16344603   6.778   0.052   6.382 -0.2968 -0.1405  0.0379
  221MOL   C16444604   6.858   0.174   6.436 -0.1356  0.3575  0.3593
  221MOL   C16544605   6.923   0.249   6.315  0.1755  0.5511  0.3369
  221MOL   H16644606   6.683   0.077   6.336 -0.5850 -0.3975  0.4953
  221MOL   H16744607   6.834   0.011   6.298 -0.7565  0.5012 -0.5939
  221MOL   H16844608   6.783   0.238   6.483  0.8143  0.8738  1.1856
  221MOL   H16944609   6.933   0.134   6.504  0.6748 -0.2251 -0.8609
  221MOL   H17044610   6.841   0.282   6.253 -1.5525 -1.1224  1.6448
  221MOL   H17144611   6.988   0.180   6.261 -1.1546  0.6221 -1.3763
  221MOL   O17244612   7.020   0.348   6.347 -0.1482 -0.1417  0.1920
  221MOL   C17344613   7.074   0.414   6.242 -0.1221 -0.0780  1.2187
  221MOL   C17444614   6.985   0.524   6.175 -0.6085 -0.7345  0.4677
  221MOL   C17544615   7.041   0.615   6.062 -0.3177  0.2492  0.4233
  221MOL   H17644616   7.092   0.348   6.157  0.8571  0.8448  0.6895
  221MOL   H17744617   7.164   0.466   6.276  1.3361 -1.3652 -0.5964
  221MOL   H17844618   6.891   0.478   6.145 -0.3720 -0.0327 -1.4192
  221MOL   H17944619   6.949   0.599   6.246  0.7207  0.7274 -0.3644
  221MOL   H18044620   7.082   0.569   5.972 -0.8985 -2.7651  1.6381
  221MOL   H18144621   7.119   0.666   6.117 -0.9278  0.5490  1.0166
  221MOL   O18244622   6.945   0.712   6.020 -0.3918  0.2315  0.1050
  221MOL   C18344623   6.983   0.775   5.899  0.5078  0.0181  0.2375
  221MOL   C18444624   6.896   0.896   5.852 -1.2028  0.4955 -0.6047
  221MOL   C18544625   6.925   1.036   5.925  0.0100 -1.0064 -0.2345
  221MOL   H18644626   6.976   0.699   5.821  1.5451 -0.2672  0.4230
  221MOL   H18744627   7.084   0.814   5.911 -0.0725  2.4737 -2.0614
  221MOL   H18844628   6.902   0.919   5.746 -0.1491  0.2204 -0.6151
  221MOL   H18944629   6.794   0.861   5.866 -0.4778 -2.5119 -2.2731
  221MOL   H19044630   7.028   1.069   5.915 -1.4419  3.9587 -0.2244
  221MOL   H19144631   6.923   1.013   6.032 -2.0326 -0.9235 -0.2332
  221MOL   O19244632   6.823   1.128   5.891 -0.3229  0.3717  0.2534
  221MOL   C19344633   6.870   1.205   5.783 -0.2472  0.3818  0.2348
  221MOL   C19444634   6.751   1.301   5.749  0.3681 -0.2201 -0.4253
  221MOL   C19544635   6.629   1.231   5.688 -0.0571  0.6600 -0.1982
  221MOL   H19644636   6.891   1.141   5.697 -0.3183  2.2687 -1.2240
  221MOL   H19744637   6.970   1.246   5.794  0.7742 -0.7999 -3.7285
  221MOL   H19844638   6.710   1.346   5.840 -2.3026 -2.4979 -0.4426
  221MOL   H19944639   6.780   1.373   5.673  3.0335 -1.1854 -0.3783
  221MOL   H20044640   6.651   1.172   5.600 -1.1667 -0.5058  0.2971
  221MOL   H20144641   6.548   1.296   5.656  0.6074  1.3316 -0.5350
  221MOL   H20244642   6.594   1.158   5.761 -0.1458  0.1398 -0.7589
  222MOL     O144643   5.184   3.931   0.769 -0.5064 -0.0942 -0.3828
  222MOL     C244644   5.069   3.939   0.691 -0.2010 -0.3833  0.1932
  222MOL     C344645   5.059   4.075   0.629  0.3839  1.3147 -0.1922
  222MOL     C444646   4.931   4.074   0.530  0.0762 -0.5251 -0.2464
  222MOL     H544647   4.978   3.918   0.748 -0.6586  1.2912  0.1113
  222MOL     H644648   5.070   3.852   0.626 -1.6062  0.1255 -0.5416
  222MOL     H744649   5.039   4.144   0.711 -1.2389  0.6505  0.0023
  222MOL     H844650   5.150   4.104   0.576 -0.1935  1.2291 -1.2587
  222MOL     H944651   4.838   4.051   0.582  0.5611 -2.3362 -0.1652
  222MOL    H1044652   4.950   3.997   0.455 -0.8740  0.7785 -1.8630
  222MOL    H1144653   5.209   3.840   0.776  0.7013  0.2191 -0.4916
  222MOL    O1244654   4.922   4.194   0.454  0.1456  0.6271  0.5086
  222MOL    C1344655   4.828   4.191   0.348 -0.5493 -0.6916 -0.0898
  222MOL    C1444656   4.806   4.331   0.302  1.1495  0.0750  0.2713
  222MOL    C1544657   4.683   4.343   0.210 -0.0363  0.2093  0.0530
  222MOL    H1644658   4.740   4.135   0.381 -1.5400  0.8471 -0.1058
  222MOL    H1744659   4.881   4.134   0.271 -0.1377 -0.4254 -0.0044
  222MOL    H1844660   4.774   4.392   0.387 -1.8049  0.1783 -0.8758
  222MOL    H1944661   4.894   4.381   0.262 -0.6597  2.3344 -0.9663
  222MOL    H2044662   4.602   4.279   0.244  0.8193 -0.2582  1.2420
  222MOL    H2144663   4.705   4.322   0.105 -2.2644  0.3454 -0.4616
  222MOL    O2244664   4.642   4.480   0.220  0.1964  0.3219  0.6101
  222MOL    C2344665   4.516   4.517   0.165 -0.0867 -0.6193  1.1319
  222MOL    C2444666   4.533   4.663   0.114  0.4271  0.5372 -0.2739
  222MOL    C2544667   4.648   4.653   0.016 -0.6998  0.4635  0.5953
  222MOL    H2644668   4.435   4.502   0.236 -1.0942  1.6466  0.5104
  222MOL    H2744669   4.487   4.450   0.084  0.6732  1.8968 -1.2890
  222MOL    H2844670   4.446   4.698   0.057 -0.3894  3.0562  2.3575
  222MOL    H2944671   4.558   4.731   0.196 -1.4883  1.9487 -0.8111
  222MOL    H3044672   4.627   4.570   7.738 -1.5018  0.1091  1.2807
  222MOL    H3144673   4.747   4.625   0.052  0.3474 -0.5344 -2.8814
  222MOL    O3244674   4.663   4.775   7.722 -0.2685  0.1912 -0.0846
  222MOL    C3344675   4.770   4.764   7.629 -0.3841 -0.1722  0.3466
  222MOL    C3444676   4.817   4.912   7.603 -0.2788  0.1893  0.2846
  222MOL    C3544677   4.921   4.910   7.481 -0.0268 -0.5235 -0.3404
  222MOL    H3644678   4.729   4.728   7.535 -2.3490 -1.8283  1.8026
  222MOL    H3744679   4.851   4.696   7.657 -0.1454  0.7371  1.9449
  222MOL    H3844680   4.724   4.966   7.590  0.3148  1.4714  1.2409
  222MOL    H3944681   4.866   4.942   7.696  0.1017  1.1302 -0.2115
  222MOL    H4044682   4.863   4.856   7.407 -0.1783 -1.5945  0.5475
  222MOL    H4144683   5.008   4.849   7.505  0.8556  0.4049 -1.1282
  222MOL    O4244684   4.950   5.043   7.444  0.5159  0.2813  0.1736
  222MOL    C4344685   5.001   5.046   7.308  0.3457  0.4563 -0.6865
  222MOL    C4444686   5.076   5.182   7.291 -0.3513 -0.8562  0.1568
  222MOL    C4544687   5.145   5.190   7.163  0.2272  0.3284 -0.3115
  222MOL    H4644688   4.920   5.030   7.236  1.6657  0.5294 -2.2101
  222MOL    H4744689   5.067   4.960   7.294  0.3216  0.6108 -1.8262
  222MOL    H4844690   5.003   5.262   7.288 -0.4783 -0.9746  0.0639
  222MOL    H4944691   5.141   5.210   7.373  0.5014  1.5351 -1.3052
  222MOL    H5044692   5.075   5.147   7.091  1.0568  0.6075 -1.3037
  222MOL    H5144693   5.234   5.126   7.160 -0.1829 -0.2312 -0.7401
  222MOL    O5244694   5.179   5.325   7.130  0.5310  0.9438  0.4297
  222MOL    C5344695   5.298   5.378   7.190 -0.2348  0.2871  0.5336
  222MOL    C5444696   5.301   5.525   7.158 -0.3065  0.4451  0.0999
  222MOL    C5544697   5.201   5.607   7.237 -0.1016  0.0560 -0.2837
  222MOL    H5644698   5.380   5.315   7.156 -1.8921 -0.4398 -2.2393
  222MOL    H5744699   5.288   5.365   7.298 -3.6882 -1.4421  0.0585
  222MOL    H5844700   5.403   5.554   7.183  0.1210  0.6060 -1.7396
  222MOL    H5944701   5.296   5.544   7.051 -0.2324 -1.5913 -0.2945
  222MOL    H6044702   5.225   5.598   7.343  1.5841 -1.3250 -0.7593
  222MOL    H6144703   5.101   5.564   7.235  1.5392 -4.0157  0.4239
  222MOL    O6244704   5.195   5.740   7.200  0.3452  0.2306 -0.6551
  222MOL    C6344705   5.088   5.812   7.255 -0.1957  0.3178  0.0582
  222MOL    C6444706   5.084   5.964   7.231  0.2556 -0.1606 -0.3091
  222MOL    C6544707   5.168   6.042   7.322 -0.1136  0.0603 -0.2242
  222MOL    H6644708   5.087   5.794   7.362 -0.1519 -0.5827 -0.0920
  222MOL    H6744709   4.996   5.769   7.215  0.3146 -1.7067  1.0031
  222MOL    H6844710   5.114   5.990   7.130 -3.7165 -1.6506 -1.9482
  222MOL    H6944711   4.984   6.008   7.229  0.4672  0.3233 -0.2351
  222MOL    H7044712   5.275   6.022   7.308 -0.4830 -0.9072 -1.8489
  222MOL    H7144713   5.150   6.016   7.426  2.4906 -1.3014 -0.0530
  222MOL    O7244714   5.138   6.175   7.290  0.6765 -0.0791 -0.2604
  222MOL    C7344715   5.200   6.258   7.381 -0.0484  0.0715 -0.3698
  222MOL    C7444716   5.169   6.406   7.341 -0.5819 -0.2026  0.0743
  222MOL    C7544717   5.218   6.511   7.446 -0.1970 -0.3173 -0.2640
  222MOL    H7644718   5.306   6.234   7.374 -0.2025 -0.6359 -0.2627
  222MOL    H7744719   5.160   6.246   7.482 -2.4402 -1.1593 -1.4070
  222MOL    H7844720   5.205   6.435   7.243  0.2509 -1.6755 -0.0816
  222MOL    H7944721   5.062   6.411   7.324 -0.3357  1.3659 -1.0056
  222MOL    H8044722   5.169   6.481   7.539  2.4950  2.8183  2.3342
  222MOL    H8144723   5.179   6.604   7.405 -0.3269  0.3554  1.3327
  222MOL    O8244724   5.361   6.522   7.467 -0.3769 -0.4574 -0.2516
  222MOL    C8344725   5.389   6.594   7.590 -0.0434 -0.0116  0.0748
  222MOL    C8444726   5.469   6.509   7.689  0.2240  0.2148  0.1630
  222MOL    C8544727   5.386   6.397   7.752  0.1473 -0.0444  0.6412
  222MOL    H8644728   5.300   6.621   7.648  1.4382 -0.3841  2.5718
  222MOL    H8744729   5.442   6.687   7.566 -1.0525  0.5565 -0.0004
  222MOL    H8844730   5.553   6.457   7.644 -1.1437 -0.7057 -1.4129
  222MOL    H8944731   5.517   6.572   7.764 -0.2425  4.9138 -3.2624
  222MOL    H9044732   5.352   6.343   7.663  0.8825 -0.5734  0.6808
  222MOL    H9144733   5.299   6.437   0.016 -1.0960 -1.6496 -0.1592
  222MOL    O9244734   5.476   6.324   0.034 -0.0310  0.2473 -0.2923
  222MOL    C9344735   5.445   6.192   0.073 -0.0575  0.0122  0.5528
  222MOL    C9444736   5.554   6.140   0.169 -0.6032 -0.5328 -0.2361
  222MOL    C9544737   5.497   6.006   0.214  0.3144 -0.5829  0.6010
  222MOL    H9644738   5.421   6.127   7.777 -1.1343 -1.7335  2.1725
  222MOL    H9744739   5.355   6.197   0.133 -0.0366 -5.2169  1.2155
  222MOL    H9844740   5.654   6.136   0.126  0.1153 -0.1890  1.3663
  222MOL    H9944741   5.570   6.209   0.252  0.3204 -0.0239 -0.8302
  222MOL   H10044742   5.451   5.959   0.127 -1.7606 -0.2910  1.5033
  222MOL   H10144743   5.408   6.021   0.276 -0.5423  0.8704 -0.9339
  222MOL   O10244744   5.588   5.922   0.278 -0.4762  0.9935 -0.4964
  222MOL   C10344745   5.541   5.793   0.313 -0.1425  0.5155  0.4906
  222MOL   C10444746   5.597   5.700   0.206  0.3283 -0.0175  0.3944
  222MOL   C10544747   5.536   5.562   0.202 -0.4269 -0.3038  0.6168
  222MOL   H10644748   5.432   5.792   0.316 -0.1458 -0.3370  0.2399
  222MOL   H10744749   5.585   5.764   0.408  0.9122 -0.3797 -0.2544
  222MOL   H10844750   5.567   5.747   0.113  0.8169  2.8149  1.6160
  222MOL   H10944751   5.706   5.704   0.209  0.2901  3.2127 -0.7828
  222MOL   H11044752   5.544   5.521   0.101 -0.0109  0.6462  0.2560
  222MOL   H11144753   5.430   5.572   0.226 -0.3115 -0.3987  1.1578
  222MOL   O11244754   5.589   5.485   0.300  1.0215 -0.3559  0.1079
  222MOL   C11344755   5.571   5.342   0.282  0.0433  0.4406 -0.4261
  222MOL   C11444756   5.639   5.270   0.402  1.1702  0.0100  0.6622
  222MOL   C11544757   5.645   5.119   0.390 -0.0143 -0.1419 -0.2444
  222MOL   H11644758   5.610   5.301   0.189 -0.0246  0.4076 -0.4407
  222MOL   H11744759   5.466   5.314   0.278  0.6376 -1.7128 -1.6051
  222MOL   H11844760   5.740   5.312   0.395  1.1371 -0.1663 -0.9905
  222MOL   H11944761   5.603   5.292   0.502 -0.8429  0.5812 -0.1806
  222MOL   H12044762   5.650   5.093   0.285  0.8401  1.3664 -0.5968
  222MOL   H12144763   5.549   5.079   0.421 -0.4557  1.7903  1.0052
  222MOL   O12244764   5.742   5.072   0.483 -0.9647  0.3050 -0.2320
  222MOL   C12344765   5.778   4.937   0.460 -0.5585 -0.4105 -0.2607
  222MOL   C12444766   5.884   4.907   0.559 -0.6090 -0.2310 -0.6995
  222MOL   C12544767   5.905   4.753   0.579 -0.0197  0.0408 -0.5971
  222MOL   H12644768   5.823   4.910   0.364  1.0638  1.4132 -0.0472
  222MOL   H12744769   5.688   4.876   0.468 -0.9608  0.0827 -0.9244
  222MOL   H12844770   5.981   4.938   0.519 -1.0025 -1.5073 -2.7161
  222MOL   H12944771   5.857   4.948   0.657  0.5760  1.1031 -0.9105
  222MOL   H13044772   5.916   4.708   0.480 -0.5688 -1.1216 -0.1308
  222MOL   H13144773   5.812   4.715   0.621  0.3775 -1.2956 -0.9136
  222MOL   O13244774   6.019   4.728   0.660 -0.6226 -0.1474  0.2151
  222MOL   C13344775   6.049   4.591   0.680  0.2065 -0.4579 -0.9678
  222MOL   C13444776   6.177   4.583   0.762 -0.1048  0.2994  0.6679
  222MOL   C13544777   6.230   4.444   0.780 -1.2158 -0.8641  0.3112
  222MOL   H13644778   6.069   4.545   0.583  0.6562 -1.7514 -0.2619
  222MOL   H13744779   5.960   4.551   0.729 -0.3033  3.1183  1.2091
  222MOL   H13844780   6.244   4.652   0.712 -0.7718  1.3196  1.1618
  222MOL   H13944781   6.160   4.631   0.858 -3.0189 -0.5387  0.6298
  222MOL   H14044782   6.251   4.395   0.685 -2.2300  2.6833 -1.8212
  222MOL   H14144783   6.148   4.389   0.826 -0.1642 -2.6229  0.1379
  222MOL   O14244784   6.341   4.456   0.867 -0.3377  0.6458 -0.6293
  222MOL   C14344785   6.396   4.331   0.904  0.4181 -0.6775 -0.0087
  222MOL   C14444786   6.518   4.356   0.994 -0.1540  0.6275 -0.2007
  222MOL   C14544787   6.571   4.222   1.057  0.3001 -0.1816  0.2238
  222MOL   H14644788   6.431   4.292   0.809 -0.9308  0.9012 -1.1782
  222MOL   H14744789   6.317   4.271   0.949 -1.2861  0.5518 -1.3342
  222MOL   H14844790   6.593   4.387   0.921  1.5432 -2.3073  0.2215
  222MOL   H14944791   6.496   4.428   1.072 -0.8507  1.1721 -0.8843
  222MOL   H15044792   6.586   4.155   0.972 -0.3529 -3.1064  2.3411
  222MOL   H15144793   6.482   4.188   1.111  0.8408  0.1358  1.3183
  222MOL   O15244794   6.678   4.248   1.140 -0.5495  0.3453 -0.0286
  222MOL   C15344795   6.640   4.301   1.267 -0.4910 -0.3172  0.4628
  222MOL   C15444796   6.766   4.356   1.335  0.3126  0.4157 -0.3263
  222MOL   C15544797   6.727   4.446   1.451  0.0456 -0.3987 -0.3136
  222MOL   H15644798   6.595   4.219   1.323  1.2270 -1.1880  0.5902
  222MOL   H15744799   6.561   4.376   1.263 -1.8641 -1.7216  0.5352
  222MOL   H15844800   6.826   4.277   1.380 -0.8735  0.6248  1.6869
  222MOL   H15944801   6.826   4.422   1.272  1.2319  0.9811  1.1172
  222MOL   H16044802   6.812   4.447   1.519 -1.1318  0.0970  1.1618
  222MOL   H16144803   6.640   4.402   1.499 -0.5937  1.3612  0.1794
  222MOL   O16244804   6.710   4.578   1.397 -0.4283 -0.1111 -0.1077
  222MOL   C16344805   6.641   4.660   1.489  0.1101 -0.5987 -0.3951
  222MOL   C16444806   6.579   4.779   1.415  0.0971  0.2977  0.1651
  222MOL   C16544807   6.472   4.727   1.323  0.2599  0.3505 -0.4267
  222MOL   H16644808   6.714   4.693   1.563 -0.6365  1.3525 -0.4838
  222MOL   H16744809   6.566   4.602   1.542  0.0694 -0.6100 -0.4651
  222MOL   H16844810   6.545   4.861   1.479  1.8143  0.1609  1.2888
  222MOL   H16944811   6.662   4.827   1.362  0.1225  0.4442  0.3379
  222MOL   H17044812   6.411   4.648   1.368 -0.1442  0.6311 -0.4836
  222MOL   H17144813   6.518   4.677   1.238 -1.3986 -2.1082  0.0494
  222MOL   O17244814   6.376   4.830   1.295  0.3420 -0.5294  0.1406
  222MOL   C17344815   6.238   4.793   1.258  0.5487  0.0386 -0.4601
  222MOL   C17444816   6.156   4.926   1.258  0.2446  0.0240 -0.1797
  222MOL   C17544817   5.997   4.913   1.258  0.4655 -0.0066 -0.2230
  222MOL   H17644818   6.200   4.720   1.329 -0.4815  0.6681 -0.3528
  222MOL   H17744819   6.218   4.740   1.166  0.3673 -0.0560 -0.3666
  222MOL   H17844820   6.178   4.971   1.354  0.8760 -1.7880  0.5555
  222MOL   H17944821   6.198   4.995   1.184 -2.3853  0.5025 -1.2941
  222MOL   H18044822   5.971   4.845   1.339 -0.5048 -0.3961 -0.8465
  222MOL   H18144823   5.961   4.867   1.166  2.2897  0.7254 -1.3183
  222MOL   O18244824   5.955   5.041   1.288 -0.1532  0.1096 -0.0686
  222MOL   C18344825   5.917   5.115   1.180  0.6435 -0.5622 -0.1355
  222MOL   C18444826   5.867   5.249   1.242 -0.0718  0.2239  0.4287
  222MOL   C18544827   5.858   5.364   1.148  0.6039 -0.0083  0.2491
  222MOL   H18644828   5.835   5.061   1.133  0.0149  1.2543 -1.1666
  222MOL   H18744829   5.998   5.137   1.111 -1.6731 -0.3468 -2.8522
  222MOL   H18844830   5.768   5.243   1.288 -0.3731 -0.1133 -0.2718
  222MOL   H18944831   5.915   5.278   1.336 -0.9164 -0.3609  1.0454
  222MOL   H19044832   5.808   5.322   1.061 -1.6292 -4.1913  3.3339
  222MOL   H19144833   5.959   5.399   1.129 -0.1369  1.0168 -1.9699
  222MOL   O19244834   5.793   5.485   1.203 -0.2237  0.1877 -0.2996
  222MOL   C19344835   5.867   5.584   1.271 -0.5847  0.3115 -0.5909
  222MOL   C19444836   5.767   5.662   1.360  0.4370  0.3243  1.1336
  222MOL   C19544837   5.671   5.579   1.445 -0.3224 -0.5974  0.5852
  222MOL   H19644838   5.900   5.645   1.187  1.3143  1.2403  0.7890
  222MOL   H19744839   5.953   5.536   1.317 -2.1265 -1.8814  0.1099
  222MOL   H19844840   5.831   5.722   1.424  0.2209  0.5668  1.1255
  222MOL   H19944841   5.717   5.742   1.305  0.5769 -0.6991 -0.5121
  222MOL   H20044842   5.586   5.556   1.382 -0.5374 -0.2898  0.7613
  222MOL   H20144843   5.628   5.626   1.533 -0.3591 -0.0239  0.2622
  222MOL   H20244844   5.714   5.483   1.476 -0.0577 -0.4660  0.6309
  223MOL     O144845   7.729   5.526   7.243 -0.5466  0.2286  0.1176
  223MOL     C244846   0.032   5.607   7.320 -0.5049  0.6595  0.0132
  223MOL     C344847   7.786   5.620   7.475 -0.4289 -0.5871  0.2160
  223MOL     C444848   0.092   5.720   7.543 -0.2199 -0.3377 -0.6812
  223MOL     H544849   0.039   5.706   7.275 -0.3229 -0.4035 -2.3859
  223MOL     H644850   0.132   5.566   7.304 -0.3400  1.5498 -1.3006
  223MOL     H744851   7.686   5.664   7.483  0.1640  0.6972  0.7609
  223MOL     H844852   7.788   5.524   7.525  0.1166 -0.1549  1.0371
  223MOL     H944853   0.063   5.757   7.642  0.8323 -0.6184 -0.2544
  223MOL    H1044854   0.098   5.811   7.483 -0.6387  1.1875  1.5132
  223MOL    H1144855   7.724   5.445   7.292  0.8024  0.4484  0.6449
  223MOL    O1244856   0.224   5.664   7.535 -0.6159  0.5146  0.3461
  223MOL    C1344857   0.303   5.702   7.646  1.0577  0.2588 -0.2034
  223MOL    C1444858   0.419   5.601   7.656 -0.0861 -0.3135  0.4268
  223MOL    C1544859   0.483   5.605   0.009 -0.2210  0.6853 -0.2567
  223MOL    H1644860   0.248   5.680   7.737 -0.3741 -0.0835 -1.1267
  223MOL    H1744861   0.329   5.808   7.646  2.9796 -0.1879 -1.2324
  223MOL    H1844862   0.386   5.500   7.632 -1.4533  0.2262 -0.0368
  223MOL    H1944863   0.494   5.638   7.586 -1.6543  2.2914  0.0266
  223MOL    H2044864   0.506   5.701   0.054  0.8400  0.7827 -0.9875
  223MOL    H2144865   0.566   5.536   0.020 -1.4411 -0.5680  1.2354
  223MOL    O2244866   0.392   5.537   0.093  0.3268  0.2834 -0.1132
  223MOL    C2344867   0.439   5.519   0.231  0.3600  0.4026  0.6555
  223MOL    C2444868   0.337   5.558   0.334 -0.2001 -0.0022  0.0253
  223MOL    C2544869   0.397   5.526   0.470  0.6319 -0.2378 -0.4443
  223MOL    H2644870   0.530   5.578   0.239  0.7319  0.1982 -1.7638
  223MOL    H2744871   0.462   5.413   0.240 -0.5440 -0.2362 -3.4684
  223MOL    H2844872   0.294   5.658   0.326 -0.9026 -0.1704  1.3912
  223MOL    H2944873   0.245   5.501   0.321  1.2433 -2.4429  0.2248
  223MOL    H3044874   0.480   5.593   0.491 -0.1045  0.5724 -0.1018
  223MOL    H3144875   0.417   5.419   0.466 -1.4894 -0.6821  0.2968
  223MOL    O3244876   0.301   5.557   0.578  0.0478 -0.0618  0.3541
  223MOL    C3344877   0.339   5.516   0.711 -0.2154  0.2426  0.4258
  223MOL    C3444878   0.464   5.582   0.753 -0.5189  0.7659 -0.1812
  223MOL    C3544879   0.490   5.565   0.905 -0.5599  0.7094 -0.5135
  223MOL    H3644880   0.358   5.409   0.724  1.5914  0.5493  0.4850
  223MOL    H3744881   0.260   5.543   0.781 -1.1539 -1.3040  0.0004
  223MOL    H3844882   0.552   5.544   0.700  0.4927  1.6529  0.8583
  223MOL    H3944883   0.450   5.682   0.713 -0.1372  0.2896 -1.5301
  223MOL    H4044884   0.489   5.459   0.933 -1.7805  0.5299 -1.2096
  223MOL    H4144885   0.408   5.607   0.964 -0.8693 -0.2554 -0.2460
  223MOL    O4244886   0.619   5.618   0.933 -0.2606 -0.0135  0.0108
  223MOL    C4344887   0.651   5.612   1.068 -0.1177  0.4342  0.2567
  223MOL    C4444888   0.674   5.471   1.123  0.2835 -0.2997  0.6496
  223MOL    C4544889   0.773   5.394   1.035  0.5029 -0.2441 -0.3797
  223MOL    H4644890   0.570   5.661   1.122 -1.8305 -0.4460 -1.4432
  223MOL    H4744891   0.741   5.669   1.088  0.4049  0.2657 -1.4902
  223MOL    H4844892   0.725   5.476   1.219 -0.8525 -0.3968  1.2689
  223MOL    H4944893   0.582   5.413   1.130 -0.1356  0.3816  0.8719
  223MOL    H5044894   0.872   5.434   1.054  1.4674 -3.0189  0.6773
  223MOL    H5144895   0.753   5.382   0.928  1.6288 -2.4124 -0.3701
  223MOL    O5244896   0.778   5.252   1.059  0.3230 -1.0775  0.0338
  223MOL    C5344897   0.897   5.182   1.013  0.3463  0.5606  0.1078
  223MOL    C5444898   0.888   5.038   1.054  0.2802 -0.1946  0.2114
  223MOL    C5544899   0.783   4.965   0.965  0.1791 -0.4473 -0.0561
  223MOL    H5644900   0.989   5.226   1.052 -0.5949  1.9324  0.8430
  223MOL    H5744901   0.907   5.188   0.905 -0.7570  0.4158 -0.0060
  223MOL    H5844902   0.985   4.995   1.028 -0.0912 -1.0503  0.1981
  223MOL    H5944903   0.873   5.016   1.159 -0.9528  0.3635  0.1567
  223MOL    H6044904   0.804   4.987   0.861  1.5771  3.3728  0.9398
  223MOL    H6144905   0.684   5.001   0.991  0.7660  1.1087  0.0913
  223MOL    O6244906   0.781   4.821   0.978  0.1294  0.1648 -0.1419
  223MOL    C6344907   0.710   4.762   0.868  0.3965 -0.2978 -0.1542
  223MOL    C6444908   0.697   4.613   0.896  0.4949 -0.8022 -0.9786
  223MOL    C6544909   0.696   4.530   0.768 -0.6905  0.3170  0.2369
  223MOL    H6644910   0.774   4.784   0.783 -1.5351  2.6460 -0.9381
  223MOL    H6744911   0.617   4.809   0.836  0.9529  1.1112  0.2522
  223MOL    H6844912   0.774   4.568   0.958 -2.8524 -0.1645  3.9550
  223MOL    H6944913   0.611   4.590   0.959  2.4084 -2.3305  1.1275
  223MOL    H7044914   0.620   4.569   0.699 -1.6722 -1.1556  0.4758
  223MOL    H7144915   0.671   4.427   0.789  0.5747 -0.0607 -0.0886
  223MOL    O7244916   0.833   4.523   0.724 -0.3516 -0.9982 -0.4037
  223MOL    C7344917   0.861   4.436   0.613 -0.0905 -0.5119  0.9727
  223MOL    C7444918   1.004   4.476   0.553  0.1214  0.3444 -0.4623
  223MOL    C7544919   1.050   4.370   0.454 -0.1143  0.4345  0.2204
  223MOL    H7644920   0.777   4.442   0.544  0.0275 -1.1828  0.7674
  223MOL    H7744921   0.851   4.330   0.638 -0.6908 -1.2601 -2.3408
  223MOL    H7844922   1.009   4.576   0.510 -1.5832  0.3875 -0.6102
  223MOL    H7944923   1.069   4.471   0.640 -1.0367 -0.2542  0.3870
  223MOL    H8044924   1.005   4.368   0.355  2.0546  0.1692 -0.7997
  223MOL    H8144925   1.038   4.270   0.495  0.6930  0.1520 -0.2149
  223MOL    O8244926   1.187   4.387   0.428 -0.0436 -0.2082 -0.5986
  223MOL    C8344927   1.277   4.295   0.492 -0.0400 -0.8280 -0.9070
  223MOL    C8444928   1.413   4.329   0.437 -0.2526  0.6295  0.5313
  223MOL    C8544929   1.472   4.459   0.491 -0.3162 -0.7020  0.4834
  223MOL    H8644930   1.256   4.191   0.468  3.6415 -1.6147 -1.0504
  223MOL    H8744931   1.268   4.304   0.600  0.8547 -0.2689 -0.8638
  223MOL    H8844932   1.471   4.245   0.476 -2.6509 -1.9677 -1.2895
  223MOL    H8944933   1.409   4.334   0.328 -1.2108  0.1734  0.5385
  223MOL    H9044934   1.455   4.460   0.598  1.8630 -0.0218  0.8465
  223MOL    H9144935   1.419   4.545   0.450  1.3128 -1.2067 -2.8843
  223MOL    O9244936   1.611   4.474   0.457  0.0316  0.3023  0.3018
  223MOL    C9344937   1.677   4.585   0.510  0.7110 -0.5354 -0.0231
  223MOL    C9444938   1.833   4.561   0.509  0.2104  0.1218 -0.1317
  223MOL    C9544939   1.882   4.458   0.614 -0.8378 -0.5362 -0.0797
  223MOL    H9644940   1.647   4.618   0.609  2.8223  1.4916 -0.0053
  223MOL    H9744941   1.658   4.678   0.457 -0.1409 -0.8170 -0.2177
  223MOL    H9844942   1.847   4.512   0.412  1.3320 -0.9680  0.5714
  223MOL    H9944943   1.883   4.658   0.510 -1.6534  1.1153 -0.3525
  223MOL   H10044944   1.812   4.375   0.617  0.5562 -1.7980 -1.1650
  223MOL   H10144945   1.870   4.512   0.708  2.1158  1.9003 -0.9997
  223MOL   O10244946   2.016   4.407   0.593  0.1659  0.1184  0.1301
  223MOL   C10344947   2.063   4.363   0.722  0.9733 -0.3900 -0.0137
  223MOL   C10444948   1.991   4.237   0.771 -0.5100 -0.5046 -0.1792
  223MOL   C10544949   2.065   4.177   0.882  0.4492 -0.4037 -0.5541
  223MOL   H10644950   2.069   4.439   0.800  0.1903  1.5404 -1.7851
  223MOL   H10744951   2.168   4.335   0.706  1.0602 -0.0054 -0.1030
  223MOL   H10844952   1.888   4.265   0.794  0.2615  1.9990  0.4225
  223MOL   H10944953   1.998   4.163   0.692  0.2819 -1.0485  0.3960
  223MOL   H11044954   2.109   4.235   0.964  0.6634 -2.1075  0.5836
  223MOL   H11144955   2.154   4.128   0.840 -0.0447  0.2480 -2.3713
  223MOL   O11244956   1.991   4.071   0.936 -0.1068  0.0813  0.2101
  223MOL   C11344957   2.062   3.996   1.043  0.0532 -0.5553 -0.4750
  223MOL   C11444958   1.981   4.005   1.169 -0.4033 -0.2637  0.5599
  223MOL   C11544959   1.869   3.896   1.167 -0.1823 -0.0887 -0.4595
  223MOL   H11644960   2.166   4.027   1.051 -0.8125  1.6588  3.6280
  223MOL   H11744961   2.075   3.890   1.020 -0.0325 -0.6607 -0.0509
  223MOL   H11844962   2.046   3.980   1.253 -0.4762  0.3597  0.7992
  223MOL   H11944963   1.939   4.103   1.188 -1.7890 -0.9254  0.9998
  223MOL   H12044964   1.808   3.924   1.082  2.1406 -1.2645 -2.5675
  223MOL   H12144965   1.822   3.906   1.265  1.6487 -0.0798  0.4500
  223MOL   O12244966   1.920   3.767   1.142  0.3372 -0.2893  0.0276
  223MOL   C12344967   1.824   3.670   1.125 -0.0190 -0.0296 -0.0801
  223MOL   C12444968   1.883   3.540   1.073  0.6989 -0.1227 -0.2821
  223MOL   C12544969   1.779   3.429   1.066 -0.1865 -0.3143  0.8790
  223MOL   H12644970   1.735   3.696   1.069 -0.3929 -0.0187  0.5122
  223MOL   H12744971   1.792   3.660   1.229 -2.5244  0.8637 -0.7292
  223MOL   H12844972   1.911   3.561   0.970  3.0751  1.4368  0.6111
  223MOL   H12944973   1.979   3.515   1.119  0.3857 -1.8885 -0.5657
  223MOL   H13044974   1.689   3.464   1.015  0.7826  1.7784  0.5099
  223MOL   H13144975   1.742   3.404   1.165 -0.4782 -2.5785  0.2234
  223MOL   O13244976   1.835   3.308   1.034  0.0961  0.0668  0.0370
  223MOL   C13344977   1.816   3.285   0.896  0.5374 -0.7120 -0.1761
  223MOL   C13444978   1.851   3.131   0.867 -0.0921 -0.2788  0.1243
  223MOL   C13544979   1.819   3.105   0.718 -0.1385  0.9230 -0.0389
  223MOL   H13644980   1.885   3.348   0.841  0.4239 -1.1868 -0.8688
  223MOL   H13744981   1.716   3.313   0.861  0.8642 -0.4010 -0.8627
  223MOL   H13844982   1.955   3.112   0.895  0.7076  2.8394 -0.5126
  223MOL   H13944983   1.779   3.070   0.921 -1.6471  2.0729  0.7717
  223MOL   H14044984   1.883   3.166   0.656 -1.1117  2.1788  0.1746
  223MOL   H14144985   1.715   3.139   0.714 -0.7457 -0.9958 -1.1812
  223MOL   O14244986   1.824   2.963   0.695  0.1277  0.1723  0.3163
  223MOL   C14344987   1.956   2.908   0.677  0.0514 -0.5180 -0.1460
  223MOL   C14444988   1.956   2.758   0.641  0.8714 -0.0022 -0.2795
  223MOL   C14544989   2.101   2.708   0.608 -0.0179 -0.5672  0.0266
  223MOL   H14644990   2.028   2.928   0.756 -1.5684  0.3076  1.1388
  223MOL   H14744991   1.984   2.964   0.588 -1.2351  0.2042 -0.0998
  223MOL   H14844992   1.907   2.694   0.714 -0.5441  1.4213  0.0390
  223MOL   H14944993   1.897   2.731   0.554  2.1140 -1.4713 -0.6939
  223MOL   H15044994   2.135   2.751   0.514  1.2543 -2.0210 -0.2113
  223MOL   H15144995   2.093   2.600   0.595 -1.0921 -0.4286 -0.4908
  223MOL   O15244996   2.183   2.723   0.732 -0.2546 -0.6894  0.0920
  223MOL   C15344997   2.319   2.708   0.705  0.2904  0.1115  0.0150
  223MOL   C15444998   2.395   2.715   0.847 -0.3074  0.5020 -0.3044
  223MOL   C15544999   2.530   2.642   0.835 -0.0700  0.3229 -0.2511
  223MOL   H15645000   2.358   2.775   0.629 -0.0433 -0.1355 -0.3815
  223MOL   H15745001   2.323   2.610   0.655  1.8631  0.9447 -1.5449
  223MOL   H15845002   2.405   2.819   0.875 -1.1511  0.2880  0.7997
  223MOL   H15945003   2.325   2.674   0.920  0.6362  2.9745  2.0325
  223MOL   H16045004   2.606   2.696   0.778  0.5728  0.4618  0.7245
  223MOL   H16145005   2.500   2.548   0.788  0.4449 -0.3341  0.7329
  223MOL   O16245006   2.575   2.613   0.969 -0.0424  0.2720  0.5937
  223MOL   C16345007   2.714   2.606   0.978 -0.2971 -0.3857  0.0040
  223MOL   C16445008   2.741   2.532   1.111 -0.4275 -0.4398  0.0567
  223MOL   C16545009   2.889   2.531   1.146 -0.0950 -0.2747 -0.5072
  223MOL   H16645010   2.765   2.701   0.963 -0.7055 -0.5722 -2.7316
  223MOL   H16745011   2.754   2.541   0.901 -0.7838 -0.2283 -0.3848
  223MOL   H16845012   2.683   2.569   1.195 -2.2571 -1.6505 -0.6349
  223MOL   H16945013   2.709   2.428   1.101  1.8909 -1.0166 -1.7280
  223MOL   H17045014   2.928   2.631   1.165  2.7423 -1.7637  1.8335
  223MOL   H17145015   2.941   2.495   1.057  0.3569  1.9468 -1.1880
  223MOL   O17245016   2.908   2.444   1.259  0.3660 -0.0805 -0.0329
  223MOL   C17345017   3.040   2.390   1.273 -0.9106  0.3118  0.2104
  223MOL   C17445018   3.063   2.318   1.409 -0.0629 -0.1676  0.3587
  223MOL   C17545019   3.210   2.263   1.426  0.1319  0.2741 -0.4107
  223MOL   H17645020   3.121   2.461   1.260 -0.9065  0.0632 -1.3163
  223MOL   H17745021   3.051   2.313   1.196 -1.7368  0.1738  0.2297
  223MOL   H17845022   3.047   2.376   1.500 -0.0256  1.2406 -0.5263
  223MOL   H17945023   2.991   2.236   1.417  0.3875 -0.6309 -0.3044
  223MOL   H18045024   3.285   2.341   1.410 -1.1111  2.2784  2.9999
  223MOL   H18145025   3.225   2.179   1.357  0.1297  1.3368 -1.7207
  223MOL   O18245026   3.210   2.202   1.551  0.3115 -0.1637 -0.4818
  223MOL   C18345027   3.334   2.164   1.600  0.3266 -0.0655  1.2768
  223MOL   C18445028   3.303   2.093   1.728 -1.1166 -0.0542  1.1737
  223MOL   C18545029   3.216   1.969   1.705  0.0991 -0.1751  0.2503
  223MOL   H18645030   3.386   2.259   1.607 -0.1400  0.4092 -1.1766
  223MOL   H18745031   3.389   2.097   1.533  0.2511 -0.9626  2.1031
  223MOL   H18845032   3.394   2.061   1.780 -0.6710 -0.9325 -0.0995
  223MOL   H18945033   3.260   2.154   1.807 -1.2164  1.2792  0.1106
  223MOL   H19045034   3.273   1.905   1.637 -1.1869  0.0493 -1.0774
  223MOL   H19145035   3.124   2.000   1.656 -0.5641 -0.3396  1.3799
  223MOL   O19245036   3.179   1.913   1.831 -0.0406  0.0233  0.2620
  223MOL   C19345037   3.115   1.787   1.809  0.3424  0.1817 -0.1820
  223MOL   C19445038   3.118   1.701   1.930 -0.5989  0.1843 -0.7670
  223MOL   C19545039   3.023   1.744   2.047 -0.5062  0.2764  0.1848
  223MOL   H19645040   3.164   1.733   1.728 -0.3193 -1.5119  0.5215
  223MOL   H19745041   3.009   1.800   1.787  0.5653  1.0297 -0.7838
  223MOL   H19845042   3.093   1.597   1.908 -1.1922 -0.0429  0.8699
  223MOL   H19945043   3.219   1.680   1.965 -2.1353 -1.4759  2.9514
  223MOL   H20045044   3.048   1.844   2.084 -0.3155  0.1122  0.5032
  223MOL   H20145045   3.047   1.672   2.125  1.0560  0.4195 -0.1365
  223MOL   H20245046   2.917   1.725   2.034 -0.4911  0.2899  0.0406
  224MOL     O145047   5.404   2.338   2.299  0.0239 -0.1378 -0.1383
  224MOL     C245048   5.546   2.314   2.304  0.1765  0.4418  0.1704
  224MOL     C345049   5.580   2.166   2.263 -0.3913  0.0864  0.5814
  224MOL     C445050   5.727   2.117   2.274  0.5727  0.0599  0.2126
  224MOL     H545051   5.579   2.328   2.407 -1.2129  1.6412  0.4533
  224MOL     H645052   5.601   2.384   2.241 -0.2653  0.3959 -0.2642
  224MOL     H745053   5.525   2.096   2.328  0.5795 -0.5077  0.7733
  224MOL     H845054   5.546   2.172   2.160 -0.5815  0.8575  0.6925
  224MOL     H945055   5.757   2.118   2.379 -1.2800 -2.3259  0.8371
  224MOL    H1045056   5.785   2.187   2.214 -0.2812  0.4613 -0.1496
  224MOL    H1145057   5.355   2.291   2.365 -0.8161 -0.6158 -1.0986
  224MOL    O1245058   5.745   1.992   2.212  0.3710  0.1073 -0.0418
  224MOL    C1345059   5.879   1.948   2.209 -0.0775 -0.1255 -0.5819
  224MOL    C1445060   5.883   1.811   2.140  0.5178  0.1310 -0.5770
  224MOL    C1545061   5.853   1.814   1.988 -0.2413 -0.8665  0.4855
  224MOL    H1645062   5.915   1.952   2.312  1.2225  2.8607 -1.0831
  224MOL    H1745063   5.942   2.017   2.152 -0.0098  0.3760  0.0888
  224MOL    H1845064   5.981   1.766   2.159  1.5019  1.7549 -1.7086
  224MOL    H1945065   5.807   1.742   2.177  1.7122 -0.9207  0.0056
  224MOL    H2045066   5.912   1.899   1.955 -1.8288  0.7350  1.6701
  224MOL    H2145067   5.745   1.828   1.983 -0.0914 -0.6632 -2.9473
  224MOL    O2245068   5.881   1.683   1.940  0.1292  0.9209 -0.3627
  224MOL    C2345069   5.894   1.678   1.799  0.5540 -0.6056 -0.6775
  224MOL    C2445070   5.988   1.570   1.751  0.2821  0.6517 -0.5065
  224MOL    C2545071   5.935   1.428   1.753  0.6884 -0.1310 -0.5077
  224MOL    H2645072   5.945   1.768   1.764 -1.3054  0.7334 -0.0403
  224MOL    H2745073   5.792   1.692   1.763 -0.9671 -1.5916  3.0454
  224MOL    H2845074   6.015   1.589   1.647  0.0928 -0.2836 -0.7331
  224MOL    H2945075   6.075   1.566   1.817  0.2008 -2.3014 -0.5202
  224MOL    H3045076   5.903   1.385   1.848 -1.3211  1.8380 -0.2607
  224MOL    H3145077   6.016   1.363   1.719  1.0308  0.8399 -1.6123
  224MOL    O3245078   5.834   1.416   1.656 -0.5493  0.7111 -0.3981
  224MOL    C3345079   5.784   1.284   1.646 -0.1041 -0.3428  0.3474
  224MOL    C3445080   5.671   1.287   1.545  0.3231  0.3840  0.1002
  224MOL    C3545081   5.649   1.156   1.480 -0.3935  0.2560 -0.7422
  224MOL    H3645082   5.737   1.260   1.741  0.2102  1.2445  0.9194
  224MOL    H3745083   5.864   1.216   1.616  2.1137  1.6889  1.5052
  224MOL    H3845084   5.583   1.329   1.591 -1.2846 -3.1875  0.4490
  224MOL    H3945085   5.689   1.360   1.466  0.2334 -0.0873 -0.3587
  224MOL    H4045086   5.634   1.081   1.557  2.8058 -0.1319 -0.4268
  224MOL    H4145087   5.732   1.126   1.416 -0.5896  1.3079 -1.4972
  224MOL    O4245088   5.535   1.147   1.394 -0.0181  0.7188  0.1268
  224MOL    C4345089   5.504   1.011   1.348  0.0074 -0.1596 -0.2013
  224MOL    C4445090   5.381   1.019   1.261  0.2835 -0.3364 -0.4687
  224MOL    C4545091   5.308   0.885   1.227 -0.9443  0.4274  0.6024
  224MOL    H4645092   5.484   0.950   1.436  0.5181  0.1598  0.1384
  224MOL    H4745093   5.585   0.960   1.295 -1.3285 -1.5583 -0.9133
  224MOL    H4845094   5.312   1.082   1.316  0.5277 -1.0605  0.6944
  224MOL    H4945095   5.405   1.071   1.168  1.1130  0.7969  0.3735
  224MOL    H5045096   5.283   0.835   1.321 -0.6812  0.3716  0.6417
  224MOL    H5145097   5.382   0.831   1.169  0.1912  1.5372  0.9854
  224MOL    O5245098   5.191   0.920   1.151  0.0768 -0.6194  0.1954
  224MOL    C5345099   5.097   0.814   1.130 -0.6672  0.6234 -0.0728
  224MOL    C5445100   4.971   0.856   1.058  0.4729 -0.3245  0.0384
  224MOL    C5545101   4.875   0.949   1.137  0.4987  0.7401 -0.2156
  224MOL    H5645102   5.052   0.771   1.219 -0.6549  0.8280  0.0324
  224MOL    H5745103   5.150   0.730   1.085  2.3271  1.2529  2.0460
  224MOL    H5845104   5.003   0.906   0.967 -1.0369  0.3236 -0.1481
  224MOL    H5945105   4.912   0.769   1.027  0.8758 -0.2942 -0.8121
  224MOL    H6045106   4.938   1.021   1.188 -1.4925  1.7317  0.8993
  224MOL    H6145107   4.829   0.897   1.221  1.6892  2.1141  1.3109
  224MOL    O6245108   4.791   1.011   1.040  0.5516 -0.2777  0.3977
  224MOL    C6345109   4.748   1.146   1.073 -0.4217  0.8297  0.3007
  224MOL    C6445110   4.624   1.173   0.995  0.8113 -0.1273 -0.3400
  224MOL    C6545111   4.537   1.287   1.043  0.1054  0.2913 -0.3651
  224MOL    H6645112   4.827   1.217   1.049 -1.4007  3.0850  3.3741
  224MOL    H6745113   4.724   1.156   1.179  0.2936  2.5862  0.3063
  224MOL    H6845114   4.640   1.192   0.889  0.2131  0.9583 -0.2438
  224MOL    H6945115   4.560   1.087   1.012  0.1208  0.5811  0.7659
  224MOL    H7045116   4.589   1.382   1.056 -2.7714  2.0436 -1.3214
  224MOL    H7145117   4.496   1.256   1.139 -0.0366 -1.6475 -1.0164
  224MOL    O7245118   4.435   1.299   0.949  0.0117 -0.4515 -0.0096
  224MOL    C7345119   4.319   1.368   1.001 -0.2891  0.3808 -0.5022
  224MOL    C7445120   4.326   1.520   0.994 -0.6001 -0.3254 -0.4888
  224MOL    C7545121   4.293   1.588   0.861 -0.1347  0.1974 -0.0259
  224MOL    H7645122   4.290   1.336   1.101  1.9540  0.0099  0.0626
  224MOL    H7745123   4.237   1.336   0.937 -0.7238  0.5843 -0.0500
  224MOL    H7845124   4.251   1.555   1.065 -0.4809 -0.3119 -0.3698
  224MOL    H7945125   4.424   1.543   1.034 -1.8734  0.4957  2.2756
  224MOL    H8045126   4.186   1.581   0.843 -0.3143 -0.3798  1.1744
  224MOL    H8145127   4.350   1.544   0.780 -0.1730 -1.2159  0.6922
  224MOL    O8245128   4.306   1.731   0.859 -0.5025  0.3945  0.2416
  224MOL    C8345129   4.270   1.788   0.734 -0.2247 -0.2599 -0.4097
  224MOL    C8445130   4.387   1.770   0.640  0.1194 -0.8969 -0.3374
  224MOL    C8545131   4.364   1.856   0.515  0.4555 -0.1033 -0.2128
  224MOL    H8645132   4.243   1.890   0.761 -0.4202 -0.0003 -1.5608
  224MOL    H8745133   4.181   1.739   0.694  0.8497  0.2642 -3.5643
  224MOL    H8845134   4.485   1.809   0.668 -0.3410  0.7239 -0.9038
  224MOL    H8945135   4.391   1.663   0.624  0.1442 -0.7049 -1.6890
  224MOL    H9045136   4.379   1.961   0.537 -1.3077 -0.5378  3.4059
  224MOL    H9145137   4.269   1.863   0.462  0.6185  0.0864 -0.4841
  224MOL    O9245138   4.448   1.811   0.414  0.6488 -0.0019 -0.1672
  224MOL    C9345139   4.486   1.921   0.328  0.3187  0.6296 -0.1946
  224MOL    C9445140   4.562   1.860   0.208 -0.0716 -0.5154 -0.2187
  224MOL    C9545141   4.629   1.966   0.113  0.6802 -0.2325  0.3097
  224MOL    H9645142   4.566   1.966   0.387  0.0119  0.5408  0.2965
  224MOL    H9745143   4.415   1.996   0.292  0.9613  0.5627 -1.6260
  224MOL    H9845144   4.637   1.803   0.264 -1.3995 -0.6089  1.5368
  224MOL    H9945145   4.501   1.787   0.154 -0.7907 -0.3395  0.3375
  224MOL   H10045146   4.649   2.054   0.174 -0.4983 -0.2627  0.7708
  224MOL   H10145147   4.558   2.000   0.038 -0.3208 -0.1302  1.2934
  224MOL   O10245148   4.755   1.916   0.066 -0.2451  0.2916  0.5241
  224MOL   C10345149   4.809   1.971   7.733  0.8405  0.2320 -0.0025
  224MOL   C10445150   4.960   1.937   7.731  0.3260  0.2839 -0.1353
  224MOL   C10545151   5.036   1.994   0.063 -0.7409 -0.1054  0.0517
  224MOL   H10645152   4.802   2.080   7.736 -0.7784  0.0836  2.3314
  224MOL   H10745153   4.752   1.941   7.645  0.3785 -1.5959  0.9066
  224MOL   H10845154   4.968   1.828   7.729  1.7640  0.3748  0.2736
  224MOL   H10945155   4.999   1.983   7.640 -1.1382  1.0484 -0.3974
  224MOL   H11045156   5.002   1.955   0.159  1.7310 -0.9668  0.6216
  224MOL   H11145157   5.018   2.102   0.069 -1.0110 -0.2768  4.1380
  224MOL   O11245158   5.169   1.962   0.041 -0.7293  0.0277  0.3499
  224MOL   C11345159   5.256   2.005   0.146 -0.5167 -0.6125 -0.1893
  224MOL   C11445160   5.402   1.984   0.107 -0.2487 -0.8781  0.3471
  224MOL   C11545161   5.504   2.033   0.213  0.1486 -0.5058  0.3557
  224MOL   H11645162   5.235   1.946   0.235  0.0666 -1.6053 -0.6993
  224MOL   H11745163   5.237   2.107   0.181 -4.4255 -1.3470 -0.0217
  224MOL   H11845164   5.424   1.878   0.092 -1.1439 -1.5803  3.6286
  224MOL   H11945165   5.429   2.033   0.014 -0.8313  0.2267  0.7543
  224MOL   H12045166   5.499   1.966   0.299  2.9290 -0.4455  0.6067
  224MOL   H12145167   5.479   2.139   0.227  1.0106  0.0546 -2.1071
  224MOL   O12245168   5.637   2.008   0.171  0.3398 -0.4638 -0.4115
  224MOL   C12345169   5.745   2.070   0.246 -0.6476 -0.1802  0.2533
  224MOL   C12445170   5.875   2.041   0.176  0.6496  0.0830 -1.1331
  224MOL   C12545171   5.911   1.893   0.148 -0.3784 -0.0125  0.4718
  224MOL   H12645172   5.741   2.030   0.348  0.4266 -1.8473 -0.3222
  224MOL   H12745173   5.734   2.178   0.248  1.7327  0.1329 -1.5268
  224MOL   H12845174   5.861   2.089   0.079 -1.4513  1.3910 -0.2250
  224MOL   H12945175   5.958   2.095   0.223  1.2573 -1.9986  0.2853
  224MOL   H13045176   5.840   1.858   0.073  1.1225 -0.0021 -0.9798
  224MOL   H13145177   5.908   1.822   0.230  0.1344  0.0203  0.5174
  224MOL   O13245178   6.029   1.875   0.074  0.0660  0.2391  0.0038
  224MOL   C13345179   6.140   1.856   0.163  0.2642 -0.5198  0.0577
  224MOL   C13445180   6.268   1.850   0.078 -0.3604  0.3250 -0.1910
  224MOL   C13545181   6.380   1.773   0.140 -0.4933 -0.6172  0.3326
  224MOL   H13645182   6.139   1.761   0.216 -0.5754  0.7039  2.3350
  224MOL   H13745183   6.156   1.940   0.232 -0.9939  0.2965 -0.6324
  224MOL   H13845184   6.231   1.822   7.767 -1.4019  0.2589  0.2032
  224MOL   H13945185   6.312   1.950   0.071  0.4195  0.0246  0.4418
  224MOL   H14045186   6.357   1.669   0.161 -2.6231 -0.6071 -1.7510
  224MOL   H14145187   6.427   1.825   0.224 -1.8979  1.9590 -0.4149
  224MOL   O14245188   6.484   1.780   0.043  0.1572  0.1927 -0.1382
  224MOL   C14345189   6.608   1.722   0.092  0.6600  0.1963 -0.3399
  224MOL   C14445190   6.708   1.701   7.773  0.7974  0.2462  0.1708
  224MOL   C14545191   6.815   1.603   0.014 -0.2079 -0.3659  0.0423
  224MOL   H14645192   6.595   1.628   0.146  1.2802  0.1844 -0.2139
  224MOL   H14745193   6.643   1.790   0.169  0.8016  0.6551 -0.8038
  224MOL   H14845194   6.663   1.677   7.677  0.1820  0.7682  0.3311
  224MOL   H14945195   6.753   1.797   7.748 -0.6472  0.3226 -2.1925
  224MOL   H15045196   6.795   1.496   0.021  1.3642 -0.6616  0.3197
  224MOL   H15145197   6.868   1.619   0.109  0.0160 -1.3716  0.0889
  224MOL   O15245198   6.898   1.622   7.688 -0.5188 -0.4197  0.4561
  224MOL   C15345199   7.018   1.552   7.705 -0.0678 -0.3381  0.4864
  224MOL   C15445200   7.100   1.550   7.575 -0.2708 -0.5677  0.9375
  224MOL   C15545201   7.226   1.463   7.597 -0.1404  0.2594 -0.3191
  224MOL   H15645202   6.999   1.449   7.735  1.0711 -1.0639 -1.1866
  224MOL   H15745203   7.075   1.609   7.779  0.6335 -0.2345 -0.1224
  224MOL   H15845204   7.033   1.501   7.504  0.5317  0.1667 -0.3407
  224MOL   H15945205   7.128   1.650   7.543 -1.7822 -0.2782  0.4759
  224MOL   H16045206   7.237   1.390   7.517 -1.0779 -0.3917  0.1236
  224MOL   H16145207   7.205   1.394   7.680 -1.4154  0.7609 -0.2055
  224MOL   O16245208   7.348   1.530   7.619 -0.5533 -0.0237 -0.0789
  224MOL   C16345209   7.397   1.600   7.507  0.4718  0.1896  0.6351
  224MOL   C16445210   7.547   1.598   7.509 -0.3759 -0.4748  0.3271
  224MOL   C16545211   7.594   1.452   7.494 -0.0258 -0.0098  0.5934
  224MOL   H16645212   7.355   1.701   7.502 -0.9509 -0.4529 -1.6152
  224MOL   H16745213   7.364   1.549   7.416 -1.4565 -0.7649  1.8293
  224MOL   H16845214   7.593   1.659   7.431  0.2702  0.1596  1.2042
  224MOL   H16945215   7.586   1.634   7.604  1.6465 -1.2285 -0.2009
  224MOL   H17045216   7.548   1.416   7.402 -3.5075  3.1805  0.9287
  224MOL   H17145217   7.563   1.389   7.577 -1.1968  0.6645  0.6893
  224MOL   O17245218   7.738   1.453   7.475 -0.4205  0.6810 -0.0160
  224MOL   C17345219   7.779   1.322   7.498  0.0392  0.4714 -0.3365
  224MOL   C17445220   0.125   1.310   7.433  0.3255 -0.2832  0.6240
  224MOL   C17545221   0.171   1.165   7.429  0.2870  0.0246 -0.2234
  224MOL   H17645222   7.702   1.252   7.465 -0.2108 -0.2474  1.7271
  224MOL   H17745223   0.012   1.312   7.604 -1.8288 -0.8700 -0.0728
  224MOL   H17845224   0.114   1.344   7.330  0.1659 -1.7807  0.1394
  224MOL   H17945225   0.194   1.378   7.484 -0.5378  0.8499  0.3229
  224MOL   H18045226   0.086   1.108   7.392 -0.2149 -0.1915  1.2631
  224MOL   H18145227   0.197   1.142   7.532 -1.4788  1.5030  0.5746
  224MOL   O18245228   0.290   1.142   7.354 -0.8196 -0.0958 -0.4533
  224MOL   C18345229   0.334   1.006   7.389 -0.4434 -0.3468  0.3387
  224MOL   C18445230   0.472   0.987   7.320 -0.0910 -0.2053 -0.5161
  224MOL   C18545231   0.530   0.842   7.326 -0.2454  0.0285  0.5573
  224MOL   H18645232   0.263   0.930   7.356 -0.9178 -0.0026  0.5641
  224MOL   H18745233   0.344   0.990   7.497 -1.3393 -1.6616  0.2397
  224MOL   H18845234   0.469   1.031   7.221  3.6436  2.4950  0.4867
  224MOL   H18945235   0.544   1.043   7.380 -0.2647  0.1993 -0.6882
  224MOL   H19045236   0.459   0.763   7.299  1.4906 -1.0793 -0.9182
  224MOL   H19145237   0.549   0.830   7.432 -0.9987 -1.3344  0.5607
  224MOL   O19245238   0.633   0.829   7.232 -0.2644  0.1121 -0.5063
  224MOL   C19345239   0.735   0.739   7.277  0.0294 -0.1503 -0.5870
  224MOL   C19445240   0.844   0.830   7.343  0.0860 -0.6891  0.1806
  224MOL   C19545241   0.862   0.967   7.269 -0.0623 -0.0465 -0.0464
  224MOL   H19645242   0.773   0.688   7.188 -1.3842  0.4560 -1.5561
  224MOL   H19745243   0.699   0.658   7.340  1.5145 -1.3177 -1.1976
  224MOL   H19845244   0.806   0.854   7.442  2.1974  0.5728  0.7053
  224MOL   H19945245   0.940   0.779   7.344  0.7871  0.6226  1.4727
  224MOL   H20045246   0.864   0.953   7.161  1.5007  0.2784 -0.0682
  224MOL   H20145247   0.959   1.007   7.297  1.1802 -3.4225  0.6912
  224MOL   H20245248   0.791   1.041   7.306  0.7202  0.7580 -0.1514
  225MOL     O145249   0.319   3.284   0.137 -0.2537  0.3957  0.2271
  225MOL     C245250   0.456   3.325   0.125 -0.3431  0.0722  0.5110
  225MOL     C345251   0.549   3.246   0.220  0.1932 -0.0498 -0.2529
  225MOL     C445252   0.536   3.265   0.369 -0.5834 -0.3228 -0.2515
  225MOL     H545253   0.453   3.427   0.165 -2.2841 -0.2236  1.2059
  225MOL     H645254   0.490   3.326   0.022  0.7355  1.2487  0.8691
  225MOL     H745255   0.535   3.139   0.205 -1.3126  0.3882 -2.2218
  225MOL     H845256   0.652   3.276   0.203 -0.5996  2.7241 -0.3718
  225MOL     H945257   0.429   3.265   0.391 -0.1648  2.6383  2.0849
  225MOL    H1045258   0.583   3.358   0.399  1.4006 -1.1727 -0.6791
  225MOL    H1145259   0.274   3.324   0.064  0.3200  0.4954 -0.0742
  225MOL    O1245260   0.608   3.164   0.436 -0.4065  0.1431  0.3345
  225MOL    C1345261   0.583   3.162   0.578  0.5747 -0.3240  0.0059
  225MOL    C1445262   0.658   3.045   0.639  0.2166  0.2459 -0.1074
  225MOL    C1545263   0.654   3.038   0.787  0.2900  0.5947  0.2759
  225MOL    H1645264   0.476   3.166   0.596  0.7849 -1.5440  1.6268
  225MOL    H1745265   0.631   3.253   0.616  2.0186  0.0708 -2.6816
  225MOL    H1845266   0.628   2.951   0.592 -0.1070  0.6533 -0.7151
  225MOL    H1945267   0.765   3.048   0.618  0.3022 -0.7171  0.1244
  225MOL    H2045268   0.702   2.948   0.826 -1.5494  0.0506  1.3401
  225MOL    H2145269   0.554   3.039   0.829  0.7757 -1.0945  1.5238
  225MOL    O2245270   0.732   3.152   0.833  0.1657  0.3870  0.1935
  225MOL    C2345271   0.775   3.146   0.965 -1.1488 -0.2996 -0.6557
  225MOL    C2445272   0.901   3.235   0.977  0.0504  0.0195  0.2381
  225MOL    C2545273   0.976   3.215   1.117 -0.0379 -0.8907 -0.7382
  225MOL    H2645274   0.792   3.044   0.998  2.5958  0.9510  1.5412
  225MOL    H2745275   0.707   3.197   1.033  0.5355  1.4277 -0.2254
  225MOL    H2845276   0.974   3.213   0.899  1.6216  1.9613  1.1123
  225MOL    H2945277   0.882   3.341   0.959  0.8476 -0.1173 -1.4439
  225MOL    H3045278   0.909   3.233   1.201  1.4458 -0.9941  0.4726
  225MOL    H3145279   1.063   3.280   1.116 -1.1703  0.6784  0.7276
  225MOL    O3245280   1.016   3.077   1.139 -0.4177  0.5779 -0.4715
  225MOL    C3345281   1.088   3.066   1.261  0.0518 -0.4113 -0.0038
  225MOL    C3445282   1.128   2.915   1.276  0.0914  0.8936 -0.0405
  225MOL    C3545283   1.171   2.897   1.424 -0.6533  0.7226  0.1959
  225MOL    H3645284   1.037   3.096   1.353  0.2295  1.3329 -0.4422
  225MOL    H3745285   1.177   3.127   1.249  0.0745 -0.0528  1.8544
  225MOL    H3845286   1.052   2.848   1.236  0.0270  0.0158  1.5028
  225MOL    H3945287   1.222   2.898   1.224  0.3534 -1.6428  1.1841
  225MOL    H4045288   1.190   2.790   1.434 -0.3576  0.9526  2.4997
  225MOL    H4145289   1.092   2.928   1.492 -2.0780  1.0421 -1.5784
  225MOL    O4245290   1.283   2.971   1.463  0.0339  0.3079  0.1596
  225MOL    C4345291   1.300   2.990   1.600 -0.6309 -0.1521  0.0893
  225MOL    C4445292   1.402   3.114   1.614  1.1600 -0.7638  0.4732
  225MOL    C4545293   1.334   3.245   1.590 -0.0626  0.5073 -0.2696
  225MOL    H4645294   1.345   2.904   1.651 -0.4479  0.1559  0.4470
  225MOL    H4745295   1.212   3.013   1.660 -1.2876 -2.7476  0.2106
  225MOL    H4845296   1.436   3.126   1.717  2.1687 -1.8475  0.2787
  225MOL    H4945297   1.493   3.109   1.554 -0.7644 -0.6828 -2.5610
  225MOL    H5045298   1.297   3.288   1.683 -0.4363  1.2282 -0.7491
  225MOL    H5145299   1.244   3.230   1.531 -0.7709 -0.0267  0.9201
  225MOL    O5245300   1.420   3.325   1.507  0.1457  0.1890 -0.0919
  225MOL    C5345301   1.530   3.388   1.570  0.3480 -0.4569  0.1967
  225MOL    C5445302   1.579   3.492   1.469  0.7858  0.1137 -0.7940
  225MOL    C5545303   1.480   3.605   1.458  0.6742 -0.1809 -0.3837
  225MOL    H5645304   1.605   3.311   1.592  1.0343  0.4674  1.1398
  225MOL    H5745305   1.498   3.425   1.668  1.6249  2.6551 -0.5132
  225MOL    H5845306   1.666   3.526   1.524  0.9915 -0.5525 -0.7043
  225MOL    H5945307   1.622   3.459   1.375 -2.0199  0.5373 -2.2865
  225MOL    H6045308   1.497   3.679   1.536 -2.3424  1.3507 -1.1271
  225MOL    H6145309   1.376   3.577   1.469  0.8942 -0.5043  1.0168
  225MOL    O6245310   1.501   3.676   1.340  0.1006 -0.3001 -0.0315
  225MOL    C6345311   1.448   3.807   1.338 -0.0938  0.3762  0.5088
  225MOL    C6445312   1.477   3.864   1.196 -0.1836  0.0085 -0.2580
  225MOL    C6545313   1.402   3.991   1.163  0.6298 -0.4517  0.0498
  225MOL    H6645314   1.491   3.876   1.411 -0.4226  1.1749 -0.0459
  225MOL    H6745315   1.345   3.799   1.373 -0.1209  2.9640  1.0901
  225MOL    H6845316   1.581   3.894   1.195 -0.5790  1.4328  0.0178
  225MOL    H6945317   1.453   3.792   1.117 -0.5335  1.6183 -1.6347
  225MOL    H7045318   1.297   3.965   1.178  0.8132 -0.4158  1.3930
  225MOL    H7145319   1.409   4.017   1.057  1.5136  1.1282  0.4816
  225MOL    O7245320   1.449   4.110   1.238 -0.0700 -0.3013  0.2523
  225MOL    C7345321   1.361   4.218   1.233  0.1757  0.4835  0.3533
  225MOL    C7445322   1.414   4.335   1.316 -0.1728  0.8096 -0.2860
  225MOL    C7545323   1.366   4.476   1.270  0.1883 -0.0683 -0.3446
  225MOL    H7645324   1.257   4.195   1.257 -0.0063 -0.3278 -1.1756
  225MOL    H7745325   1.369   4.234   1.126 -4.1672  2.9446  0.2936
  225MOL    H7845326   1.385   4.312   1.418  2.8883  1.6743  0.8348
  225MOL    H7945327   1.523   4.340   1.318 -0.1682  0.4395  0.8545
  225MOL    H8045328   1.258   4.491   1.273  0.0517 -0.2307 -3.0167
  225MOL    H8145329   1.396   4.493   1.166  2.1970 -1.5358 -0.0396
  225MOL    O8245330   1.422   4.561   1.364 -0.1107  0.0538  0.2690
  225MOL    C8345331   1.431   4.701   1.320 -0.9084 -0.0699 -0.1696
  225MOL    C8445332   1.297   4.770   1.336 -0.8586 -0.1736  1.0018
  225MOL    C8545333   1.209   4.790   1.206  0.3202 -0.1380  0.3667
  225MOL    H8645334   1.463   4.709   1.216 -2.8264  0.3312 -0.7517
  225MOL    H8745335   1.507   4.754   1.378 -2.1279  0.0660  1.3495
  225MOL    H8845336   1.250   4.711   1.415 -2.8396  1.3712  1.0130
  225MOL    H8945337   1.312   4.864   1.389 -0.2364  0.9481 -1.1038
  225MOL    H9045338   1.242   4.871   1.140  1.7638 -1.3818 -0.4904
  225MOL    H9145339   1.119   4.825   1.256 -0.5695 -0.3618 -1.0439
  225MOL    O9245340   1.201   4.667   1.136 -0.1076 -0.9044  0.6730
  225MOL    C9345341   1.115   4.684   1.022  0.5906  0.3781 -0.1724
  225MOL    C9445342   1.115   4.561   0.938  0.7355  0.3153 -0.3862
  225MOL    C9545343   1.061   4.440   1.019  0.1079  0.1911  0.1545
  225MOL    H9645344   1.141   4.770   0.961  1.4760 -0.4291 -0.9321
  225MOL    H9745345   1.015   4.703   1.063  0.2113 -1.2324 -0.3166
  225MOL    H9845346   1.063   4.580   0.844  0.9145 -1.2656 -0.8227
  225MOL    H9945347   1.216   4.530   0.911  0.0209 -2.7743  0.3110
  225MOL   H10045348   0.954   4.443   1.035  0.1397 -1.3233  0.7617
  225MOL   H10145349   1.099   4.427   1.121  2.1264  0.1545 -0.5734
  225MOL   O10245350   1.099   4.314   0.945 -0.1835  0.2774  0.0435
  225MOL   C10345351   1.025   4.209   0.992  0.3606  0.0361  0.6751
  225MOL   C10445352   1.061   4.087   0.911  0.9026 -0.0056 -0.0861
  225MOL   C10545353   0.970   3.975   0.951 -1.2633  0.2090 -0.1681
  225MOL   H10645354   0.920   4.233   0.976  0.2187 -0.8150  0.3228
  225MOL   H10745355   1.052   4.191   1.096  0.7961 -1.5747  0.2976
  225MOL   H10845356   1.059   4.111   0.805 -0.2006 -2.4342 -0.6444
  225MOL   H10945357   1.166   4.063   0.930  0.5394 -0.8840  0.8253
  225MOL   H11045358   0.863   3.998   0.950 -1.2538  0.2201 -1.3012
  225MOL   H11145359   1.001   3.943   1.050  0.0849  0.5190 -0.4791
  225MOL   O11245360   1.002   3.866   0.872  0.4474  0.4969 -0.0566
  225MOL   C11345361   0.959   3.865   0.735  0.2875  0.4757 -0.4732
  225MOL   C11445362   0.989   3.734   0.661 -0.1452 -0.0758 -0.1791
  225MOL   C11545363   0.909   3.616   0.712 -0.5488 -0.1274  0.4375
  225MOL   H11645364   0.999   3.950   0.679 -1.5028  0.7021 -1.4397
  225MOL   H11745365   0.850   3.876   0.737  0.1423 -0.9181 -0.4462
  225MOL   H11845366   0.982   3.749   0.553  0.0821  0.3457 -0.1318
  225MOL   H11945367   1.094   3.710   0.679  0.2795  1.9837  0.1937
  225MOL   H12045368   0.936   3.586   0.814  1.7232 -2.9647 -0.9288
  225MOL   H12145369   0.929   3.535   0.642  2.6297  1.7650 -0.9227
  225MOL   O12245370   0.769   3.629   0.720  0.1418  0.9525  0.6354
  225MOL   C12345371   0.702   3.514   0.784  0.0178 -0.6875 -0.0411
  225MOL   C12445372   0.549   3.521   0.773  0.4185 -0.3470 -0.1283
  225MOL   C12545373   0.505   3.652   0.833 -0.2200  0.1795  0.3489
  225MOL   H12645374   0.736   3.525   0.887  0.4947 -1.7983 -0.0765
  225MOL   H12745375   0.736   3.417   0.749  0.0985 -0.7712  0.2626
  225MOL   H12845376   0.520   3.510   0.669  0.6563  1.6676 -0.4298
  225MOL   H12945377   0.508   3.438   0.831  2.5075 -0.9344  0.5601
  225MOL   H13045378   0.559   3.730   0.778  0.7680  0.5958  1.8563
  225MOL   H13145379   0.541   3.659   0.936  1.5427  0.9020 -0.3004
  225MOL   O13245380   0.365   3.674   0.822  0.6112  0.3186 -0.1070
  225MOL   C13345381   0.326   3.798   0.875  0.4457  0.7063 -0.3740
  225MOL   C13445382   0.175   3.828   0.857  0.3685  0.0124  0.3532
  225MOL   C13545383   0.144   3.862   0.711  0.7194 -0.2802 -0.0879
  225MOL   H13645384   0.384   3.880   0.832 -0.9330  1.2624 -1.1839
  225MOL   H13745385   0.357   3.808   0.979 -0.0049  0.4317 -0.2142
  225MOL   H13845386   0.110   3.756   0.905 -0.9065 -1.8901 -3.9745
  225MOL   H13945387   0.173   3.924   0.910 -0.2912 -0.6629  1.5761
  225MOL   H14045388   0.177   3.789   0.637  0.6751 -1.0164  0.6082
  225MOL   H14145389   0.189   3.960   0.699  1.2414 -0.5951 -0.7350
  225MOL   O14245390   0.001   3.885   0.710  0.0596 -0.4098 -0.4115
  225MOL   C14345391   7.736   3.899   0.582 -0.6216  0.1799  0.2903
  225MOL   C14445392   7.746   4.044   0.537 -0.5104  0.3502 -0.0567
  225MOL   C14545393   7.658   4.056   0.410  0.4071  0.3270 -0.3465
  225MOL   H14645394   7.631   3.870   0.584 -0.4959 -0.3008  3.5795
  225MOL   H14745395   7.774   3.832   0.506 -2.3358 -1.9643  1.2871
  225MOL   H14845396   7.716   4.105   0.622 -0.3060  2.1115 -1.2241
  225MOL   H14945397   0.060   4.069   0.506  0.2835 -1.7525  0.7557
  225MOL   H15045398   7.640   4.161   0.387 -0.7949  0.1143 -0.4099
  225MOL   H15145399   7.559   4.014   0.427  2.0271 -3.0922  1.1440
  225MOL   O15245400   7.705   3.972   0.303 -0.2255  0.0965 -0.3141
  225MOL   C15345401   7.628   3.992   0.190 -0.2751  0.1995  0.2379
  225MOL   C15445402   7.673   3.909   0.073  0.0490  0.4997 -0.8338
  225MOL   C15545403   7.579   3.912   7.741 -0.9121  0.5164 -0.5858
  225MOL   H15645404   7.630   4.095   0.155 -0.4192  0.7891  1.8886
  225MOL   H15745405   7.522   3.975   0.211 -0.0680 -0.9556  0.3987
  225MOL   H15845406   7.772   3.945   0.045  0.6826 -1.7579 -1.5959
  225MOL   H15945407   7.676   3.807   0.111 -1.0887  1.1432  1.0142
  225MOL   H16045408   7.595   3.992   7.670  0.9978  0.6787  0.0110
  225MOL   H16145409   7.472   3.914   7.764 -0.8647 -2.5476  0.1521
  225MOL   O16245410   7.609   3.782   7.681  0.1403 -0.6930  0.1736
  225MOL   C16345411   7.521   3.746   7.564  0.2310 -0.0788 -0.0576
  225MOL   C16445412   7.556   3.606   7.504 -0.2724 -0.5283  0.9616
  225MOL   C16545413   7.476   3.574   7.379  0.1329  0.3929  0.0702
  225MOL   H16645414   7.534   3.829   7.495 -1.5407  1.0170  0.8840
  225MOL   H16745415   7.418   3.762   7.597  2.0233  3.5219  4.2914
  225MOL   H16845416   7.658   3.616   7.468 -1.0670  3.1002 -0.5795
  225MOL   H16945417   7.547   3.531   7.582 -1.1695  0.0818  1.4695
  225MOL   H17045418   7.504   3.651   7.306 -2.5234  0.7483 -0.6159
  225MOL   H17145419   7.372   3.596   7.400 -0.2609 -0.4925 -0.8956
  225MOL   O17245420   7.496   3.440   7.339  0.0467 -0.2943  0.3073
  225MOL   C17345421   7.421   3.410   7.223  0.0761  0.6156 -0.0897
  225MOL   C17445422   7.284   3.356   7.270 -0.1321  0.6676 -0.1617
  225MOL   C17545423   7.169   3.366   7.165 -0.1367  0.5133 -0.3339
  225MOL   H17645424   7.472   3.334   7.163  1.2330  0.5940  0.8771
  225MOL   H17745425   7.404   3.499   7.163  0.9426  1.1533  0.4526
  225MOL   H17845426   7.303   3.254   7.303 -0.0971  0.4401 -0.8734
  225MOL   H17945427   7.256   3.398   7.367 -1.6963 -1.3246  0.2852
  225MOL   H18045428   7.193   3.306   7.077  0.0643  0.4896 -0.2610
  225MOL   H18145429   7.177   3.466   7.121 -1.3664  1.7904  2.2514
  225MOL   O18245430   7.048   3.327   7.224  0.3559  0.4505  0.4752
  225MOL   C18345431   6.945   3.296   7.125 -0.0134  0.7014 -0.1393
  225MOL   C18445432   6.803   3.268   7.181  0.4049  0.5756  0.4417
  225MOL   C18545433   6.765   3.128   7.216  0.4503 -0.0610 -0.2831
  225MOL   H18645434   6.974   3.216   7.057 -1.2738  1.8415 -2.0714
  225MOL   H18745435   6.935   3.382   7.058  1.1034 -0.7456 -2.2111
  225MOL   H18845436   6.772   3.338   7.258  0.8831 -0.0416  1.2007
  225MOL   H18945437   6.747   3.302   7.094 -0.1857 -1.1865  0.1077
  225MOL   H19045438   6.790   3.061   7.133  0.2163  1.3807 -1.5450
  225MOL   H19145439   6.656   3.118   7.226  0.5175 -1.2851 -0.6121
  225MOL   O19245440   6.815   3.092   7.340 -0.0488  0.4667  0.0523
  225MOL   C19345441   6.937   3.022   7.332 -0.1544 -0.4753 -0.1691
  225MOL   C19445442   6.895   2.871   7.343  0.0204 -0.3242  0.3241
  225MOL   C19545443   6.855   2.830   7.480 -0.6484  0.4594  0.6640
  225MOL   H19645444   7.010   3.045   7.410 -1.3261  0.3484  0.6986
  225MOL   H19745445   6.993   3.032   7.239 -1.1424  0.3620 -0.6940
  225MOL   H19845446   6.811   2.864   7.274  0.1437 -0.0349  0.1453
  225MOL   H19945447   6.969   2.803   7.300  0.6138  1.7192 -1.9812
  225MOL   H20045448   6.937   2.834   7.552  0.6485  1.0156 -0.7972
  225MOL   H20145449   6.830   2.725   7.472  1.1215  0.0903 -0.3703
  225MOL   H20245450   6.770   2.884   7.523  0.4742  2.4373  0.4958
  226MOL     O145451   0.443   3.387   7.393 -0.2564  0.0435 -0.2179
  226MOL     C245452   0.361   3.489   7.446  0.2617 -0.1767  0.4816
  226MOL     C345453   0.297   3.445   7.577  0.3255 -0.5480  0.4383
  226MOL     C445454   0.209   3.546   7.635  0.2321 -0.6897  0.3269
  226MOL     H545455   0.274   3.501   7.382 -0.8454 -1.7359  1.6308
  226MOL     H645456   0.412   3.585   7.457  0.5819 -0.2579 -0.3388
  226MOL     H745457   0.244   3.353   7.551 -0.7725  0.6192 -1.6242
  226MOL     H845458   0.383   3.424   7.640 -0.0717 -0.2076  1.0990
  226MOL     H945459   0.117   3.566   7.579  1.8444  2.9590 -1.1719
  226MOL    H1045460   0.260   3.641   7.646  0.0887 -0.6101  0.3053
  226MOL    H1145461   0.431   3.383   7.300 -2.0524 -2.2399  0.0889
  226MOL    O1245462   0.184   3.488   7.764 -0.0638 -0.2914  0.7183
  226MOL    C1345463   0.090   3.558   0.055  0.5347  0.3235  0.1446
  226MOL    C1445464   0.082   3.495   0.196  0.6795 -0.1753 -0.0958
  226MOL    C1545465   7.776   3.566   0.296  0.9356  0.2084  0.6523
  226MOL    H1645466   7.784   3.576   0.003  0.1665 -0.2676  0.6107
  226MOL    H1745467   0.134   3.657   0.072 -1.2093  1.2382 -0.5309
  226MOL    H1845468   0.060   3.391   0.173  1.4319 -0.0620 -1.3826
  226MOL    H1945469   0.182   3.498   0.240 -0.6246  0.5343  2.9647
  226MOL    H2045470   0.003   3.674   0.299 -1.6334  0.5422  2.0739
  226MOL    H2145471   7.788   3.526   0.397 -2.8289 -2.2620  0.2149
  226MOL    O2245472   7.642   3.527   0.255 -0.0215  0.6238 -0.2578
  226MOL    C2345473   7.550   3.611   0.311 -0.7205  0.1744  0.1186
  226MOL    C2445474   7.417   3.566   0.258  0.5156  0.0236  0.0658
  226MOL    C2545475   7.387   3.597   0.108  1.0364  0.7281  0.1216
  226MOL    H2645476   7.570   3.717   0.294  2.1480 -0.4116 -0.5400
  226MOL    H2745477   7.550   3.613   0.420  2.0676 -0.4909  0.1815
  226MOL    H2845478   7.394   3.465   0.293  0.1128  0.4027  0.9142
  226MOL    H2945479   7.349   3.622   0.323 -0.7858 -1.8343  0.3474
  226MOL    H3045480   7.460   3.555   0.037 -0.7192 -1.1210 -0.6504
  226MOL    H3145481   7.362   3.699   0.079  0.8326  0.4550 -0.6858
  226MOL    O3245482   7.265   3.529   0.076 -0.3200  0.2018 -0.2756
  226MOL    C3345483   7.209   3.548   7.733  0.0023 -0.2853 -0.5338
  226MOL    C3445484   7.087   3.465   7.709 -0.1373 -0.4298 -0.8243
  226MOL    C3545485   7.032   3.467   7.572 -0.0170  0.1831  0.1137
  226MOL    H3645486   7.290   3.530   7.662  1.0495  3.5807 -0.4389
  226MOL    H3745487   7.187   3.655   7.723  2.2107  0.2059 -0.4295
  226MOL    H3845488   7.115   3.363   7.738  1.2343 -0.5662 -2.5563
  226MOL    H3945489   7.012   3.500   7.779  0.0910  0.2858 -0.9334
  226MOL    H4045490   6.933   3.426   7.557  1.3463 -2.5185 -1.7543
  226MOL    H4145491   7.088   3.405   7.503  1.6153  1.4149  0.2805
  226MOL    O4245492   7.007   3.604   7.544 -0.2049 -0.6181  0.2270
  226MOL    C4345493   6.984   3.627   7.409 -0.7672  0.1918  0.3450
  226MOL    C4445494   6.948   3.769   7.399 -0.1823  1.0244 -0.2584
  226MOL    C4545495   6.859   3.811   7.277 -0.4239  0.5386 -1.0823
  226MOL    H4645496   6.913   3.557   7.363  0.8212 -1.5162  0.4132
  226MOL    H4745497   7.085   3.605   7.373 -1.1992  0.1532 -0.8768
  226MOL    H4845498   6.888   3.796   7.487 -0.6196  0.6345 -0.4383
  226MOL    H4945499   7.037   3.830   7.416 -0.0081 -0.1115  3.3817
  226MOL    H5045500   6.815   3.910   7.292  0.3823  0.8304 -0.5970
  226MOL    H5145501   6.772   3.746   7.274  1.2330 -1.7364 -1.1950
  226MOL    O5245502   6.946   3.801   7.168 -0.0662 -0.3204  0.2478
  226MOL    C5345503   6.880   3.867   7.060 -0.0846  0.4244  1.0286
  226MOL    C5445504   6.966   3.846   6.931  0.5562  1.0488 -0.2055
  226MOL    C5545505   7.001   3.694   6.904  0.0299 -0.6888  0.1130
  226MOL    H5645506   6.858   3.972   7.079 -2.2336  0.2095 -0.0635
  226MOL    H5745507   6.778   3.827   7.054 -0.3366  1.2754 -0.7878
  226MOL    H5845508   6.914   3.897   6.849 -1.8041 -0.9086 -0.0050
  226MOL    H5945509   7.051   3.914   6.931 -0.5818  2.5064  1.6446
  226MOL    H6045510   6.906   3.640   6.910 -0.4309  0.1772  0.7663
  226MOL    H6145511   7.064   3.649   6.981 -0.3703  0.3995  1.0817
  226MOL    O6245512   7.063   3.681   6.775 -0.2756  0.1384 -0.1397
  226MOL    C6345513   7.057   3.548   6.727 -0.0178  0.5951 -0.4935
  226MOL    C6445514   7.125   3.528   6.594  0.4679  0.1775 -0.8242
  226MOL    C6545515   7.051   3.597   6.476  0.2121  0.9721 -0.5951
  226MOL    H6645516   6.955   3.511   6.717 -0.5216  1.9066 -0.2784
  226MOL    H6745517   7.105   3.489   6.805 -1.1127 -1.5551 -1.4082
  226MOL    H6845518   7.221   3.576   6.613  0.8719 -0.7293 -0.5899
  226MOL    H6945519   7.140   3.421   6.583  0.3133 -0.0238  0.9057
  226MOL    H7045520   7.037   3.704   6.493  0.4080  0.7033  1.3860
  226MOL    H7145521   6.954   3.550   6.461  0.4046 -0.3691  2.0310
  226MOL    O7245522   7.124   3.608   6.354  0.6746  0.3672 -0.2581
  226MOL    C7345523   7.058   3.680   6.252 -0.2378  0.2546 -0.5217
  226MOL    C7445524   7.111   3.645   6.111 -0.5175  0.3371 -0.1026
  226MOL    C7545525   7.043   3.729   6.016  0.2895  0.1514  0.0980
  226MOL    H7645526   7.065   3.789   6.256 -0.3127  0.2725 -0.8981
  226MOL    H7745527   6.950   3.666   6.259 -0.4078 -0.6130 -4.2260
  226MOL    H7845528   7.218   3.666   6.106 -1.0677  2.8911 -1.6986
  226MOL    H7945529   7.090   3.538   6.109  0.9364  0.0574 -1.9332
  226MOL    H8045530   7.021   3.833   6.041 -1.4608 -0.2662  0.4371
  226MOL    H8145531   6.947   3.682   5.994  0.7991 -1.0420  0.3794
  226MOL    O8245532   7.108   3.717   5.887  0.0787  0.0403 -0.7111
  226MOL    C8345533   7.037   3.789   5.788  0.6337 -0.4277 -0.3265
  226MOL    C8445534   7.056   3.750   5.639 -0.5444  0.2747 -0.2324
  226MOL    C8545535   6.979   3.831   5.538  0.7443  1.2171 -0.1771
  226MOL    H8645536   7.032   3.897   5.799 -0.7535 -0.4738 -0.3117
  226MOL    H8745537   6.931   3.762   5.799  0.4227  0.0879 -1.0849
  226MOL    H8845538   7.161   3.756   5.610 -0.6088 -0.6827 -0.7032
  226MOL    H8945539   7.039   3.642   5.632  0.2651  0.2771 -2.4757
  226MOL    H9045540   6.993   3.937   5.559  1.5396  0.8952  0.9663
  226MOL    H9145541   6.872   3.815   5.551  0.6410  3.1736  1.6059
  226MOL    O9245542   7.019   3.794   5.409 -0.2451 -0.0529  0.2532
  226MOL    C9345543   6.989   3.895   5.318 -0.5005 -0.0738 -1.2577
  226MOL    C9445544   6.963   3.839   5.181 -0.5700  0.0148 -0.1930
  226MOL    C9545545   6.844   3.736   5.181  0.4649 -0.3314  0.7159
  226MOL    H9645546   7.068   3.969   5.317  0.1387 -0.7374 -0.6855
  226MOL    H9745547   6.903   3.950   5.356 -1.4104 -1.0295 -1.8797
  226MOL    H9845548   6.937   3.925   5.120 -0.2691  2.2696  2.7379
  226MOL    H9945549   7.056   3.802   5.139 -0.3077  2.0002 -1.3750
  226MOL   H10045550   6.761   3.757   5.248  0.0763  0.1881  0.0768
  226MOL   H10145551   6.886   3.645   5.225 -0.4475 -0.4822  1.2996
  226MOL   O10245552   6.823   3.706   5.043 -0.5675  0.0310  0.5247
  226MOL   C10345553   6.691   3.645   5.031  0.2801  0.0893  0.0053
  226MOL   C10445554   6.654   3.588   4.896  0.1886  0.1872 -0.3139
  226MOL   C10545555   6.603   3.692   4.792  0.1765  0.2495 -0.3687
  226MOL   H10645556   6.618   3.720   5.063 -1.7536 -1.1611 -1.5495
  226MOL   H10745557   6.689   3.559   5.099  2.4074  0.9043  1.1495
  226MOL   H10845558   6.739   3.533   4.854  1.2994  1.5562  0.0939
  226MOL   H10945559   6.580   3.509   4.910 -0.3441  0.7822  0.2214
  226MOL   H11045560   6.692   3.745   4.755  0.6102 -0.8573 -0.9339
  226MOL   H11145561   6.532   3.760   4.838 -2.3902 -1.2824 -1.9821
  226MOL   O11245562   6.522   3.629   4.695  1.1453  0.2019  0.0182
  226MOL   C11345563   6.485   3.722   4.595  0.5332 -0.2112  0.0528
  226MOL   C11445564   6.400   3.661   4.494 -0.8615 -0.0121 -0.3855
  226MOL   C11545565   6.362   3.753   4.371 -0.0812  0.4067  0.2745
  226MOL   H11645566   6.575   3.766   4.551  1.4732  0.2397  2.3171
  226MOL   H11745567   6.439   3.807   4.646 -0.8392 -0.5647 -0.5724
  226MOL   H11845568   6.463   3.581   4.456  2.5512  0.9177  3.0526
  226MOL   H11945569   6.308   3.619   4.536 -0.9124 -0.7325 -1.1969
  226MOL   H12045570   6.297   3.696   4.304 -1.6115  1.3350  0.9606
  226MOL   H12145571   6.451   3.781   4.314 -0.5850  1.9287  0.2208
  226MOL   O12245572   6.285   3.863   4.404  0.5207  0.5079  0.2953
  226MOL   C12345573   6.223   3.932   4.300  0.1526 -0.3143  0.5766
  226MOL   C12445574   6.084   3.855   4.264 -0.1971 -0.7238  0.7994
  226MOL   C12545575   6.004   3.934   4.152 -0.4255 -0.3470 -0.2261
  226MOL   H12645576   6.285   3.935   4.210  0.8352  1.9510  1.0776
  226MOL   H12745577   6.209   4.039   4.318 -2.7148 -0.5115 -0.1982
  226MOL   H12845578   6.097   3.752   4.231 -0.1279 -0.9388  1.4972
  226MOL   H12945579   6.018   3.857   4.351 -1.6509  1.8026 -0.2921
  226MOL   H13045580   6.056   3.903   4.062 -1.6218 -0.5189 -0.8642
  226MOL   H13145581   6.020   4.041   4.167  0.5492 -0.7752  2.0538
  226MOL   O13245582   5.873   3.902   4.146 -0.1055  0.2682 -0.0917
  226MOL   C13345583   5.796   3.950   4.032 -1.0511  0.1565  0.2420
  226MOL   C13445584   5.656   3.886   4.049 -0.3356 -0.4734 -0.2868
  226MOL   C13545585   5.553   3.937   3.951 -0.6225  0.4973 -0.7498
  226MOL   H13645586   5.826   3.915   3.933 -2.9665 -0.8872  0.0207
  226MOL   H13745587   5.797   4.059   4.035 -1.5338  0.1480  0.7034
  226MOL   H13845588   5.658   3.777   4.044  2.4628 -0.4750  0.0480
  226MOL   H13945589   5.630   3.912   4.152  1.0745  0.7672 -0.2249
  226MOL   H14045590   5.570   3.906   3.848 -0.0497 -0.8037 -0.2650
  226MOL   H14145591   5.572   4.044   3.948  0.2002  0.4103  1.1167
  226MOL   O14245592   5.429   3.898   4.007 -0.2574 -0.3110 -0.5567
  226MOL   C14345593   5.315   3.945   3.936 -0.9317 -0.4502  0.5700
  226MOL   C14445594   5.183   3.915   4.013 -0.3933 -0.3848  0.3218
  226MOL   C14545595   5.052   3.961   3.953 -0.2653  0.3926 -0.3977
  226MOL   H14645596   5.313   3.901   3.837 -0.5992  0.1032  0.3187
  226MOL   H14745597   5.323   4.053   3.928  0.0221 -0.4320  1.5788
  226MOL   H14845598   5.187   3.806   4.006 -0.2935 -0.2735 -1.9443
  226MOL   H14945599   5.188   3.947   4.117 -0.6514  1.7380 -0.2945
  226MOL   H15045600   5.060   3.943   3.846  2.8122 -1.1395  0.0562
  226MOL   H15145601   5.028   4.061   3.989  0.0874 -0.1133  1.2579
  226MOL   O15245602   4.959   3.887   4.029  0.1262 -0.0174  0.0799
  226MOL   C15345603   4.827   3.914   3.993  0.1092  0.6952 -0.5063
  226MOL   C15445604   4.740   3.883   4.119  0.3537 -0.0566 -0.4328
  226MOL   C15545605   4.791   3.980   4.230 -0.2008 -0.0616  0.0794
  226MOL   H15645606   4.789   3.846   3.916  2.1123 -0.6362 -0.3484
  226MOL   H15745607   4.811   4.017   3.960 -1.9796  0.1368 -1.3277
  226MOL   H15845608   4.637   3.910   4.097  0.4063  0.4281 -0.1088
  226MOL   H15945609   4.742   3.777   4.142  0.2234  0.2151  0.8938
  226MOL   H16045610   4.828   4.079   4.201 -1.1291  0.2579 -0.0355
  226MOL   H16145611   4.888   3.934   4.245 -0.3739 -0.6818 -0.6661
  226MOL   O16245612   4.717   3.992   4.352 -0.2614  0.1730 -0.2884
  226MOL   C16345613   4.772   4.080   4.443  0.3575  0.0948  0.2952
  226MOL   C16445614   4.699   4.059   4.580 -0.0698 -0.1464 -0.3555
  226MOL   C16545615   4.737   4.167   4.679  0.4465 -0.4368 -0.1863
  226MOL   H16645616   4.751   4.186   4.426  3.2287  0.6710  0.0302
  226MOL   H16745617   4.878   4.066   4.463  0.5863  1.2937  0.0020
  226MOL   H16845618   4.596   4.087   4.556  0.6404  1.7047 -1.3401
  226MOL   H16945619   4.694   3.956   4.617 -0.5749 -0.3035 -0.8609
  226MOL   H17045620   4.669   4.157   4.763  1.6042 -1.8593  0.6144
  226MOL   H17145621   4.718   4.266   4.637  0.6860  0.3778  1.5628
  226MOL   O17245622   4.877   4.154   4.704 -0.0058 -0.4233 -0.3021
  226MOL   C17345623   4.923   4.238   4.809  0.2669  0.2011  0.4423
  226MOL   C17445624   4.876   4.182   4.946  0.6732  0.3133  0.4316
  226MOL   C17545625   4.898   4.033   4.951  0.0445 -0.4938  0.5974
  226MOL   H17645626   4.911   4.346   4.793 -0.1359 -0.0538 -1.0468
  226MOL   H17745627   5.031   4.229   4.804  0.3364  0.8740  0.6236
  226MOL   H17845628   4.923   4.228   5.033  0.1814  0.8857  0.3992
  226MOL   H17945629   4.769   4.200   4.956  0.5630  1.2094 -1.8650
  226MOL   H18045630   5.005   4.009   4.958  0.3342  1.0027  1.5118
  226MOL   H18145631   4.860   3.987   4.859  0.5387 -1.2367  0.7586
  226MOL   O18245632   4.818   3.987   5.061  0.2391  0.1191  0.6125
  226MOL   C18345633   4.871   4.019   5.182  0.2269  0.3178 -0.3868
  226MOL   C18445634   4.749   3.978   5.261 -0.0532  0.0607 -0.3762
  226MOL   C18545635   4.655   4.099   5.293 -0.3842 -0.1717 -0.3673
  226MOL   H18645636   4.907   4.119   5.209 -0.1047  0.6680 -1.2039
  226MOL   H18745637   4.953   3.950   5.204 -0.5354 -0.6538 -0.5829
  226MOL   H18845638   4.695   3.892   5.222  0.9147 -0.7906  0.1509
  226MOL   H18945639   4.786   3.941   5.356  0.6564 -0.3114 -0.7876
  226MOL   H19045640   4.629   4.158   5.205 -1.2029 -0.7231 -0.4946
  226MOL   H19145641   4.714   4.162   5.360 -0.4503 -0.8943  0.3862
  226MOL   O19245642   4.539   4.041   5.349  0.2911  0.4424  0.9077
  226MOL   C19345643   4.467   4.134   5.429  0.6017  0.2518  0.3035
  226MOL   C19445644   4.317   4.096   5.443 -0.2592 -0.5768  0.1699
  226MOL   C19545645   4.238   4.203   5.520  0.2092  0.0485  0.5127
  226MOL   H19645646   4.476   4.223   5.367  0.2731 -0.4802 -0.8304
  226MOL   H19745647   4.520   4.147   5.523 -0.2123  1.4642  0.6015
  226MOL   H19845648   4.273   4.089   5.344 -3.7250 -0.9583  1.6376
  226MOL   H19945649   4.301   4.005   5.501 -2.2906  1.2066  2.5173
  226MOL   H20045650   4.221   4.295   5.463 -1.0923 -0.0787  0.6769
  226MOL   H20145651   4.275   4.226   5.620 -1.0087  0.9111  0.7734
  226MOL   H20245652   4.136   4.171   5.541 -0.3908  0.9291 -0.9155
  227MOL     O145653   1.939   2.477   3.453 -0.3317 -1.4424 -0.1139
  227MOL     C245654   1.865   2.380   3.380 -0.4579 -0.5245 -0.0003
  227MOL     C345655   1.884   2.399   3.227  0.1152  0.2698  0.8773
  227MOL     C445656   1.793   2.313   3.143 -0.4150 -0.7896 -0.0804
  227MOL     H545657   1.757   2.391   3.394 -0.5197 -0.3125 -0.5934
  227MOL     H645658   1.878   2.277   3.412 -1.1372 -0.0552  1.8137
  227MOL     H745659   1.876   2.504   3.197 -3.2742 -0.1783  0.0002
  227MOL     H845660   1.984   2.378   3.189 -0.0529 -0.9345  1.0833
  227MOL     H945661   1.696   2.312   3.193 -1.2939  0.3547 -1.7259
  227MOL    H1045662   1.824   2.210   3.125  0.7512 -0.7247  1.4634
  227MOL    H1145663   1.991   2.427   3.513 -1.5900  0.8599  3.0270
  227MOL    O1245664   1.789   2.359   3.012 -0.1537  0.3849 -0.3634
  227MOL    C1345665   1.680   2.310   2.933  0.0432  0.0849  0.2186
  227MOL    C1445666   1.710   2.348   2.788 -0.2773 -0.0886 -0.9299
  227MOL    C1545667   1.586   2.356   2.696 -0.2317  0.5041  0.2942
  227MOL    H1645668   1.587   2.352   2.971 -0.2802 -1.1977  0.8565
  227MOL    H1745669   1.681   2.202   2.949 -1.5066 -0.0872 -0.7391
  227MOL    H1845670   1.753   2.448   2.781 -1.4137  0.6239  1.7230
  227MOL    H1945671   1.767   2.269   2.739  0.6364  0.7098 -1.1637
  227MOL    H2045672   1.613   2.350   2.591 -1.3921 -1.6985  0.0766
  227MOL    H2145673   1.527   2.444   2.720 -2.3242 -0.3731 -1.4614
  227MOL    O2245674   1.496   2.248   2.737  0.1177 -0.2162 -0.2127
  227MOL    C2345675   1.399   2.232   2.633 -0.0419 -1.2401 -0.7763
  227MOL    C2445676   1.272   2.171   2.693  0.9080 -0.4261 -0.1551
  227MOL    C2545677   1.203   2.260   2.800 -0.1968  0.6791  0.7443
  227MOL    H2645678   1.454   2.171   2.562  1.3562 -0.5575 -0.3190
  227MOL    H2745679   1.370   2.328   2.592 -1.4774 -0.6679  1.4490
  227MOL    H2845680   1.210   2.142   2.609  0.8253  1.3945 -0.7436
  227MOL    H2945681   1.294   2.079   2.746  0.2445  0.3297  1.4799
  227MOL    H3045682   1.170   2.351   2.750 -3.2342 -0.9703 -0.3711
  227MOL    H3145683   1.276   2.284   2.877 -0.3183  2.0791  0.4413
  227MOL    O3245684   1.096   2.188   2.839  0.2217  0.5611 -0.2340
  227MOL    C3345685   0.999   2.257   2.916  0.0957 -0.1040  0.0886
  227MOL    C3445686   0.884   2.164   2.958  0.7073 -0.1815  0.0147
  227MOL    C3545687   0.784   2.228   3.048  0.2304  0.6797 -0.0484
  227MOL    H3645688   0.964   2.339   2.853  1.4090  1.0344  0.8228
  227MOL    H3745689   1.033   2.306   3.007 -1.8443 -2.0305  1.9035
  227MOL    H3845690   0.834   2.121   2.872  1.1703  1.4344 -1.0775
  227MOL    H3945691   0.923   2.082   3.018 -0.0606 -0.3162  0.3436
  227MOL    H4045692   0.832   2.250   3.143 -1.2819 -1.4743  1.2558
  227MOL    H4145693   0.720   2.147   3.082  1.0909 -0.4391 -1.0515
  227MOL    O4245694   0.709   2.327   2.972 -0.1706  0.0496  0.0148
  227MOL    C4345695   0.582   2.346   3.032  0.6123 -0.2625 -0.7419
  227MOL    C4445696   0.504   2.454   2.958  0.3451  0.0637 -0.2116
  227MOL    C4545697   0.370   2.475   3.032 -0.0623  0.5023 -0.2450
  227MOL    H4645698   0.604   2.378   3.134 -2.7390  0.4614 -0.2061
  227MOL    H4745699   0.521   2.257   3.035  0.7096 -0.2844  1.0033
  227MOL    H4845700   0.554   2.550   2.951 -0.9951  1.0171  2.6190
  227MOL    H4945701   0.482   2.412   2.860 -1.2445 -1.6797  0.8638
  227MOL    H5045702   0.319   2.564   2.993 -1.0140  1.2915  2.6887
  227MOL    H5145703   0.391   2.506   3.135  3.1749 -1.4365 -0.2627
  227MOL    O5245704   0.281   2.360   3.015  0.3159 -0.4016  1.4070
  227MOL    C5345705   0.158   2.367   3.091 -0.7336 -0.3784 -0.1157
  227MOL    C5445706   0.050   2.281   3.025 -0.0829 -0.8099 -0.6361
  227MOL    C5545707   7.699   2.292   3.095  0.6015 -0.1888 -0.2495
  227MOL    H5645708   0.132   2.472   3.084  0.4285 -0.0855 -0.1502
  227MOL    H5745709   0.176   2.345   3.196  1.3273  2.4562  0.1868
  227MOL    H5845710   0.042   2.300   2.918  0.1235  0.7743 -0.3776
  227MOL    H5945711   0.088   2.180   3.044 -0.9695 -1.2984 -1.4182
  227MOL    H6045712   7.666   2.396   3.086  0.0724 -0.2460  0.9546
  227MOL    H6145713   7.702   2.273   3.202 -0.2352 -0.3188 -0.2495
  227MOL    O6245714   7.593   2.209   3.045  0.0175 -0.5070  0.4532
  227MOL    C6345715   7.470   2.219   3.115 -0.1296  0.2526 -0.1077
  227MOL    C6445716   7.357   2.145   3.034  0.4735  0.5160  0.1916
  227MOL    C6545717   7.380   1.998   3.008 -0.1955 -0.4760  1.0681
  227MOL    H6645718   7.453   2.324   3.140  1.5791  0.4096  0.4571
  227MOL    H6745719   7.486   2.163   3.207 -0.6042  0.4074  0.0697
  227MOL    H6845720   7.263   2.149   3.090  1.2900  0.5169  1.5993
  227MOL    H6945721   7.350   2.200   2.941 -0.2145 -2.3510 -1.5110
  227MOL    H7045722   7.394   1.954   3.107  1.3760 -0.7985  0.7169
  227MOL    H7145723   7.465   1.981   2.942 -0.4553  2.3148 -0.0462
  227MOL    O7245724   7.269   1.946   2.942  0.4684 -0.7818  0.1176
  227MOL    C7345725   7.243   1.809   2.967 -0.5382 -0.3635  0.7664
  227MOL    C7445726   7.152   1.756   2.865 -0.5847  0.5439 -0.9163
  227MOL    C7545727   7.104   1.616   2.889  0.1947 -0.3073  0.1343
  227MOL    H7645728   7.192   1.792   3.062 -1.2560 -0.4194  0.3712
  227MOL    H7745729   7.339   1.757   2.979 -0.4598 -0.8850 -1.9292
  227MOL    H7845730   7.060   1.810   2.845 -0.7985 -0.1872 -1.9472
  227MOL    H7945731   7.212   1.748   2.774 -0.7029  0.8249 -1.0175
  227MOL    H8045732   7.013   1.628   2.947  0.5852  0.3485  0.6234
  227MOL    H8145733   7.180   1.560   2.945  2.8496 -0.7107 -3.6818
  227MOL    O8245734   7.063   1.549   2.773 -0.0467 -0.1861 -0.0127
  227MOL    C8345735   7.027   1.419   2.796 -0.7143  0.4209 -0.3743
  227MOL    C8445736   7.014   1.329   2.668 -0.7647 -0.0037  0.5948
  227MOL    C8545737   6.953   1.192   2.697  0.1196  1.0613 -0.5550
  227MOL    H8645738   6.929   1.439   2.838 -0.7210 -1.5162  0.6137
  227MOL    H8745739   7.079   1.353   2.866 -1.9557 -0.8856 -0.6475
  227MOL    H8845740   6.971   1.381   2.583  1.7004  0.3028 -0.5065
  227MOL    H8945741   7.117   1.314   2.637 -0.8927  0.6053 -0.1434
  227MOL    H9045742   6.848   1.212   2.721 -0.0609  0.5513 -0.9054
  227MOL    H9145743   7.008   1.139   2.775  0.7245 -0.9196 -2.2698
  227MOL    O9245744   6.944   1.115   2.572  0.3529 -0.5297 -0.0674
  227MOL    C9345745   7.046   1.016   2.570 -0.4145 -0.0448  0.3379
  227MOL    C9445746   7.021   0.936   2.439  0.0049  0.2836  0.0064
  227MOL    C9545747   7.074   1.000   2.308  0.4811 -0.4576  0.3431
  227MOL    H9645748   7.026   0.945   2.650 -3.0598  0.9987  0.6684
  227MOL    H9745749   7.147   1.053   2.584 -0.5200 -0.2010  1.5857
  227MOL    H9845750   7.082   0.846   2.441  1.1450  0.9923 -1.5050
  227MOL    H9945751   6.920   0.895   2.443  0.9491 -2.0895  0.3479
  227MOL   H10045752   7.182   1.017   2.305  0.2802  0.9689  0.5178
  227MOL   H10145753   7.013   1.089   2.294 -1.8680 -2.0435  0.3372
  227MOL   O10245754   7.033   0.916   2.195 -0.3253  0.2283 -0.3456
  227MOL   C10345755   7.130   0.855   2.115  0.1239 -0.0144  0.3345
  227MOL   C10445756   7.189   0.956   2.016  0.0462  0.1946 -0.0284
  227MOL   C10545757   7.291   0.885   1.924  0.3520 -0.4900 -0.8222
  227MOL   H10645758   7.103   0.764   2.061 -1.3916  0.9787 -0.6275
  227MOL   H10745759   7.199   0.821   2.192  0.5116 -2.1050 -0.8765
  227MOL   H10845760   7.117   1.007   1.951 -0.1239 -0.3346 -0.2620
  227MOL   H10945761   7.248   1.026   2.075  0.4679  0.8629 -1.2150
  227MOL   H11045762   7.236   0.801   1.882 -1.7414  1.4572 -2.0669
  227MOL   H11145763   7.374   0.845   1.983  0.5395 -1.8000 -1.9541
  227MOL   O11245764   7.336   0.980   1.822  0.0098 -0.2035 -0.0722
  227MOL   C11345765   7.419   0.920   1.731 -0.4154  0.2036  0.1910
  227MOL   C11445766   7.475   1.026   1.641  0.7095 -0.2550 -0.5317
  227MOL   C11545767   7.601   0.979   1.572  0.2621 -0.0936 -0.4745
  227MOL   H11645768   7.367   0.849   1.667  0.1261 -1.6712  1.7836
  227MOL   H11745769   7.496   0.865   1.785 -0.1117  0.9086  0.4696
  227MOL   H11845770   7.405   1.039   1.558  0.3099  1.6592  0.0810
  227MOL   H11945771   7.480   1.125   1.687 -2.6796  0.2206 -1.0179
  227MOL   H12045772   7.578   0.885   1.522  3.5136 -1.0639 -0.2167
  227MOL   H12145773   7.680   0.956   1.643 -0.0699  2.2608  0.7360
  227MOL   O12245774   7.650   1.056   1.468 -0.1046 -0.1592 -0.4138
  227MOL   C12345775   7.725   1.170   1.515  0.0013 -0.2445 -0.3846
  227MOL   C12445776   7.786   1.232   1.380  0.0141 -0.5984 -0.2077
  227MOL   C12545777   0.112   1.323   1.413  0.1411 -0.0612  0.1350
  227MOL   H12645778   0.015   1.141   1.585 -0.7490  0.6046  0.8281
  227MOL   H12745779   7.656   1.237   1.567 -0.1941  0.3437 -1.3845
  227MOL   H12845780   0.034   1.160   1.307 -0.3088 -0.6871 -0.2824
  227MOL   H12945781   7.708   1.283   1.322  0.4932  0.7578  0.3205
  227MOL   H13045782   0.182   1.267   1.475 -0.0317 -0.1914  0.2123
  227MOL   H13145783   0.076   1.404   1.477  1.6419  0.4617  0.3514
  227MOL   O13245784   0.179   1.366   1.297 -0.6841 -0.4629  0.4073
  227MOL   C13345785   0.292   1.443   1.329 -0.9281 -0.0906  0.2160
  227MOL   C13445786   0.417   1.361   1.347  0.7814 -0.3572  0.1184
  227MOL   C13545787   0.547   1.444   1.377  0.8538  0.4443  0.0297
  227MOL   H13645788   0.269   1.489   1.425  2.7107  0.9959  0.6384
  227MOL   H13745789   0.310   1.526   1.261 -2.2655  1.1161  1.3149
  227MOL   H13845790   0.382   1.299   1.429 -1.3243 -0.3815 -0.7748
  227MOL   H13945791   0.432   1.291   1.264  1.1982 -0.3494  0.1861
  227MOL   H14045792   0.515   1.527   1.441  0.4865  0.3050  0.0321
  227MOL   H14145793   0.592   1.484   1.287 -0.1347 -0.1790 -0.7548
  227MOL   O14245794   0.641   1.361   1.443 -0.0302  0.1450  0.2070
  227MOL   C14345795   0.774   1.412   1.452  0.2241 -0.6538 -0.4360
  227MOL   C14445796   0.870   1.318   1.519 -0.5106  0.9531  0.5003
  227MOL   C14545797   0.901   1.196   1.434 -0.5182  0.4135  0.1335
  227MOL   H14645798   0.772   1.500   1.516 -0.7274  0.9761 -2.6230
  227MOL   H14745799   0.811   1.440   1.353 -2.3452  0.6233 -1.0908
  227MOL   H14845800   0.964   1.372   1.529  1.2878 -1.8853 -0.4309
  227MOL   H14945801   0.830   1.281   1.613 -1.4914  0.9227  0.0762
  227MOL   H15045802   0.934   1.222   1.333 -3.4265  2.2594 -0.3868
  227MOL   H15145803   0.813   1.134   1.418 -0.2718  0.1714 -0.2939
  227MOL   O15245804   1.002   1.130   1.507  0.1393  0.7497 -0.3285
  227MOL   C15345805   0.955   1.019   1.582 -0.2064 -0.8550 -0.2853
  227MOL   C15445806   1.067   0.952   1.667 -0.5167 -0.5393 -0.7537
  227MOL   C15545807   1.013   0.831   1.750  0.4294 -0.8500  0.7186
  227MOL   H15645808   0.926   0.945   1.507  3.4704 -1.3383 -1.3309
  227MOL   H15745809   0.885   1.055   1.657  1.3480  1.6783  0.0114
  227MOL   H15845810   1.149   0.926   1.600  0.9670  1.5509  0.1727
  227MOL   H15945811   1.123   1.023   1.728  0.9623 -2.5081  0.2224
  227MOL   H16045812   0.977   0.760   1.677 -1.9720  2.8279 -1.8085
  227MOL   H16145813   0.926   0.865   1.806  0.5234 -0.6191  0.7256
  227MOL   O16245814   1.113   0.766   1.827  0.1756 -0.2639 -0.5918
  227MOL   C16345815   1.056   0.670   1.921  0.5967  0.1004 -0.3299
  227MOL   C16445816   1.162   0.599   2.002  0.3017  0.3581  0.0610
  227MOL   C16545817   1.268   0.527   1.921  0.0982  0.0265  0.1183
  227MOL   H16645818   0.989   0.605   1.865  0.2788  0.5190 -0.4460
  227MOL   H16745819   1.004   0.743   1.983 -0.1063  1.6770 -2.7092
  227MOL   H16845820   1.213   0.672   2.066  2.4912 -1.6430  0.6624
  227MOL   H16945821   1.121   0.521   2.067 -1.6795  1.1103 -0.2516
  227MOL   H17045822   1.331   0.599   1.868  0.3401 -0.0531  0.2950
  227MOL   H17145823   1.234   0.453   1.849  3.0636 -1.5331  0.2332
  227MOL   O17245824   1.356   0.462   2.012 -0.7501 -0.2975 -0.8435
  227MOL   C17345825   1.483   0.431   1.954  0.1586 -0.0809  0.7803
  227MOL   C17445826   1.581   0.544   1.971  0.0170 -0.8164 -0.1275
  227MOL   C17545827   1.706   0.516   1.894 -0.2736 -0.2188 -0.0416
  227MOL   H17645828   1.477   0.423   1.846  1.6787 -2.7363  0.8599
  227MOL   H17745829   1.532   0.346   2.001  0.8763  0.5168  1.1186
  227MOL   H17845830   1.547   0.646   1.951  0.6873 -0.5888 -0.1040
  227MOL   H17945831   1.627   0.552   2.070 -1.8676  0.3885  0.6926
  227MOL   H18045832   1.760   0.424   1.915  0.5591  0.6194  1.6010
  227MOL   H18145833   1.776   0.594   1.922  1.9328 -1.3184 -2.2375
  227MOL   O18245834   1.686   0.513   1.750  0.0077  0.1683  0.5839
  227MOL   C18345835   1.661   0.637   1.692 -0.1581 -0.3581 -0.3279
  227MOL   C18445836   1.645   0.624   1.543  0.3505 -0.2660 -0.0806
  227MOL   C18545837   1.758   0.565   1.449  0.5835 -0.5031  0.5795
  227MOL   H18645838   1.744   0.702   1.720  0.4675 -1.6266  0.8229
  227MOL   H18745839   1.568   0.681   1.729 -0.7173  0.9259 -3.1002
  227MOL   H18845840   1.556   0.562   1.535  0.3274 -0.1260 -0.9843
  227MOL   H18945841   1.613   0.718   1.497 -0.0442  0.8472  2.4043
  227MOL   H19045842   1.743   0.584   1.342  1.9132 -1.0773  0.2750
  227MOL   H19145843   1.774   0.459   1.468  0.8332 -1.3942 -3.8642
  227MOL   O19245844   1.877   0.635   1.482  0.7572 -0.2936 -0.1501
  227MOL   C19345845   1.991   0.609   1.398  0.5590  0.0212 -0.1939
  227MOL   C19445846   2.089   0.727   1.421  0.8456  0.5242  0.1178
  227MOL   C19545847   2.229   0.689   1.369  0.1259  0.0255 -0.0318
  227MOL   H19645848   1.972   0.610   1.291  0.9097  0.2288 -0.2528
  227MOL   H19745849   2.030   0.510   1.421  2.0336  0.5290 -0.4578
  227MOL   H19845850   2.048   0.816   1.374  1.2360  0.9861  0.6392
  227MOL   H19945851   2.096   0.763   1.524 -0.9540  0.2326  0.3683
  227MOL   H20045852   2.286   0.627   1.438 -1.8743 -0.6213  1.0594
  227MOL   H20145853   2.283   0.783   1.361 -0.2274  0.3408  1.3042
  227MOL   H20245854   2.233   0.641   1.271 -1.1949  0.9117 -0.5318
  228MOL     O145855   5.590   3.802   7.765 -0.4147  0.3845  0.0679
  228MOL     C245856   5.491   3.871   7.692  0.5312  0.3388 -0.2658
  228MOL     C345857   5.525   3.856   7.544  0.3502  0.2192 -0.2029
  228MOL     C445858   5.414   3.910   7.454  0.0241  0.3324 -0.3758
  228MOL     H545859   5.469   3.972   7.727 -0.3401  1.3531 -3.5497
  228MOL     H645860   5.398   3.818   7.714 -0.0564  1.4345 -0.1132
  228MOL     H745861   5.621   3.902   7.521  0.8489 -1.5608 -1.7732
  228MOL     H845862   5.543   3.750   7.524  0.1677  0.7910 -3.9040
  228MOL     H945863   5.313   3.905   7.494 -0.1352  2.0067 -0.5473
  228MOL    H1045864   5.420   3.849   7.364  0.8052  0.2765 -0.2936
  228MOL    H1145865   5.537   3.746   0.032 -1.9437  1.8027  0.0861
  228MOL    O1245866   5.452   4.041   7.417  0.1439  0.2905 -0.3737
  228MOL    C1345867   5.377   4.091   7.306  0.6059  0.6373 -0.1901
  228MOL    C1445868   5.371   4.245   7.318 -0.0787  0.3715 -0.7378
  228MOL    C1545869   5.285   4.307   7.215 -0.1206  0.0470 -0.7151
  228MOL    H1645870   5.275   4.053   7.302  0.6437  0.7318 -2.3570
  228MOL    H1745871   5.426   4.066   7.212  0.2225 -2.4671  0.3855
  228MOL    H1845872   5.347   4.283   7.418 -1.5963 -0.0166 -0.9445
  228MOL    H1945873   5.472   4.283   7.309 -0.0081  0.2209 -0.6064
  228MOL    H2045874   5.296   4.266   7.115 -0.2026  1.3597 -1.2683
  228MOL    H2145875   5.310   4.413   7.214 -0.3155  0.1006 -0.1791
  228MOL    O2245876   5.147   4.295   7.262  0.1895 -0.1168 -0.5656
  228MOL    C2345877   5.043   4.347   7.178  0.1397  0.5442 -0.4403
  228MOL    C2445878   4.905   4.310   7.241 -0.3086  1.0349 -0.4414
  228MOL    C2545879   4.796   4.340   7.137 -0.4466 -0.9806  0.6943
  228MOL    H2645880   5.046   4.322   7.072 -1.5648  0.9492 -0.5992
  228MOL    H2745881   5.054   4.454   7.192 -0.0207  0.1702  3.1251
  228MOL    H2845882   4.900   4.208   7.277  1.1711  1.1360  0.0891
  228MOL    H2945883   4.894   4.371   7.331  1.6611  0.2097  0.3862
  228MOL    H3045884   4.790   4.276   7.050  1.3658 -0.3641  0.0890
  228MOL    H3145885   4.805   4.440   7.094 -0.5352 -2.1134 -2.0376
  228MOL    O3245886   4.677   4.341   7.213 -0.6418  0.2312  0.6330
  228MOL    C3345887   4.570   4.383   7.130 -1.0739 -0.4811  0.1853
  228MOL    C3445888   4.442   4.373   7.217  0.0207 -0.1090  0.7605
  228MOL    C3545889   4.314   4.376   7.129 -0.1269 -0.7873 -0.5917
  228MOL    H3645890   4.555   4.319   7.043  0.4686  0.6492 -0.9409
  228MOL    H3745891   4.601   4.480   7.093  0.5089 -1.2347 -0.5348
  228MOL    H3845892   4.455   4.297   7.294  0.1848 -0.4759  0.3718
  228MOL    H3945893   4.440   4.458   7.286  0.9733 -0.0855  0.7751
  228MOL    H4045894   4.322   4.292   7.059 -2.2118 -2.0237  0.5908
  228MOL    H4145895   4.297   4.474   7.085 -2.4755 -1.3559 -1.0274
  228MOL    O4245896   4.205   4.352   7.223 -0.4234 -0.1095 -0.1291
  228MOL    C4345897   4.091   4.432   7.195  0.4720 -0.1030  0.6082
  228MOL    C4445898   3.990   4.410   7.310 -0.0990 -0.1134  0.1694
  228MOL    C4545899   3.877   4.516   7.293 -0.7304 -0.3522  0.3694
  228MOL    H4645900   4.047   4.401   7.100 -1.5912 -0.4734  1.6530
  228MOL    H4745901   4.129   4.533   7.183  3.5617 -1.3521 -0.6130
  228MOL    H4845902   3.952   4.308   7.324  0.2048 -0.1157  0.9974
  228MOL    H4945903   4.037   4.433   7.406  0.9133  0.8803 -0.5636
  228MOL    H5045904   3.833   4.509   7.193  0.6271 -2.1656 -0.1231
  228MOL    H5145905   3.933   4.609   7.296 -1.2369  0.0171 -0.9359
  228MOL    O5245906   3.785   4.510   7.407 -0.2425  0.0382  0.5723
  228MOL    C5345907   3.678   4.600   7.398 -0.2961 -0.0972  0.6355
  228MOL    C5445908   3.620   4.619   7.542  0.1914  0.4649  0.7202
  228MOL    C5545909   3.495   4.702   7.554 -0.2322 -0.1467 -0.0841
  228MOL    H5645910   3.608   4.554   7.328  0.1440 -0.3443  0.3507
  228MOL    H5745911   3.710   4.700   7.370 -1.4451  1.0573  3.2561
  228MOL    H5845912   3.601   4.516   7.573  2.7781 -0.5977 -1.1082
  228MOL    H5945913   3.688   4.669   7.611  1.9628 -1.9512  0.8098
  228MOL    H6045914   3.458   4.692   7.656  0.9507  1.8804  0.5664
  228MOL    H6145915   3.410   4.663   7.499 -1.5786 -0.4881  2.1770
  228MOL    O6245916   3.513   4.845   7.519  0.4804  0.5238  0.2064
  228MOL    C6345917   3.400   4.935   7.525  0.6830  0.7149  0.0666
  228MOL    C6445918   3.436   5.020   7.653 -0.4728 -0.4712  0.8728
  228MOL    C6545919   3.338   5.140   7.670 -0.4622 -0.2050 -0.1231
  228MOL    H6645920   3.307   4.882   7.542 -0.0424  2.2679  0.9619
  228MOL    H6745921   3.399   4.994   7.433 -0.1359  1.1073  0.3276
  228MOL    H6845922   3.412   4.954   7.737 -0.9198  1.1197  1.9981
  228MOL    H6945923   3.541   5.046   7.668 -0.5255  0.4922 -0.3537
  228MOL    H7045924   3.239   5.110   7.707 -0.7044  2.3258  1.3549
  228MOL    H7145925   3.312   5.198   7.581  1.5335  1.9642  0.6575
  228MOL    O7245926   3.385   5.219   7.780  0.2732 -0.2196 -0.3323
  228MOL    C7345927   3.485   5.319   7.760  0.2758 -0.3769 -0.5965
  228MOL    C7445928   3.534   5.352   0.112 -0.4632  0.3743 -0.7906
  228MOL    C7545929   3.627   5.242   0.168 -0.3293 -0.3676 -0.8109
  228MOL    H7645930   3.450   5.400   7.696  0.2628  0.7146  0.7987
  228MOL    H7745931   3.575   5.288   7.705  0.4683 -0.3017 -0.3271
  228MOL    H7845932   3.592   5.444   0.106 -0.5025  0.3991 -0.7852
  228MOL    H7945933   3.454   5.384   0.178  1.7016  2.2776  1.0018
  228MOL    H8045934   3.695   5.204   0.092 -1.0440 -1.0784 -1.1090
  228MOL    H8145935   3.561   5.158   0.191 -0.6693 -0.1517 -0.9985
  228MOL    O8245936   3.704   5.293   0.274 -0.0871  0.4634  0.1945
  228MOL    C8345937   3.793   5.198   0.328  0.2343 -0.3730  0.1661
  228MOL    C8445938   3.871   5.276   0.438  0.1424  1.1811  0.1463
  228MOL    C8545939   3.960   5.181   0.522  0.3192  0.2481  0.5573
  228MOL    H8645940   3.874   5.172   0.259  1.3764  2.1772  0.4917
  228MOL    H8745941   3.735   5.115   0.369  2.0544 -1.6151  0.3237
  228MOL    H8845942   3.934   5.350   0.388 -0.4354  0.9491 -0.9260
  228MOL    H8945943   3.792   5.327   0.493 -0.9639 -0.5732  0.2325
  228MOL    H9045944   3.892   5.113   0.574 -1.1621  1.5038  0.3008
  228MOL    H9145945   4.009   5.247   0.594  0.3715  1.3712 -0.4824
  228MOL    O9245946   4.053   5.117   0.438 -0.4840 -0.2084  0.3212
  228MOL    C9345947   4.131   5.021   0.505  0.3641 -0.3633  0.2412
  228MOL    C9445948   4.208   4.946   0.390  0.2163 -0.3961  0.5898
  228MOL    C9545949   4.292   4.828   0.438  0.3571  0.2683 -0.0957
  228MOL    H9645950   4.089   4.942   0.567  2.0706 -0.2033  1.6524
  228MOL    H9745951   4.196   5.073   0.576  0.4999 -1.3843  0.8927
  228MOL    H9845952   4.128   4.918   0.321 -0.2630 -0.1891  1.0554
  228MOL    H9945953   4.276   5.012   0.337 -0.8224  0.5421  0.3935
  228MOL   H10045954   4.333   4.779   0.350  1.7422  1.9264 -0.4106
  228MOL   H10145955   4.230   4.749   0.481  0.8204  0.8610  1.7163
  228MOL   O10245956   4.393   4.881   0.519 -0.0803  0.0881  0.4526
  228MOL   C10345957   4.469   4.783   0.592 -0.0643 -0.4309 -0.4975
  228MOL   C10445958   4.587   4.851   0.662 -0.0707 -0.1409  0.0334
  228MOL   C10545959   4.557   4.983   0.742 -0.5320 -0.1287  0.5049
  228MOL   H10645960   4.510   4.703   0.529  1.8279 -0.4463  0.7133
  228MOL   H10745961   4.394   4.747   0.663  0.0151 -1.7242 -1.0410
  228MOL   H10845962   4.631   4.778   0.731 -1.3981 -0.6125  0.3901
  228MOL   H10945963   4.671   4.865   0.593  2.0131 -1.8837  2.1147
  228MOL   H11045964   4.533   5.062   0.670 -0.7528 -0.4855  0.1794
  228MOL   H11145965   4.653   5.013   0.783  0.5829 -2.8451 -0.0153
  228MOL   O11245966   4.479   4.978   0.859 -0.0078 -0.3841  0.6477
  228MOL   C11345967   4.353   5.040   0.840  0.3920 -0.2682 -0.3028
  228MOL   C11445968   4.274   5.057   0.968  0.3117 -0.0062 -0.4762
  228MOL   C11545969   4.137   5.110   0.960  0.4928  0.0726 -0.1547
  228MOL   H11645970   4.301   4.988   0.760 -0.4331  0.4414 -0.2410
  228MOL   H11745971   4.368   5.140   0.798 -3.5012  0.9157  0.8113
  228MOL   H11845972   4.274   4.955   1.007 -1.7532  0.5047  0.8758
  228MOL   H11945973   4.338   5.118   1.031  0.3171 -1.5195  1.0376
  228MOL   H12045974   4.088   5.124   1.057 -0.1508  3.4243 -0.8839
  228MOL   H12145975   4.077   5.044   0.898 -0.5026 -0.1642  1.0390
  228MOL   O12245976   4.142   5.239   0.896 -0.0544  0.0823  0.2764
  228MOL   C12345977   4.015   5.309   0.899  0.3140  0.9077 -0.3880
  228MOL   C12445978   4.026   5.447   0.833  0.3515 -0.1010 -0.3154
  228MOL   C12545979   4.024   5.561   0.936  0.8677 -0.0973 -0.1533
  228MOL   H12645980   3.977   5.318   1.001 -2.4286 -1.4167 -1.1394
  228MOL   H12745981   3.949   5.236   0.851 -2.1513  1.6453  1.7181
  228MOL   H12845982   4.119   5.442   0.777  0.7079 -1.1990  0.3610
  228MOL   H12945983   3.953   5.452   0.752  0.3050  1.7858 -0.1761
  228MOL   H13045984   4.058   5.655   0.892  1.6550 -0.6965 -0.8408
  228MOL   H13145985   4.104   5.550   1.010  2.3810 -0.5852 -1.8203
  228MOL   O13245986   3.899   5.580   0.993 -0.2876 -0.4552 -0.2421
  228MOL   C13345987   3.880   5.705   1.061  0.2489 -0.1533  0.4980
  228MOL   C13445988   3.726   5.736   1.061  0.5024 -0.0236  0.5242
  228MOL   C13545989   3.678   5.879   1.099  0.1720 -0.3547 -1.0704
  228MOL   H13645990   3.920   5.788   1.002 -1.8284 -0.6308 -1.6791
  228MOL   H13745991   3.931   5.704   1.157  0.4714  0.8008  0.3974
  228MOL   H13845992   3.690   5.715   0.960 -3.0547  0.6438  1.5783
  228MOL   H13945993   3.684   5.664   1.131 -0.3823 -1.2115 -1.1682
  228MOL   H14045994   3.619   5.932   1.025 -0.5332 -1.3689 -1.2472
  228MOL   H14145995   3.767   5.939   1.118 -0.2914  0.6926 -2.1326
  228MOL   O14245996   3.609   5.874   1.218 -0.3210  0.0779  0.3802
  228MOL   C14345997   3.566   5.999   1.272  0.2584  0.7338  0.5001
  228MOL   C14445998   3.461   5.980   1.376  0.2111  0.0539 -0.7241
  228MOL   C14545999   3.426   6.113   1.442 -0.0461  0.0974 -0.0856
  228MOL   H14646000   3.527   6.059   1.190  0.2954 -2.4632 -1.9970
  228MOL   H14746001   3.655   6.042   1.318  1.3321 -2.0675  1.1930
  228MOL   H14846002   3.375   5.944   1.320  1.1096 -1.1345 -1.3654
  228MOL   H14946003   3.503   5.914   1.452 -0.6053 -0.6545 -0.8774
  228MOL   H15046004   3.378   6.178   1.369 -0.4504  2.4625  2.2437
  228MOL   H15146005   3.508   6.173   1.482 -0.5487  0.1507  0.8848
  228MOL   O15246006   3.335   6.078   1.547 -0.3026  0.7754 -0.5251
  228MOL   C15346007   3.322   6.182   1.646  0.3131  0.0389 -0.3131
  228MOL   C15446008   3.228   6.135   1.756  0.7995 -0.2394  0.1162
  228MOL   C15546009   3.083   6.116   1.708 -0.2348  0.6714 -0.0987
  228MOL   H15646010   3.282   6.270   1.595  1.3566  0.2013 -0.8625
  228MOL   H15746011   3.421   6.204   1.685 -0.3685  0.7886  1.0445
  228MOL   H15846012   3.267   6.044   1.801  0.4027 -1.0105 -1.0810
  228MOL   H15946013   3.247   6.214   1.830 -0.5549  0.1437  0.0772
  228MOL   H16046014   3.093   6.054   1.619  1.6880 -2.4276  2.1706
  228MOL   H16146015   3.044   6.216   1.691  1.9444  2.1883  3.3860
  228MOL   O16246016   2.990   6.053   1.801  0.1577  0.4302  0.9003
  228MOL   C16346017   2.963   6.112   1.925  0.1813 -0.4287 -0.5984
  228MOL   C16446018   2.940   6.005   2.035 -0.2044  0.3509  0.1938
  228MOL   C16546019   2.826   5.898   2.004 -0.5092 -0.2073 -0.1810
  228MOL   H16646020   2.889   6.191   1.917  0.8441  0.1469 -1.0561
  228MOL   H16746021   3.051   6.162   1.966  1.9655 -3.1502 -0.9533
  228MOL   H16846022   3.032   5.949   2.052  0.1406  0.9842  0.4300
  228MOL   H16946023   2.912   6.052   2.129 -2.1390  1.3031 -0.8193
  228MOL   H17046024   2.790   5.902   1.901 -0.7261 -0.2424 -0.1069
  228MOL   H17146025   2.746   5.913   2.077 -2.1092 -1.2734 -1.6763
  228MOL   O17246026   2.878   5.770   2.018  0.4180 -0.1990 -0.7590
  228MOL   C17346027   2.778   5.673   1.974  0.4557 -0.4311  0.3405
  228MOL   C17446028   2.842   5.531   1.992 -0.0418  0.4404  0.6437
  228MOL   C17546029   2.757   5.407   1.958 -0.6161 -0.1566 -0.5276
  228MOL   H17646030   2.740   5.685   1.873  1.7359 -0.9442 -0.2117
  228MOL   H17746031   2.696   5.686   2.044 -0.0345  1.5273 -0.5574
  228MOL   H17846032   2.930   5.516   1.929 -0.0852  1.6356  0.2976
  228MOL   H17946033   2.871   5.520   2.096  0.4982  1.8412  0.6509
  228MOL   H18046034   2.693   5.438   1.875 -0.9599  0.0187 -0.1949
  228MOL   H18146035   2.692   5.385   2.042 -1.7860  0.6361 -1.2081
  228MOL   O18246036   2.822   5.295   1.904  0.5024  0.7213 -0.3117
  228MOL   C18346037   2.739   5.185   1.904  0.6733 -0.1021 -1.1970
  228MOL   C18446038   2.818   5.070   1.846  0.6691 -0.0175  0.0824
  228MOL   C18546039   2.739   4.942   1.806  0.4736  0.0464  0.2129
  228MOL   H18646040   2.649   5.197   1.843 -0.5027  0.3213  0.5787
  228MOL   H18746041   2.708   5.161   2.005 -0.2554 -0.5449 -1.5830
  228MOL   H18846042   2.871   5.112   1.761 -0.1016  0.3204 -0.2295
  228MOL   H18946043   2.893   5.050   1.922  0.1307  0.2900  0.7014
  228MOL   H19046044   2.809   4.875   1.756 -0.5423  1.9354 -3.9542
  228MOL   H19146045   2.662   4.971   1.735  0.3227 -0.8581  0.0007
  228MOL   O19246046   2.679   4.892   1.927  0.2104 -0.4498  0.1812
  228MOL   C19346047   2.626   4.762   1.929  0.5823  0.1631  0.0014
  228MOL   C19446048   2.521   4.755   2.039  0.4124  0.1953  0.3931
  228MOL   C19546049   2.569   4.774   2.183 -0.4870  0.4894 -0.2222
  228MOL   H19646050   2.704   4.689   1.948  1.4127  1.3977  1.4464
  228MOL   H19746051   2.591   4.744   1.827 -2.2724 -0.7698  1.0930
  228MOL   H19846052   2.456   4.841   2.021  1.8251  1.3803  0.8503
  228MOL   H19946053   2.453   4.672   2.021  0.1328  0.6077 -0.5135
  228MOL   H20046054   2.488   4.764   2.255  1.1832  2.7292  2.0710
  228MOL   H20146055   2.623   4.868   2.191  0.1860  0.0334  0.6610
  228MOL   H20246056   2.629   4.686   2.206 -0.3444  0.2470 -1.4879
  229MOL     O146057   2.025   4.757   5.478  0.1121  0.0395 -0.0409
  229MOL     C246058   1.957   4.853   5.555 -0.2746 -0.3680  0.5792
  229MOL     C346059   1.814   4.813   5.585 -0.8909  0.2337  0.0048
  229MOL     C446060   1.756   4.925   5.661 -0.6814 -0.2870  0.4141
  229MOL     H546061   1.952   4.942   5.493  1.3862 -0.6181  0.0794
  229MOL     H646062   2.008   4.882   5.647  1.6022  0.7882 -0.8125
  229MOL     H746063   1.753   4.800   5.495  1.3617 -0.3677 -1.4897
  229MOL     H846064   1.819   4.723   5.646  2.1598  0.5233  0.2832
  229MOL     H946065   1.771   5.015   5.602  0.6164 -1.8604 -1.7356
  229MOL    H1046066   1.815   4.937   5.752  0.3336  0.7765 -0.3633
  229MOL    H1146067   1.986   4.748   5.392  0.2284 -0.6697 -0.0250
  229MOL    O1246068   1.615   4.923   5.679 -0.4055  0.1098  0.4382
  229MOL    C1346069   1.543   5.012   5.768 -1.1500  0.6462 -0.1634
  229MOL    C1446070   1.401   4.952   5.790 -0.1526  0.4203 -0.0800
  229MOL    C1546071   1.307   5.039   5.871 -0.8742  0.1036  0.1765
  229MOL    H1646072   1.531   5.109   5.719  0.3473  1.9085  1.8707
  229MOL    H1746073   1.589   5.028   5.866  1.4080 -1.9843 -0.8632
  229MOL    H1846074   1.346   4.937   5.697  3.1358  0.7301 -2.1518
  229MOL    H1946075   1.399   4.851   5.832 -2.3240  0.5873  0.2955
  229MOL    H2046076   1.290   5.120   5.800 -0.2238 -0.4250 -0.5802
  229MOL    H2146077   1.351   5.086   5.960 -1.3707 -0.9335  0.9870
  229MOL    O2246078   1.184   4.978   5.907 -0.0697  0.2090  0.9198
  229MOL    C2346079   1.086   5.074   5.952 -0.0424 -0.0828  0.3597
  229MOL    C2446080   0.956   5.009   6.005 -0.4364 -0.2142  0.1656
  229MOL    C2546081   0.869   5.114   6.078 -0.8298 -0.0045 -0.3252
  229MOL    H2646082   1.060   5.136   5.867  1.2280  2.8387  2.0221
  229MOL    H2746083   1.135   5.128   6.033  1.8009 -0.0436 -0.7410
  229MOL    H2846084   0.908   4.963   5.919  0.1902  0.8239 -0.7434
  229MOL    H2946085   0.985   4.931   6.076 -2.7595 -1.4692 -0.2163
  229MOL    H3046086   0.830   5.192   6.014  0.7572  1.3218  0.2998
  229MOL    H3146087   0.925   5.163   6.158 -0.9412 -0.6389  0.1468
  229MOL    O3246088   0.756   5.059   6.147 -0.4013 -0.2750 -0.8119
  229MOL    C3346089   0.677   5.159   6.222 -0.9342  0.4144 -0.4506
  229MOL    C3446090   0.585   5.087   6.321 -0.4261  0.6197  0.3341
  229MOL    C3546091   0.453   5.053   6.265 -0.0670  0.2409 -0.1416
  229MOL    H3646092   0.627   5.219   6.146  0.3916  1.4454 -0.5317
  229MOL    H3746093   0.739   5.230   6.277  1.2425 -2.9822  1.6934
  229MOL    H3846094   0.630   4.995   6.358 -0.8256  0.5694  0.6972
  229MOL    H3946095   0.568   5.150   6.408  0.5587  1.3591  0.0009
  229MOL    H4046096   0.473   4.997   6.173  0.9638 -1.5824  1.1546
  229MOL    H4146097   0.398   5.144   6.242 -0.0828  0.3624  0.3833
  229MOL    O4246098   0.375   4.968   6.341  0.0223  0.0523 -1.0217
  229MOL    C4346099   0.387   4.833   6.306 -0.2627  0.2431  0.1011
  229MOL    C4446100   0.279   4.746   6.381 -0.4936 -0.3713 -0.1285
  229MOL    C4546101   0.259   4.611   6.322 -0.8558  0.2153  0.7412
  229MOL    H4646102   0.487   4.794   6.326 -1.4258 -1.3302  3.1695
  229MOL    H4746103   0.367   4.824   6.199  0.3533 -0.3301  0.0322
  229MOL    H4846104   0.315   4.729   6.482 -1.3461  2.7262  0.7552
  229MOL    H4946105   0.185   4.801   6.386 -0.3581 -0.3018  1.8790
  229MOL    H5046106   0.358   4.579   6.288  0.9157  4.2745  1.7979
  229MOL    H5146107   0.197   4.618   6.234  2.3529  1.1644 -1.5326
  229MOL    O5246108   0.198   4.522   6.426 -0.0003 -0.3451 -0.6310
  229MOL    C5346109   0.176   4.397   6.365  0.0529 -0.6648  0.5296
  229MOL    C5446110   0.109   4.303   6.465  0.8150 -0.5277 -0.4969
  229MOL    C5546111   7.749   4.345   6.489 -0.4033 -0.0963  0.1275
  229MOL    H5646112   0.271   4.348   6.347  0.1706 -0.1974 -0.1169
  229MOL    H5746113   0.119   4.407   6.273 -0.9349  1.0984  1.2874
  229MOL    H5846114   0.123   4.203   6.424 -2.3239 -0.5226 -1.7620
  229MOL    H5946115   0.171   4.309   6.554 -0.2554  0.8598  0.1838
  229MOL    H6046116   7.700   4.338   6.392  1.0235 -0.4081 -0.5924
  229MOL    H6146117   7.726   4.451   6.502 -1.9483 -0.6578  2.1359
  229MOL    O6246118   7.689   4.267   6.591 -0.3393 -0.6136 -0.3066
  229MOL    C6346119   7.551   4.304   6.598 -0.5205  0.6867 -0.1564
  229MOL    C6446120   7.474   4.246   6.715  0.5928 -0.0744  0.2438
  229MOL    C6546121   7.330   4.299   6.713  0.0752  0.3276  0.3829
  229MOL    H6646122   7.503   4.261   6.509  2.7313 -2.2901 -0.5829
  229MOL    H6746123   7.539   4.412   6.589  3.2534  1.2587  0.8532
  229MOL    H6846124   7.473   4.137   6.707  1.0225 -0.0076 -0.7792
  229MOL    H6946125   7.519   4.277   6.810 -3.7160  1.7743  1.8278
  229MOL    H7046126   7.276   4.284   6.619  0.1451 -2.2429  0.7243
  229MOL    H7146127   7.338   4.408   6.714 -0.2816  0.3647 -0.1715
  229MOL    O7246128   7.263   4.247   6.829  0.6184  0.6803  0.5295
  229MOL    C7346129   7.127   4.281   6.825 -0.4359 -0.3881  0.5288
  229MOL    C7446130   7.082   4.296   6.969  0.2484  0.8480 -0.3491
  229MOL    C7546131   6.949   4.372   6.987  0.2164  0.3631 -0.4901
  229MOL    H7646132   7.084   4.191   6.780 -0.3715 -0.7555  1.2029
  229MOL    H7746133   7.106   4.371   6.768  1.0337 -0.1440  0.3368
  229MOL    H7846134   7.068   4.197   7.013 -0.9709  1.1863  0.0579
  229MOL    H7946135   7.167   4.344   7.019  0.3277 -0.5269  0.8681
  229MOL    H8046136   6.867   4.307   6.955  0.3517 -0.5856  1.0704
  229MOL    H8146137   6.941   4.460   6.923 -0.3052  2.0428  1.8281
  229MOL    O8246138   6.935   4.403   7.129 -0.4014  0.4142  0.3677
  229MOL    C8346139   6.827   4.489   7.156  0.0662 -0.2269 -0.1794
  229MOL    C8446140   6.691   4.454   7.092  0.3309  0.0005  0.1518
  229MOL    C8546141   6.623   4.324   7.149 -0.3364 -0.9035  0.3205
  229MOL    H8646142   6.867   4.587   7.132 -1.1730  0.4444  0.4260
  229MOL    H8746143   6.824   4.501   7.265 -1.8397  1.5923 -0.3907
  229MOL    H8846144   6.622   4.537   7.103  0.4437 -0.0985  1.7365
  229MOL    H8946145   6.697   4.450   6.983 -0.6789 -0.2712  0.0937
  229MOL    H9046146   6.590   4.336   7.252 -0.7618  0.6875  0.0024
  229MOL    H9146147   6.694   4.241   7.143 -0.9200 -1.4141  0.3895
  229MOL    O9246148   6.505   4.299   7.072  0.3504 -0.4559 -0.5886
  229MOL    C9346149   6.423   4.202   7.125  0.2466  0.3360 -0.2530
  229MOL    C9446150   6.320   4.175   7.013 -0.7503 -0.0884 -0.1735
  229MOL    C9546151   6.226   4.059   7.023  0.1253  0.0215  0.2743
  229MOL    H9646152   6.368   4.237   7.212 -2.0100  0.0389 -1.5136
  229MOL    H9746153   6.460   4.101   7.143 -0.8327 -0.5606 -2.8344
  229MOL    H9846154   6.261   4.267   7.010  2.1103  1.8848  1.9245
  229MOL    H9946155   6.387   4.158   6.929 -0.9761  1.1299 -0.6107
  229MOL   H10046156   6.171   4.052   6.929 -1.6585 -1.3186  1.3665
  229MOL   H10146157   6.160   4.077   7.108  0.4308 -2.3029  1.0298
  229MOL   O10246158   6.311   3.944   7.038  0.2652  0.0823  0.0149
  229MOL   C10346159   6.239   3.824   7.037  0.1256 -0.5260 -0.5050
  229MOL   C10446160   6.153   3.790   7.164 -0.5539 -0.9286  0.8207
  229MOL   C10546161   6.070   3.655   7.148  0.5488  0.3551 -0.9816
  229MOL   H10646162   6.308   3.740   7.026  0.0625 -0.8574  1.4237
  229MOL   H10746163   6.178   3.823   6.947 -0.4294 -1.0626 -0.1268
  229MOL   H10846164   6.215   3.785   7.253  0.9680  1.4293 -0.0505
  229MOL   H10946165   6.084   3.871   7.186  0.3596 -0.0592  0.5652
  229MOL   H11046166   6.127   3.562   7.143 -0.6582 -0.4017 -0.6859
  229MOL   H11146167   6.013   3.657   7.055  2.3261 -3.0982 -2.2536
  229MOL   O11246168   5.983   3.638   7.260 -0.1568 -0.3361 -0.0581
  229MOL   C11346169   5.873   3.548   7.253  0.4027 -0.4051 -0.1547
  229MOL   C11446170   5.748   3.632   7.215  0.3004 -0.0953 -0.8135
  229MOL   C11546171   5.635   3.540   7.178 -0.7879  0.0532  0.1748
  229MOL   H11646172   5.863   3.511   7.355  3.4637  0.3196  0.4582
  229MOL   H11746173   5.886   3.466   7.182  0.3454 -0.4504 -0.1127
  229MOL   H11846174   5.710   3.690   7.299 -1.4223 -2.2347 -0.0798
  229MOL   H11946175   5.776   3.697   7.132  2.1901  0.3687  0.1737
  229MOL   H12046176   5.609   3.481   7.266  0.1877 -0.8199 -0.1046
  229MOL   H12146177   5.665   3.472   7.099  1.7920  0.8595  0.3947
  229MOL   O12246178   5.525   3.621   7.161  0.8081 -0.5582  0.1194
  229MOL   C12346179   5.507   3.677   7.029 -0.0715 -0.1292  0.3424
  229MOL   C12446180   5.398   3.791   7.039 -0.7602  0.0191 -0.0124
  229MOL   C12546181   5.383   3.873   6.909 -0.6223  0.6025 -0.3474
  229MOL   H12646182   5.466   3.605   6.958  0.2982  0.4030 -0.4301
  229MOL   H12746183   5.603   3.716   6.993 -0.6567  2.2477  1.2565
  229MOL   H12846184   5.309   3.741   7.076  0.4487 -1.6029  0.7352
  229MOL   H12946185   5.422   3.870   7.111 -1.0461 -0.4309  0.5711
  229MOL   H13046186   5.364   3.809   6.823 -0.3698  0.4926 -0.3185
  229MOL   H13146187   5.469   3.937   6.895  2.3087 -2.5182  2.4908
  229MOL   O13246188   5.265   3.949   6.928  0.4809  0.4767  0.1896
  229MOL   C13346189   5.155   3.928   6.832  0.0735  0.3365  0.1979
  229MOL   C13446190   5.042   4.022   6.859 -0.0855 -0.4035  0.5012
  229MOL   C13546191   4.918   3.993   6.772  0.2239 -0.6184  0.0706
  229MOL   H13646192   5.129   3.822   6.843  0.1436  0.3762  0.7689
  229MOL   H13746193   5.186   3.943   6.729 -0.9039 -0.2625 -0.1963
  229MOL   H13846194   5.016   4.008   6.964  0.6196 -2.6222  0.4068
  229MOL   H13946195   5.084   4.123   6.855 -0.6819 -0.1671  0.2043
  229MOL   H14046196   4.907   3.885   6.767 -0.6728 -0.5293  0.1519
  229MOL   H14146197   4.937   4.028   6.670 -0.6847 -1.5157 -0.4094
  229MOL   O14246198   4.803   4.049   6.828  0.7978 -0.0111  0.4604
  229MOL   C14346199   4.677   4.003   6.790 -0.2349  1.0461 -0.0757
  229MOL   C14446200   4.567   4.102   6.797 -0.1405  0.7794  0.2377
  229MOL   C14546201   4.431   4.042   6.797  0.7347  0.6007 -0.0118
  229MOL   H14646202   4.647   3.935   6.870  0.3543  2.3316  1.2746
  229MOL   H14746203   4.673   3.944   6.699 -0.0085  3.5198 -1.7301
  229MOL   H14846204   4.584   4.166   6.884  0.7717 -1.4230  1.7239
  229MOL   H14946205   4.565   4.169   6.711 -0.6548 -3.1753 -2.9620
  229MOL   H15046206   4.406   3.991   6.889  1.1838  2.1447  0.9879
  229MOL   H15146207   4.423   3.975   6.712 -0.2235 -0.0707  0.6132
  229MOL   O15246208   4.345   4.153   6.788  0.3513  0.3188  0.1839
  229MOL   C15346209   4.209   4.113   6.778  0.3333  0.4201 -0.9839
  229MOL   C15446210   4.118   4.233   6.809 -0.2962 -0.0837  0.8042
  229MOL   C15546211   3.969   4.179   6.831  0.0460 -0.4099  0.0111
  229MOL   H15646212   4.192   4.022   6.836 -1.3319  0.1971 -1.7706
  229MOL   H15746213   4.181   4.084   6.677  2.3103 -0.0390 -1.4016
  229MOL   H15846214   4.154   4.273   6.904 -0.8458  3.4078 -0.4106
  229MOL   H15946215   4.127   4.315   6.739 -2.4434 -0.5150 -0.0058
  229MOL   H16046216   3.984   4.105   6.910  1.8954 -1.1562 -1.0047
  229MOL   H16146217   3.934   4.132   6.739  4.2143 -0.0047 -1.8849
  229MOL   O16246218   3.874   4.284   6.861  0.3563 -0.3592 -0.3497
  229MOL   C16346219   3.738   4.265   6.875 -0.2342  0.5410 -0.0085
  229MOL   C16446220   3.676   4.398   6.923 -0.2213 -0.3325  0.5083
  229MOL   C16546221   3.550   4.369   7.001  0.5112  0.5826  0.6738
  229MOL   H16646222   3.725   4.193   6.955  0.3518 -2.1812 -2.2721
  229MOL   H16746223   3.692   4.230   6.782 -1.3112 -2.8048  1.6875
  229MOL   H16846224   3.738   4.442   7.001  0.2805 -0.6474  0.2934
  229MOL   H16946225   3.657   4.474   6.847 -0.1246  0.0481  0.8658
  229MOL   H17046226   3.511   4.462   7.045 -0.9772  0.3444 -0.0856
  229MOL   H17146227   3.567   4.311   7.091  1.4800  0.5145  0.4520
  229MOL   O17246228   3.467   4.313   6.898 -0.2547 -0.2956 -0.3061
  229MOL   C17346229   3.368   4.226   6.948  0.0863 -0.2351 -0.1117
  229MOL   C17446230   3.225   4.276   6.967 -0.0020  0.0261  0.0019
  229MOL   C17546231   3.112   4.167   6.978  0.3896 -0.2923 -0.5736
  229MOL   H17646232   3.403   4.162   7.029  0.1348 -2.1558 -1.6200
  229MOL   H17746233   3.366   4.147   6.873 -1.5684  1.2290 -1.6356
  229MOL   H17846234   3.225   4.331   7.061  1.7912  1.6898 -0.9520
  229MOL   H17946235   3.193   4.351   6.895  1.9790  1.1875  0.2889
  229MOL   H18046236   3.028   4.217   7.026 -1.3931 -1.9159 -1.9344
  229MOL   H18146237   3.143   4.088   7.046  0.1698  1.9734  2.2711
  229MOL   O18246238   3.066   4.116   6.846  0.2884 -0.2107 -0.1394
  229MOL   C18346239   2.940   4.040   6.851  0.1997  0.0777  0.6711
  229MOL   C18446240   2.909   4.005   6.705  0.6052  0.5741  0.3343
  229MOL   C18546241   2.883   4.122   6.607 -0.0631  0.1437 -0.0338
  229MOL   H18646242   2.874   4.112   6.900  0.5281  0.6337  0.3065
  229MOL   H18746243   2.962   3.955   6.915  3.2546  1.5622  1.7088
  229MOL   H18846244   2.987   3.939   6.667 -1.6590 -0.7138 -2.2187
  229MOL   H18946245   2.823   3.941   6.688  2.6780 -2.2690  0.1414
  229MOL   H19046246   2.978   4.173   6.594  0.1648  0.1366  1.4290
  229MOL   H19146247   2.815   4.196   6.650  0.0230 -0.0648  0.4629
  229MOL   O19246248   2.839   4.080   6.480 -0.7793  0.0848  0.4179
  229MOL   C19346249   2.816   4.187   6.385 -0.0072  0.0569  1.0418
  229MOL   C19446250   2.794   4.116   6.248 -0.1131  0.0892  0.2544
  229MOL   C19546251   2.657   4.054   6.243 -0.2263  0.4651  0.1291
  229MOL   H19646252   2.903   4.253   6.387 -0.7845  1.1109  0.4369
  229MOL   H19746253   2.729   4.247   6.411 -0.9649 -0.7232 -0.2643
  229MOL   H19846254   2.803   4.187   6.166  0.7534 -0.4600 -0.1334
  229MOL   H19946255   2.868   4.037   6.233 -0.8586 -0.7116  0.7816
  229MOL   H20046256   2.578   4.127   6.229 -1.2612 -0.6245  0.2103
  229MOL   H20146257   2.627   3.987   6.324  2.0519  1.0723  1.5396
  229MOL   H20246258   2.657   4.006   6.145  1.9294  1.6360 -0.4761
  230MOL     O146259   4.265   3.435   7.738  0.5827 -0.3215  0.2458
  230MOL     C246260   4.319   3.442   0.082 -0.4918  0.6131 -0.2336
  230MOL     C346261   4.243   3.544   0.161  0.1343  0.4913  0.0567
  230MOL     C446262   4.290   3.549   0.310  0.1569 -0.6727 -0.1025
  230MOL     H546263   4.425   3.466   0.076 -0.3694  0.0154 -0.6052
  230MOL     H646264   4.327   3.344   0.129 -0.1505  1.0855  0.6863
  230MOL     H746265   4.246   3.644   0.118  2.0861  0.0380 -0.9311
  230MOL     H846266   4.144   3.499   0.158  0.2624  0.2849 -1.9414
  230MOL     H946267   4.391   3.588   0.321 -0.8808  1.7360  1.5122
  230MOL    H1046268   4.289   3.448   0.351  0.3318 -0.4457  0.4611
  230MOL    H1146269   4.234   3.349   7.716 -0.0897 -0.1576  0.5448
  230MOL    O1246270   4.191   3.614   0.391  0.0844 -0.3210 -0.1350
  230MOL    C1346271   4.243   3.636   0.518  0.0652 -0.2050  0.3035
  230MOL    C1446272   4.130   3.712   0.586 -0.3060  0.1526  0.2216
  230MOL    C1546273   4.153   3.725   0.733  0.0001  0.0735 -0.6355
  230MOL    H1646274   4.328   3.704   0.514 -0.1246  0.0159 -0.0206
  230MOL    H1746275   4.270   3.546   0.574  3.1596 -1.0874 -2.4423
  230MOL    H1846276   4.121   3.808   0.535  1.5675  0.3973  0.3406
  230MOL    H1946277   4.031   3.668   0.570  0.7942 -1.6672 -1.8175
  230MOL    H2046278   4.109   3.810   0.785 -1.9900  0.2906 -2.6241
  230MOL    H2146279   4.259   3.722   0.758 -0.1994  0.6047  0.3100
  230MOL    O2246280   4.113   3.603   0.805 -0.4273 -0.4749  0.4361
  230MOL    C2346281   3.970   3.568   0.784 -0.5374  0.9061  0.2577
  230MOL    C2446282   3.920   3.493   0.909 -0.1646 -0.2058  0.4949
  230MOL    C2546283   3.778   3.443   0.880 -0.1211 -0.3538 -0.0017
  230MOL    H2646284   3.965   3.509   0.692 -1.5779  0.2938  0.7006
  230MOL    H2746285   3.906   3.656   0.774 -1.1809  0.7353  2.6743
  230MOL    H2846286   3.993   3.412   0.923 -0.0637 -0.1214  0.4576
  230MOL    H2946287   3.930   3.555   0.998 -0.7317 -1.9109  1.7919
  230MOL    H3046288   3.746   3.356   0.937 -2.3795  0.5275  0.1225
  230MOL    H3146289   3.765   3.390   0.786  0.9175  0.6252 -0.7173
  230MOL    O3246290   3.695   3.557   0.891  0.2765 -0.1897 -0.6785
  230MOL    C3346291   3.551   3.535   0.885 -0.6562  1.0507 -0.3155
  230MOL    C3446292   3.487   3.627   0.992  0.0379 -0.0561  0.1308
  230MOL    C3546293   3.344   3.660   0.964  0.9914  0.1090  0.2806
  230MOL    H3646294   3.518   3.434   0.911  1.0082 -0.0044 -2.1890
  230MOL    H3746295   3.507   3.539   0.786  2.0268  0.7568 -1.5703
  230MOL    H3846296   3.523   3.595   1.090 -2.3256 -0.2502  0.9726
  230MOL    H3946297   3.529   3.723   0.962 -0.6588  0.0719 -0.4555
  230MOL    H4046298   3.282   3.573   0.985  0.9739  0.2679  0.9160
  230MOL    H4146299   3.330   3.685   0.859  3.0158 -0.5268 -0.1656
  230MOL    O4246300   3.295   3.766   1.039  0.1794  0.3802  0.2285
  230MOL    C4346301   3.256   3.754   1.179  0.0029  0.3822 -0.5817
  230MOL    C4446302   3.102   3.743   1.181  0.7235 -0.2346  0.8173
  230MOL    C4546303   3.032   3.872   1.146  0.1323  0.3991 -1.5821
  230MOL    H4646304   3.287   3.848   1.225  0.5913 -0.0721 -0.0505
  230MOL    H4746305   3.310   3.675   1.231 -1.5661 -0.6411 -0.4509
  230MOL    H4846306   3.073   3.657   1.121 -0.9197  0.3345  0.7824
  230MOL    H4946307   3.069   3.719   1.282 -2.3929  0.5719  0.0264
  230MOL    H5046308   2.924   3.859   1.141  0.0503  1.3772 -2.7016
  230MOL    H5146309   3.066   3.914   1.051 -1.4345  2.7451 -1.1471
  230MOL    O5246310   3.055   3.974   1.249 -0.4679  0.6702 -0.3478
  230MOL    C5346311   2.991   4.096   1.211 -0.6429  0.4051 -0.0395
  230MOL    C5446312   2.988   4.193   1.324 -0.0355  1.0040  0.4745
  230MOL    C5546313   2.923   4.140   1.444 -0.4790 -0.2285  0.0173
  230MOL    H5646314   2.890   4.067   1.181 -0.6667  1.4936 -1.0678
  230MOL    H5746315   3.036   4.133   1.119 -2.4377 -1.4421 -1.7374
  230MOL    H5846316   3.087   4.229   1.353  2.3530 -3.6699 -1.3269
  230MOL    H5946317   2.929   4.278   1.289 -0.9490  0.1655 -0.0435
  230MOL    H6046318   2.981   4.063   1.495 -0.6620  0.6794  1.6323
  230MOL    H6146319   2.829   4.099   1.405  0.0781  0.2581 -1.9046
  230MOL    O6246320   2.898   4.243   1.540 -0.4259  0.7589  0.3068
  230MOL    C6346321   3.012   4.281   1.610  0.6407 -0.6103  0.1859
  230MOL    C6446322   2.969   4.350   1.739 -0.1320  0.3376 -0.4425
  230MOL    C6546323   2.926   4.243   1.843 -0.2735  0.1974 -0.1393
  230MOL    H6646324   3.051   4.356   1.541 -2.4787  1.5266  0.6100
  230MOL    H6746325   3.084   4.203   1.635 -0.6179 -1.5617  0.9054
  230MOL    H6846326   3.049   4.412   1.780 -1.5421  1.2720  0.9638
  230MOL    H6946327   2.889   4.423   1.724  0.7155  1.4628  0.4154
  230MOL    H7046328   2.996   4.160   1.848  0.1152  0.5906  1.2189
  230MOL    H7146329   2.829   4.203   1.814 -0.9410  1.7570 -0.1292
  230MOL    O7246330   2.935   4.280   1.979 -0.2649 -0.9510 -0.3478
  230MOL    C7346331   2.817   4.341   2.028 -0.6228 -0.1477  0.3261
  230MOL    C7446332   2.703   4.254   2.084  0.0013 -0.4577  0.1462
  230MOL    C7546333   2.565   4.326   2.085  0.3766 -0.3858 -0.3733
  230MOL    H7646334   2.769   4.405   1.953 -1.7574 -1.4788 -0.1002
  230MOL    H7746335   2.840   4.411   2.108 -0.0609 -0.7329  0.6856
  230MOL    H7846336   2.689   4.169   2.016  2.1131  0.1219 -1.0402
  230MOL    H7946337   2.725   4.214   2.183  2.2667 -0.1920 -0.2186
  230MOL    H8046338   2.534   4.345   1.983 -0.5838 -0.3577 -0.0793
  230MOL    H8146339   2.564   4.428   2.126  0.1761 -0.6300  0.2291
  230MOL    O8246340   2.464   4.255   2.148  0.5136 -0.1741 -0.5677
  230MOL    C8346341   2.335   4.292   2.129  0.6755  0.9907  0.8099
  230MOL    C8446342   2.256   4.214   2.231 -0.1457 -0.6683 -1.0295
  230MOL    C8546343   2.112   4.193   2.196 -0.1984 -0.3014 -0.5484
  230MOL    H8646344   2.299   4.278   2.027 -0.2120  1.5577  1.0396
  230MOL    H8746345   2.323   4.397   2.156  1.1614  1.1623  0.3748
  230MOL    H8846346   2.314   4.122   2.234  0.2348 -0.4049 -0.3530
  230MOL    H8946347   2.272   4.261   2.328  1.4528 -1.9964 -0.6343
  230MOL    H9046348   2.096   4.131   2.108  0.4743  0.2928 -1.0848
  230MOL    H9146349   2.072   4.287   2.159 -0.5030 -0.4848 -0.6865
  230MOL    O9246350   2.043   4.139   2.308 -0.1517  0.2670 -0.1075
  230MOL    C9346351   1.903   4.149   2.294  0.7398  0.3922 -0.1233
  230MOL    C9446352   1.843   4.103   2.426  0.8532  0.0332 -0.2029
  230MOL    C9546353   1.853   3.956   2.429 -0.2393 -0.3763 -0.2381
  230MOL    H9646354   1.867   4.085   2.213  1.6850  0.6641 -0.7579
  230MOL    H9746355   1.879   4.253   2.274  0.0046  0.0706 -0.9728
  230MOL    H9846356   1.900   4.141   2.510  0.8507 -0.5705  0.0728
  230MOL    H9946357   1.743   4.144   2.437  0.8104 -0.5142  1.5893
  230MOL   H10046358   1.949   3.918   2.394 -1.5069 -3.9405 -0.1605
  230MOL   H10146359   1.778   3.916   2.361  1.0544 -1.8861 -0.7997
  230MOL   O10246360   1.822   3.910   2.559 -0.7447 -0.1893  0.1983
  230MOL   C10346361   1.829   3.767   2.568  0.6313 -0.4904  0.1648
  230MOL   C10446362   1.775   3.713   2.700 -0.2426 -0.9195  0.4298
  230MOL   C10546363   1.783   3.560   2.709  0.4514  0.7649 -0.5419
  230MOL   H10646364   1.935   3.739   2.569  0.5696 -0.7155  0.3072
  230MOL   H10746365   1.771   3.732   2.483 -1.7386 -0.3806  1.6949
  230MOL   H10846366   1.833   3.765   2.776 -0.9994 -0.0475  0.4083
  230MOL   H10946367   1.667   3.728   2.697 -0.2585 -1.1682 -0.7879
  230MOL   H11046368   1.721   3.501   2.641  0.0885  0.0980  0.3586
  230MOL   H11146369   1.735   3.532   2.803  2.0627  1.4384  0.5061
  230MOL   O11246370   1.919   3.541   2.727  0.2248 -0.1283  0.0772
  230MOL   C11346371   1.960   3.412   2.718 -0.2177  0.7279 -0.0366
  230MOL   C11446372   2.118   3.395   2.714  0.0952  0.3430 -0.1994
  230MOL   C11546373   2.177   3.441   2.578  0.0917  0.2359  0.4264
  230MOL   H11646374   1.923   3.354   2.633  1.6183 -0.9347  0.2484
  230MOL   H11746375   1.916   3.354   2.800 -0.3212  0.6228 -0.1652
  230MOL   H11846376   2.145   3.459   2.798  0.1127 -1.1767  0.9778
  230MOL   H11946377   2.168   3.303   2.746  2.4242  1.4232 -0.6458
  230MOL   H12046378   2.161   3.549   2.576 -0.0823  0.1769 -3.0617
  230MOL   H12146379   2.140   3.399   2.485  0.0808 -0.8485  0.9059
  230MOL   O12246380   2.320   3.406   2.578  0.4187 -0.2979 -0.0382
  230MOL   C12346381   2.397   3.481   2.488  0.4532  0.6143  0.3893
  230MOL   C12446382   2.545   3.456   2.532 -0.1447  0.8271 -0.1615
  230MOL   C12546383   2.638   3.480   2.414 -0.3268  0.3349 -0.9438
  230MOL   H12646384   2.374   3.588   2.492  1.7501  0.8626  1.7814
  230MOL   H12746385   2.374   3.441   2.390  0.2569 -1.1131  1.1371
  230MOL   H12846386   2.579   3.529   2.606  0.8778 -1.5826  1.8168
  230MOL   H12946387   2.552   3.353   2.567 -3.3359  0.7911  0.4754
  230MOL   H13046388   2.619   3.414   2.329 -2.3081  0.3024 -0.5100
  230MOL   H13146389   2.736   3.441   2.439 -0.1467 -0.0067 -2.1256
  230MOL   O13246390   2.630   3.612   2.374 -0.1668  0.5350  0.0587
  230MOL   C13346391   2.750   3.675   2.407 -0.5272 -0.6276  0.5193
  230MOL   C13446392   2.720   3.829   2.394  0.8658 -0.2168  0.1233
  230MOL   C13546393   2.610   3.885   2.487  0.1724 -0.2864  0.4425
  230MOL   H13646394   2.825   3.642   2.335 -0.3433  1.1139 -0.1247
  230MOL   H13746395   2.779   3.663   2.511  1.0412  0.5829  0.2451
  230MOL   H13846396   2.797   3.902   2.418 -1.8167  3.2155 -1.3571
  230MOL   H13946397   2.692   3.860   2.294 -1.7068 -1.7162  0.3402
  230MOL   H14046398   2.640   3.882   2.591  0.5578 -2.9950  0.2966
  230MOL   H14146399   2.524   3.818   2.481 -0.7977  0.9473  0.3832
  230MOL   O14246400   2.552   4.007   2.426  0.1393  0.6114 -0.1396
  230MOL   C14346401   2.498   4.086   2.533 -0.1592  0.7256  0.2740
  230MOL   C14446402   2.602   4.187   2.583 -0.2345  0.5906  0.1719
  230MOL   C14546403   2.632   4.298   2.480 -0.3441  0.0238 -0.1129
  230MOL   H14646404   2.467   4.020   2.614  2.8210 -2.1932 -0.8455
  230MOL   H14746405   2.408   4.134   2.494 -1.6274 -2.4031 -0.3945
  230MOL   H14846406   2.565   4.234   2.674 -1.0661  4.6247 -2.1255
  230MOL   H14946407   2.697   4.141   2.611 -0.6452 -0.4516 -0.1545
  230MOL   H15046408   2.543   4.359   2.467  0.1039  0.4928 -1.0653
  230MOL   H15146409   2.637   4.244   2.385  0.6773 -1.1948  0.6193
  230MOL   O15246410   2.754   4.359   2.511 -0.4491  0.0085 -0.2782
  230MOL   C15346411   2.768   4.483   2.437  0.7162 -0.2329 -0.4663
  230MOL   C15446412   2.903   4.549   2.448 -0.5186 -0.6186 -0.3693
  230MOL   C15546413   2.930   4.662   2.346 -0.8746  0.4434  0.5602
  230MOL   H15646414   2.690   4.557   2.454  0.7968 -0.4294  0.7933
  230MOL   H15746415   2.762   4.461   2.330 -0.7264  1.1921 -0.6981
  230MOL   H15846416   2.916   4.577   2.552 -0.2072 -0.6556 -0.3974
  230MOL   H15946417   2.980   4.472   2.444 -1.1185 -1.4223  2.2813
  230MOL   H16046418   3.030   4.695   2.371  0.7113 -2.7169 -1.3201
  230MOL   H16146419   2.865   4.749   2.361  2.3960  2.7905  1.5802
  230MOL   O16246420   2.930   4.617   2.211 -0.3637  0.0009 -0.3609
  230MOL   C16346421   3.008   4.703   2.126  0.7285  0.5186  0.1207
  230MOL   C16446422   3.034   4.639   1.983  0.2996 -0.2219 -0.2233
  230MOL   C16546423   3.084   4.724   1.872  0.1341 -0.4105  0.3711
  230MOL   H16646424   3.105   4.733   2.165 -0.7169  2.6699  2.1408
  230MOL   H16746425   2.965   4.801   2.106  0.3580  0.1935 -0.7236
  230MOL   H16846426   3.099   4.552   1.993  1.2477  0.4617 -0.3654
  230MOL   H16946427   2.939   4.600   1.946  1.5269 -0.2776 -3.4884
  230MOL   H17046428   3.189   4.743   1.890  0.1957  0.4418 -0.8241
  230MOL   H17146429   3.034   4.821   1.875  0.2759 -0.3209 -0.1305
  230MOL   O17246430   3.079   4.667   1.743 -0.5677 -0.1717 -0.6552
  230MOL   C17346431   3.146   4.745   1.637  0.1995  0.2054 -0.2743
  230MOL   C17446432   3.124   4.653   1.518 -0.2686 -0.4205  0.0278
  230MOL   C17546433   3.165   4.714   1.385  0.2969 -0.6620 -0.5996
  230MOL   H17646434   3.250   4.764   1.659 -0.5395  1.1725  2.5930
  230MOL   H17746435   3.095   4.840   1.624 -1.4791 -0.9285 -2.4647
  230MOL   H17846436   3.184   4.563   1.531  0.9854  0.3135 -0.5691
  230MOL   H17946437   3.022   4.614   1.520 -0.4842 -0.0074 -2.1345
  230MOL   H18046438   3.269   4.745   1.393  1.0281 -3.0121 -0.3628
  230MOL   H18146439   3.111   4.806   1.361 -0.3684 -0.9822 -0.3483
  230MOL   O18246440   3.145   4.613   1.282  0.7537 -0.8602 -0.0320
  230MOL   C18346441   3.177   4.658   1.154 -0.0452 -0.1574 -0.5768
  230MOL   C18446442   3.140   4.546   1.052  0.2186 -0.2775 -0.3426
  230MOL   C18546443   2.993   4.544   1.009 -0.1553  0.3884 -0.0822
  230MOL   H18646444   3.283   4.684   1.157  0.3639 -1.7937 -0.4559
  230MOL   H18746445   3.124   4.752   1.142  2.2237  1.1870 -0.3216
  230MOL   H18846446   3.184   4.574   0.956 -0.2581  0.2984 -0.4050
  230MOL   H18946447   3.177   4.451   1.089  0.6631  0.8648  2.2573
  230MOL   H19046448   2.975   4.625   0.939  1.9710  2.7993  2.0779
  230MOL   H19146449   2.930   4.560   1.096 -0.4511  1.7757 -0.5410
  230MOL   O19246450   2.949   4.423   0.952  0.2013 -0.0980  0.2860
  230MOL   C19346451   2.811   4.410   0.934  0.1875 -0.4699 -0.6384
  230MOL   C19446452   2.783   4.304   0.819  0.3451  0.4344 -0.3124
  230MOL   C19546453   2.845   4.166   0.870 -0.6431 -0.8040 -0.1888
  230MOL   H19646454   2.777   4.504   0.890  0.3725 -0.1905 -0.1744
  230MOL   H19746455   2.770   4.373   1.028  0.9424  1.7015  0.5642
  230MOL   H19846456   2.675   4.291   0.812  0.5393 -1.4075 -0.0548
  230MOL   H19946457   2.806   4.331   0.716  2.9196  0.2735  0.2012
  230MOL   H20046458   2.804   4.078   0.819  0.3492 -0.8432 -0.9349
  230MOL   H20146459   2.838   4.159   0.978  0.3779  0.1782 -0.0524
  230MOL   H20246460   2.952   4.172   0.853 -0.9537  0.8988 -1.7209
  231MOL     O146461   7.398   1.804   5.519  0.5382 -0.0208 -0.0428
  231MOL     C246462   7.537   1.769   5.539 -0.4236 -0.0140 -0.4099
  231MOL     C346463   7.543   1.618   5.576 -0.1080  0.1574 -1.0853
  231MOL     C446464   7.680   1.546   5.553  0.0613  0.9039 -0.0573
  231MOL     H546465   7.593   1.832   5.608  0.5720 -0.3432 -0.9120
  231MOL     H646466   7.585   1.782   5.442  3.2005  0.8188  1.4348
  231MOL     H746467   7.515   1.623   5.681 -1.8045  4.2377 -1.6604
  231MOL     H846468   7.458   1.568   5.531  0.8515 -3.1466  0.5933
  231MOL     H946469   7.766   1.607   5.581  0.0101  0.5625  0.8898
  231MOL    H1046470   7.699   1.533   5.447  0.2028  1.9815 -0.1645
  231MOL    H1146471   7.396   1.895   5.492 -1.2235 -0.4412 -1.4183
  231MOL    O1246472   7.671   1.415   5.615  0.2063 -0.7166  0.3943
  231MOL    C1346473   7.783   1.337   5.585  0.3366  0.2655  0.2047
  231MOL    C1446474   7.785   1.218   5.674  0.0060  0.1923  0.4659
  231MOL    C1546475   0.130   1.141   5.691  0.4132 -0.5056 -0.5787
  231MOL    H1646476   0.088   1.389   5.607 -0.3935  1.1302  1.3136
  231MOL    H1746477   7.779   1.310   5.480 -1.4127 -1.3071  0.6417
  231MOL    H1846478   7.775   1.256   5.776 -0.1293  0.6105  0.2944
  231MOL    H1946479   7.698   1.154   5.661  0.6312 -0.4820 -0.4201
  231MOL    H2046480   0.228   1.188   5.702  1.1534 -1.4239 -2.9550
  231MOL    H2146481   0.153   1.089   5.598 -1.1425  0.0633 -1.2986
  231MOL    O2246482   0.104   1.029   5.775 -0.2898  0.6956 -0.0763
  231MOL    C2346483   0.219   0.936   5.779 -0.5938 -0.2272 -0.3535
  231MOL    C2446484   0.186   0.820   5.872 -0.2649 -0.1754  0.2313
  231MOL    C2546485   0.179   0.878   6.014 -0.1914  0.5129 -0.3057
  231MOL    H2646486   0.304   0.996   5.811 -1.6976  0.9183  0.4530
  231MOL    H2746487   0.243   0.902   5.679 -1.3859 -0.2401 -0.5407
  231MOL    H2846488   0.089   0.772   5.859  0.0533 -1.0398  0.9629
  231MOL    H2946489   0.261   0.740   5.873  1.7447  1.6584  2.0168
  231MOL    H3046490   0.088   0.938   6.020  0.0405  0.7663  0.9314
  231MOL    H3146491   0.274   0.924   6.042 -0.0897 -0.2743  0.6524
  231MOL    O3246492   0.153   0.764   6.105  0.3211 -0.1538 -0.6648
  231MOL    C3346493   0.135   0.813   6.239  0.5822  0.8479 -0.3038
  231MOL    C3446494   0.125   0.687   6.326  0.3660 -0.6592  0.5867
  231MOL    C3546495   0.074   0.708   6.468 -0.1027 -0.0646 -0.0904
  231MOL    H3646496   0.038   0.863   6.247  1.2372  2.1169 -0.1995
  231MOL    H3746497   0.222   0.874   6.265  0.9783 -0.0207  0.4151
  231MOL    H3846498   0.069   0.606   6.281 -1.7999  1.3809 -0.4660
  231MOL    H3946499   0.219   0.632   6.335 -0.6261 -2.2835  1.0672
  231MOL    H4046500   7.760   0.747   6.467  0.2141  0.7894 -0.9229
  231MOL    H4146501   0.139   0.780   6.518  0.6034  0.0945 -1.2161
  231MOL    O4246502   0.088   0.582   6.537 -0.0047  0.2711  0.6703
  231MOL    C4346503   0.075   0.598   6.678 -0.6854 -0.3951  0.0695
  231MOL    C4446504   0.083   0.462   6.744  0.3002 -0.4298  0.6010
  231MOL    C4546505   0.214   0.394   6.698 -0.5065 -0.0969 -0.2712
  231MOL    H4646506   7.766   0.647   6.683  0.1252  1.4041 -0.9023
  231MOL    H4746507   0.149   0.668   6.719 -1.7443  0.6619  0.2058
  231MOL    H4846508   0.082   0.469   6.853 -0.6983  1.1822  0.4935
  231MOL    H4946509   0.004   0.390   6.724 -0.8225  0.7456  0.7825
  231MOL    H5046510   0.295   0.468   6.697 -0.5214 -0.0690 -2.1045
  231MOL    H5146511   0.203   0.353   6.598  0.9104 -0.7415 -0.1818
  231MOL    O5246512   0.256   0.303   6.799 -0.1430  0.1454 -1.0470
  231MOL    C5346513   0.360   0.216   6.775 -0.9989  0.0310 -0.1406
  231MOL    C5446514   0.372   0.141   6.903  0.0301 -0.0204  0.1423
  231MOL    C5546515   0.481   0.032   6.891 -0.6087  0.3513  0.0889
  231MOL    H5646516   0.448   0.278   6.758 -1.0174  0.0138 -0.2983
  231MOL    H5746517   0.338   0.149   6.692 -1.4150 -0.6292  0.4906
  231MOL    H5846518   0.387   0.210   6.987  1.3698 -0.8461  0.5938
  231MOL    H5946519   0.276   0.097   6.929  0.8865 -0.2565  3.0687
  231MOL    H6046520   0.459   7.752   6.809  0.1514  1.3856 -0.9894
  231MOL    H6146521   0.472   7.756   6.978  0.2285  0.7852  0.5001
  231MOL    O6246522   0.602   0.098   6.871 -0.2259 -0.1266  1.4723
  231MOL    C6346523   0.715   0.024   6.821  1.0200 -0.8563  0.3342
  231MOL    C6446524   0.812   0.145   6.789 -0.4993 -0.1126 -0.0664
  231MOL    C6546525   0.949   0.101   6.734  0.7610  0.4201 -0.1610
  231MOL    H6646526   0.697   7.753   6.731  1.8795  1.9367 -1.7797
  231MOL    H6746527   0.745   7.745   6.901  0.7588  0.7324  1.8005
  231MOL    H6846528   0.773   0.219   6.718 -0.5750  0.0099  0.1008
  231MOL    H6946529   0.823   0.195   6.885  1.1127  0.7027 -0.6617
  231MOL    H7046530   1.022   0.175   6.701  0.8552  0.5270  0.2880
  231MOL    H7146531   0.932   0.036   6.648 -3.1482  0.1136  0.7290
  231MOL    O7246532   1.014   0.026   6.837  0.4061 -0.0013  0.2569
  231MOL    C7346533   1.131   7.747   6.801 -0.7168 -0.5253 -0.3636
  231MOL    C7446534   1.185   7.677   6.920 -0.8808  0.4146 -0.0873
  231MOL    C7546535   1.254   7.759   7.029  0.7851 -0.2510 -0.1670
  231MOL    H7646536   1.205   0.020   6.749 -0.0960 -1.2739 -0.3623
  231MOL    H7746537   1.113   7.671   6.725 -0.2552 -0.1402 -0.8685
  231MOL    H7846538   1.105   7.614   6.959 -1.6948 -0.3023 -2.7674
  231MOL    H7946539   1.255   7.606   6.878  0.7155  2.7544 -1.5344
  231MOL    H8046540   1.180   0.036   7.074  1.2912  2.4393 -3.0986
  231MOL    H8146541   1.332   0.041   7.003  0.7891  0.4194  1.5888
  231MOL    O8246542   1.320   7.672   7.116 -0.1712 -0.3062 -0.0809
  231MOL    C8346543   1.390   7.739   7.226  0.0138 -0.2932 -0.1111
  231MOL    C8446544   1.488   7.659   7.304 -0.8432  0.1475  0.6647
  231MOL    C8546545   1.573   7.748   7.395 -0.0917 -0.0366  0.1788
  231MOL    H8646546   1.320   7.784   7.296  1.4766  3.0082 -0.6548
  231MOL    H8746547   1.444   0.029   7.171 -3.4131  1.8380 -0.5859
  231MOL    H8846548   1.441   7.575   7.355 -1.1007 -3.2574 -4.7098
  231MOL    H8946549   1.549   7.606   7.230  1.2264 -1.1127  3.2146
  231MOL    H9046550   1.606   7.689   7.481 -2.7061  1.2145  2.1283
  231MOL    H9146551   1.524   0.030   7.463 -2.0987 -0.2420 -1.0112
  231MOL    O9246552   1.671   0.030   7.326  0.1576 -0.7652  0.2174
  231MOL    C9346553   1.747   0.125   7.401  0.4920  0.8244 -0.0967
  231MOL    C9446554   1.877   0.163   7.326  0.2751 -0.4194  0.8499
  231MOL    C9546555   1.985   0.054   7.345  0.4522  0.2334  0.0193
  231MOL    H9646556   1.768   0.077   7.496 -0.7883  1.2007  0.3797
  231MOL    H9746557   1.687   0.212   7.426 -0.3221  0.4255 -0.6362
  231MOL    H9846558   1.856   0.177   7.220  1.7970 -0.6753  0.5085
  231MOL    H9946559   1.904   0.266   7.347 -2.1290  0.3524  0.3569
  231MOL   H10046560   2.049   0.055   7.257 -1.3553 -3.6314 -1.4386
  231MOL   H10146561   1.941   7.743   7.357  1.1785 -0.0926 -0.0160
  231MOL   O10246562   2.073   0.096   7.449 -0.3304 -0.2572 -0.0797
  231MOL   C10346563   2.205   0.053   7.424 -0.5578 -0.3682 -0.5194
  231MOL   C10446564   2.273   0.087   7.559 -0.0177  0.1524  0.5163
  231MOL   C10546565   2.415   0.025   7.577  0.0566 -0.5011 -0.7701
  231MOL   H10646566   2.254   0.108   7.343 -0.2880 -1.3859 -1.0535
  231MOL   H10746567   2.210   7.734   7.405  0.0661 -0.3906 -0.2414
  231MOL   H10846568   2.281   0.192   7.588  0.4549  0.5739 -1.0562
  231MOL   H10946569   2.207   0.043   7.633 -1.5285 -0.9448 -1.4433
  231MOL   H11046570   2.488   0.066   7.508 -0.6315 -1.4469 -2.0903
  231MOL   H11146571   2.403   7.707   7.557  0.6307 -0.5055 -1.1056
  231MOL   O11246572   2.461   0.035   7.712 -0.3450  0.1841  0.5991
  231MOL   C11346573   2.577   7.746   7.741  0.2104  0.7595 -0.1023
  231MOL   C11446574   2.602   7.788   0.091  0.0019  0.4262  0.3612
  231MOL   C11546575   2.744   7.771   0.135 -0.1149 -0.6641 -0.0956
  231MOL   H11646576   2.660   7.766   7.674 -0.1600 -0.3002 -0.9019
  231MOL   H11746577   2.553   7.640   7.731 -1.1378  1.0624 -0.2362
  231MOL   H11846578   2.578   0.104   0.112  0.6823  0.3777  1.4156
  231MOL   H11946579   2.537   7.729   0.157  2.6170  1.3368  3.9328
  231MOL   H12046580   2.765   0.032   0.230 -2.0404  1.3985 -0.7174
  231MOL   H12146581   2.808   0.038   0.066 -0.8356 -0.1632 -0.3614
  231MOL   O12246582   2.778   7.629   0.136  0.4881 -0.0051  0.3562
  231MOL   C12346583   2.922   7.609   0.127 -0.1318 -0.7565 -0.7193
  231MOL   C12446584   2.932   7.459   0.117 -0.3204 -0.1751  0.4317
  231MOL   C12546585   3.072   7.408   0.099  0.0019  0.0221  0.0860
  231MOL   H12646586   2.983   7.643   0.210 -2.7589 -0.8329  1.3253
  231MOL   H12746587   2.954   7.655   0.034  1.9155  1.8632  1.1940
  231MOL   H12846588   2.887   7.407   0.202  1.1491 -2.0682  0.0723
  231MOL   H12946589   2.880   7.434   0.024  1.4281 -1.2501 -0.2838
  231MOL   H13046590   3.081   7.300   0.087  1.9430  0.0800  0.8631
  231MOL   H13146591   3.138   7.439   0.180 -0.0185  0.4485 -0.0601
  231MOL   O13246592   3.117   7.458   7.765 -0.0602 -0.1365  0.1325
  231MOL   C13346593   3.246   7.406   7.729  1.1520  0.1329 -0.2169
  231MOL   C13446594   3.311   7.478   7.617 -0.0498 -0.0569 -0.0969
  231MOL   C13546595   3.252   7.452   7.479  0.5395  0.2910 -0.1302
  231MOL   H13646596   3.228   7.303   7.701 -1.5124  0.7887 -1.0441
  231MOL   H13746597   3.317   7.416   0.023 -0.3736  0.9764  1.0244
  231MOL   H13846598   3.319   7.585   7.633  0.9167  0.0910 -1.4624
  231MOL   H13946599   3.416   7.446   7.613 -0.0378 -0.0812  0.3767
  231MOL   H14046600   3.163   7.514   7.474 -1.0348 -1.8217  0.9868
  231MOL   H14146601   3.225   7.347   7.478  1.5764  0.0218 -1.1808
  231MOL   O14246602   3.343   7.487   7.377  0.5827 -0.2701  0.1517
  231MOL   C14346603   3.286   7.472   7.248  0.6474 -0.4586  0.0345
  231MOL   C14446604   3.195   7.595   7.201  0.4860  0.4325  0.5376
  231MOL   C14546605   3.129   7.579   7.067  0.4427  0.1289 -0.2558
  231MOL   H14646606   3.228   7.380   7.232  1.1586 -0.5611 -1.3176
  231MOL   H14746607   3.373   7.466   7.182  0.2395 -2.0897 -0.4017
  231MOL   H14846608   3.119   7.602   7.280 -0.1015  0.5741 -0.0342
  231MOL   H14946609   3.251   7.688   7.211 -0.5516  1.3145 -1.4409
  231MOL   H15046610   3.210   7.552   7.000  2.3296 -0.7602  2.3370
  231MOL   H15146611   3.080   7.661   7.014  0.2681  0.0390 -0.2339
  231MOL   O15246612   3.042   7.467   7.069  0.0200 -0.3385 -0.1084
  231MOL   C15346613   2.942   7.467   6.974  0.2197 -0.2009  0.3343
  231MOL   C15446614   2.858   7.338   6.969 -0.0048 -0.3688  0.4835
  231MOL   C15546615   2.727   7.354   6.879 -0.3541  0.7661 -0.2025
  231MOL   H15646616   2.976   7.474   6.870 -1.7793  0.8224 -0.2735
  231MOL   H15746617   2.882   7.555   6.996  0.1918 -0.4247  1.1434
  231MOL   H15846618   2.907   7.245   6.939  0.3604 -0.0759  0.1704
  231MOL   H15946619   2.825   7.303   7.067 -2.2941 -0.3077 -0.2449
  231MOL   H16046620   2.742   7.404   6.783 -3.5067  0.6783 -0.7830
  231MOL   H16146621   2.653   7.408   6.937 -1.6055 -0.1246 -0.9657
  231MOL   O16246622   2.674   7.223   6.849  0.0792  0.1372 -0.1221
  231MOL   C16346623   2.632   7.150   6.962  0.2989 -0.0289  0.6372
  231MOL   C16446624   2.623   6.999   6.929  0.4994 -0.1232  0.2153
  231MOL   C16546625   2.572   6.919   7.046  0.4312  0.4320 -0.2041
  231MOL   H16646626   2.539   7.196   6.998 -0.5248 -1.1373 -0.0558
  231MOL   H16746627   2.702   7.159   7.045  0.1436  1.3263  0.6349
  231MOL   H16846628   2.567   6.989   6.836  0.8444  0.7172 -0.0885
  231MOL   H16946629   2.719   6.957   6.900  0.6262  1.1001 -1.2071
  231MOL   H17046630   2.532   6.824   7.010  2.3498 -0.8609  1.0245
  231MOL   H17146631   2.502   6.976   7.107  1.0757  0.5568  0.4216
  231MOL   O17246632   2.673   6.893   7.143  0.5163  0.8406 -0.5893
  231MOL   C17346633   2.638   6.806   7.254  0.0694 -0.1887 -1.1252
  231MOL   C17446634   2.750   6.815   7.359  0.2031  0.1678  0.2003
  231MOL   C17546635   2.730   6.715   7.480 -0.4084 -0.6588  0.8143
  231MOL   H17646636   2.611   6.706   7.221 -3.0174  0.7832 -1.7085
  231MOL   H17746637   2.545   6.841   7.299  0.2856 -2.7951  1.4888
  231MOL   H17846638   2.848   6.788   7.320 -0.9557 -1.9577 -1.3315
  231MOL   H17946639   2.763   6.916   7.399 -3.7228  1.2219 -0.9678
  231MOL   H18046640   2.823   6.704   7.535  0.0378 -1.4509 -0.0843
  231MOL   H18146641   2.704   6.615   7.445  4.1490 -1.0994 -1.6620
  231MOL   O18246642   2.643   6.772   7.570  0.3907  0.7318 -0.6484
  231MOL   C18346643   2.628   6.686   7.677  0.1559 -0.1070  0.2557
  231MOL   C18446644   2.548   6.765   7.773  0.7976  0.3337 -0.0691
  231MOL   C18546645   2.489   6.687   0.107  0.1416 -0.5071  0.3586
  231MOL   H18646646   2.725   6.654   7.715  0.8202  2.1208  0.4804
  231MOL   H18746647   2.575   6.595   7.649 -0.1947  0.0210  0.5108
  231MOL   H18846648   2.611   6.848   0.019 -0.4931  0.3266  2.4197
  231MOL   H18946649   2.465   6.815   7.723  0.0370 -2.1658 -1.3920
  231MOL   H19046650   2.565   6.640   0.171  1.4779  3.0423  1.4780
  231MOL   H19146651   2.419   6.607   0.081 -2.9147  1.8320  1.2096
  231MOL   O19246652   2.407   6.788   0.181 -0.1301  0.5295 -0.5632
  231MOL   C19346653   2.343   6.729   0.293 -0.3951  0.1718 -0.0398
  231MOL   C19446654   2.256   6.841   0.369  0.4635  0.8838 -0.2437
  231MOL   C19546655   2.342   6.945   0.433  0.0341  0.4710 -0.0047
  231MOL   H19646656   2.432   6.700   0.348 -0.7834 -2.7957 -0.9219
  231MOL   H19746657   2.281   6.643   0.269 -0.6772  0.4745 -0.4128
  231MOL   H19846658   2.193   6.886   0.292 -0.1044 -1.6977 -1.3341
  231MOL   H19946659   2.197   6.787   0.444  1.1295  1.2342  0.5402
  231MOL   H20046660   2.438   6.899   0.455  0.2522  1.3757  0.9661
  231MOL   H20146661   2.302   6.988   0.525 -1.7186 -0.8163 -0.1428
  231MOL   H20246662   2.359   7.026   0.363  1.6416  0.9635  0.9239
  232MOL     O146663   4.432   3.053   1.922  0.2262  0.4116 -0.5490
  232MOL     C246664   4.484   2.939   1.986 -0.1623 -0.0910 -1.0772
  232MOL     C346665   4.635   2.947   1.995  0.0446  0.2513 -0.3060
  232MOL     C446666   4.690   2.818   2.039 -0.1954 -0.2015 -0.7504
  232MOL     H546667   4.455   2.849   1.931  1.0054 -0.6250 -0.8541
  232MOL     H646668   4.445   2.925   2.087 -0.0045 -0.7014 -1.0972
  232MOL     H746669   4.676   2.972   1.897 -1.1254 -0.3230 -0.9472
  232MOL     H846670   4.672   3.021   2.066 -0.6558 -0.3406  0.6732
  232MOL     H946671   4.651   2.740   1.973 -2.5467  1.2756 -1.1558
  232MOL    H1046672   4.648   2.794   2.137  1.4621  0.6589  0.2064
  232MOL    H1146673   4.340   3.033   1.920  0.3051 -0.2614  1.6939
  232MOL    O1246674   4.830   2.811   2.045  0.4374 -0.5189  0.6208
  232MOL    C1346675   4.895   2.799   1.920  0.0751 -0.1263  0.1592
  232MOL    C1446676   5.050   2.820   1.939 -0.3598 -0.7852  0.2284
  232MOL    C1546677   5.130   2.805   1.811  0.1096  0.1098  0.6850
  232MOL    H1646678   4.863   2.881   1.855 -0.9050 -0.5974  0.0467
  232MOL    H1746679   4.873   2.699   1.884 -1.0277 -0.3178  1.3247
  232MOL    H1846680   5.066   2.919   1.983  3.1763 -1.0525 -0.3211
  232MOL    H1946681   5.086   2.747   2.011  2.4941 -0.5928 -0.9419
  232MOL    H2046682   5.115   2.701   1.783 -0.1806  0.4825 -0.5569
  232MOL    H2146683   5.233   2.832   1.837  0.9028 -0.0969 -2.1489
  232MOL    O2246684   5.089   2.893   1.707 -0.0127 -0.0371 -0.2561
  232MOL    C2346685   5.181   2.880   1.600 -0.2989  0.1274 -0.6679
  232MOL    C2446686   5.116   2.928   1.476 -0.2042 -0.8870  0.1226
  232MOL    C2546687   5.064   3.073   1.461 -0.1493  0.1833 -0.4757
  232MOL    H2646688   5.205   2.776   1.575 -0.5089  0.3518 -1.8660
  232MOL    H2746689   5.277   2.925   1.626 -0.1523 -0.3151 -0.4387
  232MOL    H2846690   5.184   2.891   1.399  0.5998  1.5184 -0.3571
  232MOL    H2946691   5.027   2.866   1.469 -1.1742  0.5500 -0.4619
  232MOL    H3046692   5.024   3.106   1.556  1.5969  1.3811 -0.1364
  232MOL    H3146693   4.979   3.069   1.392 -0.4065 -1.7358 -0.0868
  232MOL    O3246694   5.171   3.152   1.407 -0.2475  0.4459  0.0643
  232MOL    C3346695   5.129   3.286   1.376 -1.4655 -0.0200 -0.3887
  232MOL    C3446696   5.239   3.348   1.286  0.3664 -0.0036  0.4952
  232MOL    C3546697   5.193   3.455   1.186  0.6437  0.2040 -0.1576
  232MOL    H3646698   5.113   3.343   1.468 -2.9365 -2.2526  0.7897
  232MOL    H3746699   5.036   3.287   1.319 -0.9720 -1.9095 -1.2562
  232MOL    H3846700   5.330   3.377   1.339 -0.0321 -0.4005  1.4189
  232MOL    H3946701   5.272   3.262   1.228  1.4195  0.7183  0.0255
  232MOL    H4046702   5.141   3.539   1.233  2.4998 -0.3215  2.8966
  232MOL    H4146703   5.131   3.406   1.111 -0.2081  0.0245  0.6578
  232MOL    O4246704   5.291   3.519   1.106  0.3335 -0.2855 -0.0105
  232MOL    C4346705   5.239   3.616   1.007  0.1656  0.5538 -0.7273
  232MOL    C4446706   5.359   3.688   0.934 -0.2555 -0.0919  0.2923
  232MOL    C4546707   5.409   3.611   0.809 -0.1367 -0.2097  0.1325
  232MOL    H4646708   5.172   3.691   1.050 -2.3433 -1.1671 -1.4982
  232MOL    H4746709   5.175   3.564   0.935  1.2131 -0.1117 -1.1981
  232MOL    H4846710   5.346   3.792   0.906  1.0196  0.3117  1.1540
  232MOL    H4946711   5.448   3.690   0.997 -1.9271  0.1059  2.7298
  232MOL    H5046712   5.409   3.505   0.834  1.9950 -0.2039  0.2458
  232MOL    H5146713   5.509   3.643   0.781 -1.6290  1.4957 -3.6811
  232MOL    O5246714   5.334   3.647   0.700 -0.4108 -0.0596 -0.0006
  232MOL    C5346715   5.369   3.585   0.584  0.2895  0.9093  0.0117
  232MOL    C5446716   5.277   3.621   0.464 -0.2864 -0.3154  0.4898
  232MOL    C5546717   5.120   3.595   0.488 -0.3755 -0.4074 -0.3238
  232MOL    H5646718   5.357   3.477   0.593 -2.8722  1.3166  1.2784
  232MOL    H5746719   5.474   3.598   0.558 -0.4349  0.3033 -3.3818
  232MOL    H5846720   5.280   3.726   0.434 -0.2604  0.0163  1.6520
  232MOL    H5946721   5.312   3.569   0.375  1.4375 -1.4338  1.8121
  232MOL    H6046722   5.094   3.630   0.588 -0.0125  0.4598 -0.5291
  232MOL    H6146723   5.086   3.492   0.488  2.4731 -1.4085 -1.7543
  232MOL    O6246724   5.049   3.668   0.392  0.2014  0.1876  0.2907
  232MOL    C6346725   5.017   3.608   0.265  0.0802 -0.6205  0.1861
  232MOL    C6446726   5.046   3.714   0.158 -0.3209  0.3790  0.0125
  232MOL    C6546727   5.008   3.667   0.019 -0.1366 -0.3275  0.1122
  232MOL    H6646728   4.911   3.585   0.264  0.1290 -0.8260 -1.6237
  232MOL    H6746729   5.068   3.512   0.256  2.0833  0.4743 -0.3148
  232MOL    H6846730   4.982   3.801   0.173  1.4649  1.4664  1.4760
  232MOL    H6946731   5.152   3.739   0.167 -0.3619  0.2278  0.8664
  232MOL    H7046732   4.903   3.640   0.006 -0.4063  1.4791 -1.6072
  232MOL    H7146733   5.071   3.588   7.768  0.7529  1.0796 -1.3361
  232MOL    O7246734   5.026   3.781   7.725  0.2351 -0.1165 -0.0694
  232MOL    C7346735   5.012   3.764   7.584 -0.2615 -0.2328  0.3588
  232MOL    C7446736   5.027   3.897   7.521 -0.1496  0.5350 -0.0251
  232MOL    C7546737   5.018   3.888   7.368 -0.1209 -0.6106 -0.5399
  232MOL    H7646738   4.909   3.733   7.565 -0.4846  1.0929 -0.6962
  232MOL    H7746739   5.086   3.695   7.544 -0.1089  0.9162 -1.3967
  232MOL    H7846740   4.944   3.963   7.549 -0.0056  0.4879  0.5198
  232MOL    H7946741   5.110   3.956   7.560 -0.0945  0.3158  0.1865
  232MOL    H8046742   5.091   3.819   7.325  0.1981 -0.3729 -0.3848
  232MOL    H8146743   5.035   3.990   7.334  0.8591 -0.5876 -0.0068
  232MOL    O8246744   4.884   3.845   7.335  0.0000  0.7722  0.1013
  232MOL    C8346745   4.857   3.864   7.196  0.5536  0.5003  0.1084
  232MOL    C8446746   4.704   3.839   7.183 -0.6421 -0.3284 -0.6061
  232MOL    C8546747   4.604   3.950   7.222 -0.6411 -0.0397 -0.3234
  232MOL    H8646748   4.923   3.791   7.149 -0.4533 -1.2978  1.3958
  232MOL    H8746749   4.883   3.962   7.155 -2.1768  0.7165 -1.2077
  232MOL    H8846750   4.695   3.828   7.075  0.8852  0.5230 -0.8459
  232MOL    H8946751   4.681   3.743   7.229  0.1206 -1.0596 -1.7402
  232MOL    H9046752   4.630   4.047   7.181 -0.7676  1.9120  3.9438
  232MOL    H9146753   4.599   3.961   7.330  1.1374  0.9758 -0.3252
  232MOL    O9246754   4.480   3.897   7.186 -0.4543  0.0666 -0.2655
  232MOL    C9346755   4.373   3.994   7.217 -0.2277  0.7367 -0.0064
  232MOL    C9446756   4.244   3.934   7.167 -0.2739  0.8001  0.3300
  232MOL    C9546757   4.130   4.031   7.183 -0.1705  0.2190 -0.9305
  232MOL    H9646758   4.391   4.081   7.154  2.0753  1.0775  1.0572
  232MOL    H9746759   4.367   4.016   7.323 -1.7010 -2.5041  0.6421
  232MOL    H9846760   4.250   3.911   7.061 -3.5582 -2.8371  0.8254
  232MOL    H9946761   4.224   3.839   7.215 -1.0213  1.9189  2.3049
  232MOL   H10046762   4.147   4.128   7.136 -2.5373  1.7390  1.2746
  232MOL   H10146763   4.129   4.046   7.291  0.6773  0.6071 -0.9735
  232MOL   O10246764   4.022   3.963   7.128 -0.0881 -0.7527  0.2214
  232MOL   C10346765   3.905   4.006   7.185  0.2329 -0.4870 -1.0826
  232MOL   C10446766   3.804   3.897   7.132  0.9742  0.0760  0.0004
  232MOL   C10546767   3.660   3.918   7.170 -0.2038  0.3283  0.1276
  232MOL   H10646768   3.877   4.107   7.155 -0.1250 -0.2473  0.0480
  232MOL   H10746769   3.909   4.011   7.293  1.2376  4.2602 -1.2370
  232MOL   H10846770   3.823   3.886   7.026  0.8015 -0.6729  0.0448
  232MOL   H10946771   3.845   3.798   7.155  0.1402 -0.2715 -0.0078
  232MOL   H11046772   3.642   4.025   7.156 -0.2888  0.3073  0.0758
  232MOL   H11146773   3.661   3.893   7.276  0.4532 -1.8454 -0.3629
  232MOL   O11246774   3.563   3.836   7.105  0.0616  0.0866 -0.0054
  232MOL   C11346775   3.439   3.841   7.166  0.9237 -0.1891  0.2853
  232MOL   C11446776   3.339   3.747   7.090 -0.0321  0.1753  0.1450
  232MOL   C11546777   3.332   3.777   6.929  0.6379  0.1446  0.0464
  232MOL   H11646778   3.409   3.946   7.159  1.4471 -0.0399  0.2948
  232MOL   H11746779   3.435   3.818   7.273 -0.5438 -0.2233  0.2360
  232MOL   H11846780   3.380   3.646   7.100  1.6656  1.1612  3.9604
  232MOL   H11946781   3.244   3.748   7.142 -1.0510 -0.9269 -1.6172
  232MOL   H12046782   3.430   3.786   6.881  0.7976 -1.5929  0.0145
  232MOL   H12146783   3.282   3.871   6.909  0.2472  0.2517  1.5225
  232MOL   O12246784   3.280   3.663   6.866 -0.2666  1.1679  0.5466
  232MOL   C12346785   3.173   3.693   6.774  0.1615  0.3169 -0.8741
  232MOL   C12446786   3.082   3.574   6.767  0.2640 -0.0339  0.3509
  232MOL   C12546787   3.151   3.454   6.706  0.0332  0.0613  0.2115
  232MOL   H12646788   3.214   3.731   6.681  0.8342  0.4923 -0.5130
  232MOL   H12746789   3.113   3.776   6.810  1.9600  1.6500 -0.8782
  232MOL   H12846790   3.058   3.550   6.871  1.0144 -0.6617  0.3843
  232MOL   H12946791   2.986   3.594   6.719  0.0182  3.5990  2.1505
  232MOL   H13046792   3.247   3.443   6.756  0.6016 -2.4576 -1.2916
  232MOL   H13146793   3.165   3.457   6.598  2.1597 -0.5344  0.4461
  232MOL   O13246794   3.085   3.339   6.748 -0.5911 -0.2011  0.0347
  232MOL   C13346795   2.971   3.302   6.671  0.4350 -0.6276  0.5916
  232MOL   C13446796   2.959   3.158   6.719 -0.0725  0.3588 -0.2902
  232MOL   C13546797   2.865   3.069   6.630 -0.1717  0.6776  0.1502
  232MOL   H13646798   2.996   3.305   6.564 -1.3537 -0.9663  0.1417
  232MOL   H13746799   2.886   3.365   6.696 -0.1784 -2.3352  2.9434
  232MOL   H13846800   3.060   3.119   6.736  1.0749  1.7685 -3.4070
  232MOL   H13946801   2.921   3.158   6.821 -1.6324  0.3773 -0.8629
  232MOL   H14046802   2.929   3.023   6.554 -1.6236  3.3005 -2.8045
  232MOL   H14146803   2.799   3.138   6.577  0.8147  0.1813 -1.7731
  232MOL   O14246804   2.802   2.966   6.703 -0.3246  0.3294  0.1584
  232MOL   C14346805   2.698   2.896   6.630 -0.1156 -0.3865  0.2362
  232MOL   C14446806   2.694   2.754   6.691 -0.1367  0.2507 -0.1695
  232MOL   C14546807   2.604   2.660   6.625 -0.0329  0.2147 -0.0783
  232MOL   H14646808   2.711   2.902   6.522  1.2679  0.8387  0.4500
  232MOL   H14746809   2.606   2.950   6.655  0.4485  0.8220 -0.2396
  232MOL   H14846810   2.797   2.719   6.682 -0.3648 -0.2950 -0.7279
  232MOL   H14946811   2.655   2.760   6.792  1.4139  2.4461  0.3301
  232MOL   H15046812   2.633   2.556   6.641  0.3381  0.6016  1.8457
  232MOL   H15146813   2.610   2.686   6.519  0.8875 -0.2995 -0.1596
  232MOL   O15246814   2.467   2.686   6.650  0.1437  0.2173  0.3947
  232MOL   C15346815   2.378   2.598   6.573 -0.0399  0.0273 -0.0559
  232MOL   C15446816   2.237   2.662   6.576 -0.2890  0.4062  0.7028
  232MOL   C15546817   2.145   2.628   6.697 -0.5161 -0.2496  0.4761
  232MOL   H15646818   2.374   2.499   6.618 -0.2049  0.1117  0.1147
  232MOL   H15746819   2.419   2.585   6.473  1.2741  1.6933  0.2313
  232MOL   H15846820   2.249   2.770   6.567  0.6697  0.2345 -0.1967
  232MOL   H15946821   2.185   2.620   6.489  1.4525  1.5440 -0.9111
  232MOL   H16046822   2.190   2.665   6.789  0.0896 -2.7336  1.2308
  232MOL   H16146823   2.133   2.520   6.708  0.8193 -0.3352  1.2659
  232MOL   O16246824   2.014   2.670   6.673 -0.4213  0.0020  0.6449
  232MOL   C16346825   1.921   2.633   6.774  0.4545 -0.2010 -0.0604
  232MOL   C16446826   1.779   2.676   6.719 -0.2351 -0.0219 -0.2382
  232MOL   C16546827   1.664   2.642   6.824  0.3687  0.1566 -0.1700
  232MOL   H16646828   1.958   2.684   6.862  0.0291 -0.1820  0.1084
  232MOL   H16746829   1.931   2.530   6.806  2.0728  0.5120  1.7977
  232MOL   H16846830   1.779   2.780   6.688 -1.2379 -0.4284 -1.6695
  232MOL   H16946831   1.757   2.620   6.628  1.4371  0.6874 -1.0988
  232MOL   H17046832   1.691   2.679   6.923 -1.1678 -1.5301  0.9268
  232MOL   H17146833   1.655   2.535   6.843 -0.5351 -0.2647 -2.7543
  232MOL   O17246834   1.535   2.685   6.780  0.2375  0.0778 -0.3778
  232MOL   C17346835   1.437   2.660   6.886 -0.0036 -0.0689 -0.0420
  232MOL   C17446836   1.313   2.743   6.876  0.3300 -0.2092  0.4653
  232MOL   C17546837   1.216   2.735   6.996 -0.0076 -0.1569 -0.1484
  232MOL   H17646838   1.479   2.672   6.986  2.1998 -1.2417 -0.7781
  232MOL   H17746839   1.408   2.555   6.885 -2.4889  0.5941 -0.5523
  232MOL   H17846840   1.335   2.849   6.860 -0.0444  0.0558  1.6650
  232MOL   H17946841   1.275   2.716   6.777  2.6998 -0.4941 -0.4009
  232MOL   H18046842   1.126   2.794   6.977  1.2868  1.4575 -1.3951
  232MOL   H18146843   1.262   2.776   7.086 -0.6002  0.8545 -0.2912
  232MOL   O18246844   1.187   2.598   7.001  0.0493 -0.0401  0.2780
  232MOL   C18346845   1.077   2.572   7.088  0.0502 -0.3560  0.3391
  232MOL   C18446846   1.032   2.427   7.079 -0.3300  0.7676 -0.2932
  232MOL   C18546847   0.906   2.402   7.164  0.1997 -0.1067  0.1821
  232MOL   H18646848   0.992   2.639   7.073  1.0627  0.7796 -0.4212
  232MOL   H18746849   1.114   2.588   7.189 -0.9744 -0.1081  0.6842
  232MOL   H18846850   1.032   2.404   6.972  1.7340 -0.6204 -0.0072
  232MOL   H18946851   1.116   2.367   7.113  1.4414  2.5137 -1.4477
  232MOL   H19046852   0.814   2.438   7.117  0.5643 -1.0040 -1.2681
  232MOL   H19146853   0.923   2.461   7.254  0.7766  2.4108 -1.5198
  232MOL   O19246854   0.889   2.265   7.197  0.5988 -0.6460  0.0967
  232MOL   C19346855   0.765   2.244   7.275  0.1926 -0.4645 -0.4411
  232MOL   C19446856   0.789   2.114   7.336 -0.0478 -0.4119  0.1674
  232MOL   C19546857   0.910   2.111   7.431  0.1505 -0.0055  0.7825
  232MOL   H19646858   0.679   2.240   7.209  0.5510 -0.1200 -0.9306
  232MOL   H19746859   0.750   2.319   7.353  1.5937 -0.5899 -0.0334
  232MOL   H19846860   0.702   2.075   7.390 -0.0902  0.0408  0.4310
  232MOL   H19946861   0.809   2.041   7.258  1.4122 -0.0697  0.1985
  232MOL   H20046862   0.897   2.187   7.507 -1.2969 -0.6694  1.1998
  232MOL   H20146863   1.008   2.122   7.383 -0.0994 -0.5156  0.1328
  232MOL   H20246864   0.917   2.019   7.489 -1.9486 -0.5314  0.2245
  233MOL     O146865   0.073   5.313   4.621  0.1816  0.1588 -0.0936
  233MOL     C246866   0.106   5.446   4.655 -0.2076 -0.2899  0.8424
  233MOL     C346867   0.158   5.459   4.798 -0.1828  0.6284 -0.0174
  233MOL     C446868   0.052   5.454   4.908  0.2596 -0.0868 -0.1427
  233MOL     H546869   0.022   5.514   4.642 -0.1080 -0.1793  0.7674
  233MOL     H646870   0.181   5.498   4.595 -0.1264  1.4679  2.4018
  233MOL     H746871   0.227   5.374   4.809 -1.8116 -0.6407  0.5635
  233MOL     H846872   0.212   5.553   4.805 -0.2892  0.8774 -2.1610
  233MOL     H946873   0.005   5.356   4.897  0.5056 -0.2999  0.6794
  233MOL    H1046874   7.770   5.534   4.887  1.0106  0.3633 -0.9871
  233MOL    H1146875   0.001   5.316   4.561  0.4396 -2.2828 -0.5457
  233MOL    O1246876   0.108   5.492   5.035  0.2068  0.3170  0.4332
  233MOL    C1346877   0.173   5.389   5.105  0.8573 -0.2091 -0.0719
  233MOL    C1446878   0.076   5.303   5.183 -0.2891  0.3579 -0.2526
  233MOL    C1546879   7.788   5.388   5.290  0.3389  0.3736 -0.0370
  233MOL    H1646880   0.246   5.437   5.170 -2.2254  2.0217  1.8562
  233MOL    H1746881   0.235   5.326   5.041  2.2518  0.1626  0.8808
  233MOL    H1846882   0.012   5.263   5.104  2.3651 -0.4419 -2.0721
  233MOL    H1946883   0.130   5.222   5.231 -1.0352  1.3494  2.3060
  233MOL    H2046884   7.699   5.436   5.248 -1.0327 -0.9383  1.2728
  233MOL    H2146885   0.065   5.473   5.309  0.2090  0.8223 -1.5309
  233MOL    O2246886   7.767   5.307   5.399 -0.4772 -0.2886 -0.5718
  233MOL    C2346887   7.686   5.356   5.504  0.0018  0.3864  0.2248
  233MOL    C2446888   7.628   5.241   5.586 -0.3248  0.1769  0.2159
  233MOL    C2546889   7.585   5.272   5.733 -0.3356 -0.1750  0.2899
  233MOL    H2646890   7.608   5.426   5.473 -1.1137 -0.0562  1.9464
  233MOL    H2746891   7.756   5.421   5.557  0.2581  0.9286 -0.7590
  233MOL    H2846892   7.548   5.194   5.529 -0.3478  1.2265 -0.6292
  233MOL    H2946893   7.708   5.167   5.595  1.6925  2.1377 -1.0234
  233MOL    H3046894   7.503   5.344   5.735  0.3901  0.6195  3.5690
  233MOL    H3146895   7.674   5.314   5.779 -0.1109  0.3255 -0.5876
  233MOL    O3246896   7.554   5.165   5.814 -0.3207  0.0320 -0.2725
  233MOL    C3346897   7.518   5.205   5.947 -0.2456  0.0927 -0.1562
  233MOL    C3446898   7.501   5.082   6.030 -0.2693  0.4091  0.1530
  233MOL    C3546899   7.624   4.996   6.044 -0.4020 -0.0005 -0.1040
  233MOL    H3646900   7.421   5.254   5.951 -0.5954 -0.5542 -0.6298
  233MOL    H3746901   7.588   5.281   5.983 -1.1995  0.3061  1.2509
  233MOL    H3846902   7.461   5.121   6.124 -0.4422 -0.9365  0.6474
  233MOL    H3946903   7.419   5.018   5.998 -1.1615 -0.4597  3.9261
  233MOL    H4046904   7.700   5.056   6.094  0.0656 -3.2685  3.2869
  233MOL    H4146905   7.668   4.975   5.946 -0.7985  0.9648 -0.5038
  233MOL    O4246906   7.584   4.886   6.125 -0.3437  0.0364  0.6892
  233MOL    C4346907   7.701   4.819   6.175  0.4687  0.4096 -1.4786
  233MOL    C4446908   7.681   4.664   6.216  0.2134  0.3528  0.7438
  233MOL    C4546909   7.679   4.578   6.090 -0.4221 -0.9618 -0.7452
  233MOL    H4646910   7.724   4.866   6.271  0.0409 -1.0387 -0.6560
  233MOL    H4746911   0.002   4.835   6.114  1.1223 -0.3879 -0.7482
  233MOL    H4846912   7.756   4.642   6.291  0.6651  0.6638  0.3837
  233MOL    H4946913   7.584   4.644   6.263 -0.3254 -1.5347 -1.1422
  233MOL    H5046914   7.770   4.599   6.033 -0.1331  0.3246  0.1728
  233MOL    H5146915   7.592   4.608   6.033 -0.7470 -0.3036  0.0924
  233MOL    O5246916   7.674   4.440   6.109  0.3499  0.8295 -0.6294
  233MOL    C5346917   7.641   4.366   6.001  1.1289  0.0462  0.5984
  233MOL    C5446918   7.621   4.222   6.040  0.3423  0.0468 -1.1867
  233MOL    C5546919   7.493   4.215   6.123  0.4158 -1.0464  0.1324
  233MOL    H5646920   7.726   4.374   5.933  1.7213  0.4322  1.3708
  233MOL    H5746921   7.554   4.394   5.942  1.0870 -0.5365  0.3829
  233MOL    H5846922   7.621   4.154   5.955 -2.1966  1.3923 -2.3071
  233MOL    H5946923   7.711   4.201   6.098  0.5102  0.6191 -1.2286
  233MOL    H6046924   7.415   4.259   6.060 -0.2539 -0.9941  0.9935
  233MOL    H6146925   7.499   4.284   6.207 -0.5277  0.1761 -0.7808
  233MOL    O6246926   7.452   4.090   6.174  0.4029  0.5669 -0.1785
  233MOL    C6346927   7.332   4.101   6.250  0.0303 -0.6953  0.8188
  233MOL    C6446928   7.337   3.993   6.356 -0.1061  0.1768 -0.0516
  233MOL    C6546929   7.222   4.005   6.452  0.3678  0.5121 -0.2532
  233MOL    H6646930   7.239   4.104   6.192 -0.0722 -0.0634  1.0041
  233MOL    H6746931   7.348   4.192   6.308  0.4876 -1.5996  2.1219
  233MOL    H6846932   7.330   3.897   6.305 -0.0493 -0.4787  1.1574
  233MOL    H6946933   7.430   4.000   6.413  0.5402  0.6736 -1.1582
  233MOL    H7046934   7.236   4.103   6.498  0.1186 -0.4753  2.0112
  233MOL    H7146935   7.232   3.931   6.532 -2.6103  1.8652  1.4616
  233MOL    O7246936   7.105   3.987   6.375  0.5432  0.2506  0.4011
  233MOL    C7346937   6.987   4.033   6.440 -0.4561 -0.4449  0.3552
  233MOL    C7446938   6.856   3.973   6.388  0.9129  0.1057  0.2624
  233MOL    C7546939   6.823   3.994   6.239 -0.3486 -0.3488  0.0110
  233MOL    H7646940   6.974   4.139   6.416 -1.3924 -0.0850  2.3413
  233MOL    H7746941   6.988   4.026   6.549  4.9711 -2.1476  0.3317
  233MOL    H7846942   6.857   3.870   6.424 -0.8258 -0.4127 -1.0795
  233MOL    H7946943   6.777   4.013   6.452  1.2158  2.0032 -0.5225
  233MOL    H8046944   6.918   3.966   6.193  0.6864  1.3249  1.0929
  233MOL    H8146945   6.805   4.097   6.211 -1.0490 -1.2633 -3.0933
  233MOL    O8246946   6.729   3.898   6.204  0.1040 -0.2270 -0.5267
  233MOL    C8346947   6.689   3.896   6.063 -0.9529 -0.6946  0.1204
  233MOL    C8446948   6.631   3.757   6.033  0.1417 -0.5429  0.5733
  233MOL    C8546949   6.601   3.729   5.883 -0.0745 -0.3692 -0.3701
  233MOL    H8646950   6.772   3.917   5.996 -0.8339 -1.5628 -0.0206
  233MOL    H8746951   6.618   3.973   6.033 -0.7863 -0.5768  0.0332
  233MOL    H8846952   6.701   3.685   6.075  0.7576  1.3347  2.9201
  233MOL    H8946953   6.542   3.744   6.095  0.4241  1.3985  1.4394
  233MOL    H9046954   6.538   3.642   5.864 -0.8415  0.3197 -0.9907
  233MOL    H9146955   6.691   3.732   5.821  1.0666 -0.0204  1.2669
  233MOL    O9246956   6.514   3.837   5.843 -0.1490 -0.0394 -0.0073
  233MOL    C9346957   6.477   3.834   5.704  0.3554  0.3596 -0.6506
  233MOL    C9446958   6.373   3.940   5.676  0.1546  0.4238 -0.9894
  233MOL    C9546959   6.242   3.914   5.756 -0.1532  0.4838  0.1488
  233MOL    H9646960   6.439   3.740   5.665  0.8481  1.4257 -3.8656
  233MOL    H9746961   6.557   3.853   5.633 -0.5535  0.8298 -1.5549
  233MOL    H9846962   6.411   4.038   5.702  1.5182 -0.8354  2.0703
  233MOL    H9946963   6.356   3.938   5.568  0.1072 -0.9475 -0.9774
  233MOL   H10046964   6.259   3.935   5.862  0.5361  0.6087  0.0175
  233MOL   H10146965   6.210   3.809   5.759  1.2411  0.0101 -1.0408
  233MOL   O10246966   6.136   3.996   5.707 -0.0908  0.1285 -0.5488
  233MOL   C10346967   6.006   3.949   5.763  0.0018  0.2710 -0.7353
  233MOL   C10446968   5.872   4.027   5.722 -1.0195 -0.2860  0.4971
  233MOL   C10546969   5.847   4.149   5.809 -0.5046  0.1794 -0.0815
  233MOL   H10646970   6.010   3.943   5.871  1.0124  1.5571 -0.6958
  233MOL   H10746971   5.993   3.844   5.734 -1.0735  0.4219 -0.7933
  233MOL   H10846972   5.874   4.058   5.618 -1.0520  1.2372  0.9435
  233MOL   H10946973   5.798   3.948   5.730  0.0762 -1.5716 -1.6193
  233MOL   H11046974   5.755   4.196   5.773 -1.0503 -1.1212 -0.4225
  233MOL   H11146975   5.928   4.220   5.794  1.2405 -1.2986  2.0494
  233MOL   O11246976   5.821   4.115   5.944  0.3806  0.0784  0.4212
  233MOL   C11346977   5.823   4.224   6.035 -0.1311  0.2610  0.1187
  233MOL   C11446978   5.961   4.232   6.096  0.0005 -0.3161 -0.1637
  233MOL   C11546979   5.977   4.351   6.196 -0.5517  0.2486  0.1174
  233MOL   H11646980   5.750   4.205   6.113 -0.2989 -0.0084 -0.1036
  233MOL   H11746981   5.792   4.316   5.983  1.8216  0.7784 -0.1744
  233MOL   H11846982   5.989   4.141   6.149  0.3290  0.2292  0.6104
  233MOL   H11946983   6.041   4.239   6.022  2.1532  0.6196  2.1895
  233MOL   H12046984   5.926   4.340   6.291 -1.3285 -0.0406 -0.3294
  233MOL   H12146985   5.920   4.424   6.138  1.1163  0.3651 -1.4310
  233MOL   O12246986   6.112   4.396   6.225 -0.4115 -0.4462 -0.4005
  233MOL   C12346987   6.134   4.532   6.282  0.2050  0.7085 -0.5692
  233MOL   C12446988   6.260   4.522   6.372  1.0100 -0.8297  0.3235
  233MOL   C12546989   6.311   4.654   6.426 -0.1407 -0.3898  0.1574
  233MOL   H12646990   6.045   4.559   6.339  0.1221 -0.7595  0.0333
  233MOL   H12746991   6.146   4.604   6.201 -1.8560  1.5550 -0.1575
  233MOL   H12846992   6.244   4.465   6.463 -1.2152  0.0933  0.5424
  233MOL   H12946993   6.343   4.469   6.326  1.1592  0.1342 -0.5435
  233MOL   H13046994   6.399   4.642   6.490 -0.1868  1.3070  0.5806
  233MOL   H13146995   6.236   4.691   6.496  0.2843 -1.1782  1.0539
  233MOL   O13246996   6.338   4.754   6.331  0.1730  0.4685  0.2218
  233MOL   C13346997   6.376   4.878   6.386  0.2354 -0.5223  0.4771
  233MOL   C13446998   6.433   4.973   6.280  0.0098  1.1488 -0.0940
  233MOL   C13546999   6.480   5.111   6.338  0.5881  0.1063  0.0211
  233MOL   H13647000   6.454   4.865   6.461  1.4503 -0.2815 -0.7202
  233MOL   H13747001   6.289   4.922   6.435  0.3525  0.4440 -0.1710
  233MOL   H13847002   6.509   4.931   6.215  0.0217  0.0326  0.6328
  233MOL   H13947003   6.360   5.002   6.204  0.0501 -1.5153 -1.1899
  233MOL   H14047004   6.396   5.153   6.393 -0.4243  0.0850 -1.4904
  233MOL   H14147005   6.504   5.185   6.262  0.0972 -2.2550 -2.5191
  233MOL   O14247006   6.579   5.100   6.438 -0.0180  0.1320 -0.1708
  233MOL   C14347007   6.710   5.111   6.381 -0.3939  0.1241  0.5581
  233MOL   C14447008   6.806   5.058   6.485 -0.5132 -0.3286 -0.2371
  233MOL   C14547009   6.820   4.909   6.490  0.0583  0.0493  0.3953
  233MOL   H14647010   6.721   5.218   6.362 -0.7957  0.0796  0.0643
  233MOL   H14747011   6.710   5.035   6.303  3.1053 -0.3360  0.8916
  233MOL   H14847012   6.907   5.090   6.458 -0.5625 -0.3476 -0.4416
  233MOL   H14947013   6.795   5.096   6.586  1.0345 -1.7539  0.5081
  233MOL   H15047014   6.833   4.860   6.393 -0.9560  1.0009 -0.2430
  233MOL   H15147015   6.724   4.872   6.527  0.4237 -1.1921  0.1172
  233MOL   O15247016   6.913   4.870   6.590  0.6589 -0.8396  0.3052
  233MOL   C15347017   6.924   4.736   6.608 -0.1978  0.5256  0.6032
  233MOL   C15447018   7.062   4.695   6.672  0.5876 -0.2865  0.9043
  233MOL   C15547019   7.059   4.735   6.818  0.1225  0.1597  0.5233
  233MOL   H15647020   6.924   4.683   6.512 -0.2551 -0.7569  1.3053
  233MOL   H15747021   6.838   4.697   6.662 -0.2839 -1.4574 -0.8762
  233MOL   H15847022   7.075   4.587   6.667 -2.6084 -0.6772  0.1413
  233MOL   H15947023   7.146   4.755   6.637 -1.4414  2.2467  0.1971
  233MOL   H16047024   6.975   4.685   6.867 -0.4992  1.3909  0.7202
  233MOL   H16147025   7.053   4.844   6.824 -0.3778  0.1950 -0.5924
  233MOL   O16247026   7.195   4.692   6.867  0.3317  0.1197  0.1287
  233MOL   C16347027   7.211   4.724   7.006  0.7277  0.2356  0.1999
  233MOL   C16447028   7.361   4.740   7.016  0.1668  0.2538 -0.0618
  233MOL   C16547029   7.417   4.769   7.154 -0.0674  0.1169  0.6869
  233MOL   H16647030   7.177   4.635   7.061  0.2008  0.8086  0.8110
  233MOL   H16747031   7.163   4.819   7.028  0.4320  0.4296 -1.2660
  233MOL   H16847032   7.403   4.653   6.966  1.1621 -0.5200  2.0803
  233MOL   H16947033   7.384   4.821   6.946  1.4313 -1.2993 -1.4721
  233MOL   H17047034   7.409   4.681   7.218  1.8578 -1.3954 -1.0893
  233MOL   H17147035   7.363   4.854   7.195 -0.6796 -0.8279  1.8731
  233MOL   O17247036   7.559   4.784   7.143  0.4620 -0.2170 -0.0090
  233MOL   C17347037   7.617   4.840   7.263  0.3984  0.0222 -0.1814
  233MOL   C17447038   7.753   4.904   7.221  0.0283  0.0558 -0.1064
  233MOL   C17547039   0.082   4.886   7.319 -0.4186 -0.9002 -0.3546
  233MOL   H17647040   7.635   4.749   7.321  0.6393 -0.1346 -0.4993
  233MOL   H17747041   7.556   4.917   7.309  0.1012  0.4625 -1.2836
  233MOL   H17847042   7.785   4.846   7.135 -1.2478 -1.2202  0.2689
  233MOL   H17947043   7.733   5.009   7.201  1.2697  0.5828  1.2720
  233MOL   H18047044   0.042   4.900   7.420  1.9799  2.7853  0.2087
  233MOL   H18147045   0.156   4.964   7.301 -0.8060 -0.9946 -2.4526
  233MOL   O18247046   0.141   4.757   7.305 -0.1230 -0.0305 -0.0350
  233MOL   C18347047   0.262   4.749   7.380  0.2513 -0.4899 -0.4813
  233MOL   C18447048   0.300   4.604   7.375  0.0514 -0.1826 -0.1036
  233MOL   C18547049   0.350   4.559   7.233  0.6135  0.0103  0.2864
  233MOL   H18647050   0.242   4.783   7.481  0.5273 -1.3869 -0.1192
  233MOL   H18747051   0.339   4.818   7.346  1.8986 -0.7674  2.5442
  233MOL   H18847052   0.379   4.573   7.444  0.5543 -0.5937 -0.8517
  233MOL   H18947053   0.217   4.543   7.409 -1.2116 -0.2337 -3.1689
  233MOL   H19047054   0.427   4.627   7.195 -0.9928  1.7691  0.1133
  233MOL   H19147055   0.274   4.574   7.156 -0.0192  1.7607  1.2236
  233MOL   O19247056   0.385   4.423   7.242 -0.5175 -0.5743 -0.4533
  233MOL   C19347057   0.413   4.355   7.119 -0.0337 -0.5796  0.0043
  233MOL   C19447058   0.506   4.238   7.140  0.2658 -0.1158  0.3662
  233MOL   C19547059   0.643   4.282   7.180  0.1682 -0.3121  0.1131
  233MOL   H19647060   0.452   4.425   7.045  0.6603 -0.0082  0.9079
  233MOL   H19747061   0.312   4.328   7.089 -0.7167  2.2270 -0.3688
  233MOL   H19847062   0.468   4.171   7.217  0.2227 -1.1327 -0.5349
  233MOL   H19947063   0.518   4.177   7.051  2.3312  1.6528 -0.6239
  233MOL   H20047064   0.628   4.305   7.285 -2.1546 -0.6132 -0.1278
  233MOL   H20147065   0.676   4.363   7.116  0.6967  0.1354  0.9398
  233MOL   H20247066   0.711   4.197   7.170  1.0919  0.4854 -0.4176
  234MOL     O147067   0.962   3.340   4.311  0.2765 -0.2291 -0.3479
  234MOL     C247068   0.874   3.417   4.236  0.5037  0.2885 -0.4536
  234MOL     C347069   0.725   3.380   4.269  0.0117  0.3584 -0.7228
  234MOL     C447070   0.615   3.455   4.195 -0.1427 -0.1353  0.1756
  234MOL     H547071   0.900   3.412   4.130  0.3047  0.4832 -0.5122
  234MOL     H647072   0.894   3.521   4.260 -0.5015  0.9936 -2.5098
  234MOL     H747073   0.707   3.272   4.272 -1.3001  0.5825 -0.1695
  234MOL     H847074   0.716   3.413   4.373  0.3317 -1.4236 -0.1021
  234MOL     H947075   0.600   3.422   4.092 -1.5789 -1.3810  0.7507
  234MOL    H1047076   0.647   3.558   4.185  0.0952 -0.0704  1.5595
  234MOL    H1147077   0.928   3.323   4.397  3.1396 -0.5310  0.7831
  234MOL    O1247078   0.497   3.455   4.279 -0.7289  0.3079 -0.0678
  234MOL    C1347079   0.391   3.537   4.229  0.1133  0.8469 -0.4211
  234MOL    C1447080   0.255   3.471   4.262  0.1957  0.4788  0.5076
  234MOL    C1547081   0.132   3.547   4.216  0.4215 -0.3720  0.1256
  234MOL    H1647082   0.412   3.562   4.125 -2.1198  0.4109 -1.0048
  234MOL    H1747083   0.399   3.631   4.284 -0.8433  1.0282 -0.5768
  234MOL    H1847084   0.252   3.367   4.232  2.4561  0.8274 -1.0061
  234MOL    H1947085   0.243   3.460   4.370 -2.5989 -0.2401  0.1506
  234MOL    H2047086   0.126   3.535   4.108 -1.5527  0.4678  0.1305
  234MOL    H2147087   0.142   3.654   4.234  2.2914 -0.4956 -0.0674
  234MOL    O2247088   0.017   3.485   4.279 -0.0483  0.4187  0.2429
  234MOL    C2347089   7.685   3.559   4.261 -0.1317  0.0060  0.2882
  234MOL    C2447090   7.561   3.481   4.299  0.0795  0.3739  0.8507
  234MOL    C2547091   7.537   3.473   4.456 -0.1042 -0.5990  0.9948
  234MOL    H2647092   7.665   3.593   4.160 -0.4214 -0.2268  0.2655
  234MOL    H2747093   7.702   3.653   4.313 -0.4481 -0.4590  1.2605
  234MOL    H2847094   7.470   3.518   4.250  0.1781 -0.3002  0.1397
  234MOL    H2947095   7.562   3.383   4.250 -0.1600  1.6474 -1.7982
  234MOL    H3047096   7.554   3.570   4.503  1.2001 -1.4701  2.3562
  234MOL    H3147097   7.613   3.405   4.495 -1.3361 -2.3571  0.3758
  234MOL    O3247098   7.401   3.419   4.465  0.9559 -0.2673 -0.3574
  234MOL    C3347099   7.360   3.381   4.589  0.6210 -0.5668 -0.1358
  234MOL    C3447100   7.291   3.247   4.586  0.7267 -0.2874 -0.1007
  234MOL    C3547101   7.379   3.126   4.551  0.5060 -0.3073  0.0999
  234MOL    H3647102   7.305   3.466   4.630 -0.3841 -0.2924 -1.9474
  234MOL    H3747103   7.443   3.360   4.656  0.8783 -0.7811 -0.5202
  234MOL    H3847104   7.243   3.217   4.679 -0.2660 -0.0113 -0.5137
  234MOL    H3947105   7.201   3.258   4.525 -0.0562  1.2384  1.2861
  234MOL    H4047106   7.450   3.114   4.633 -1.7776 -1.5563  1.9748
  234MOL    H4147107   7.427   3.142   4.455 -1.7131 -1.1709 -1.2040
  234MOL    O4247108   7.313   2.996   4.546 -0.2516 -0.2308 -0.1603
  234MOL    C4347109   7.260   2.943   4.424 -0.0918  0.8763  0.0951
  234MOL    C4447110   7.169   2.832   4.455 -0.0697 -0.5350 -0.5375
  234MOL    C4547111   7.101   2.765   4.332  0.1600  0.0960  0.4910
  234MOL    H4647112   7.335   2.895   4.362  0.1550 -1.8621  2.4182
  234MOL    H4747113   7.221   3.021   4.358  1.5090 -0.2946 -2.3371
  234MOL    H4847114   7.233   2.763   4.510  2.6231  1.8222 -0.5760
  234MOL    H4947115   7.089   2.866   4.521 -2.3573 -3.8718 -1.5066
  234MOL    H5047116   7.036   2.684   4.365  0.1209  0.3154  0.9660
  234MOL    H5147117   7.176   2.736   4.259  1.2271 -1.6783  2.2193
  234MOL    O5247118   7.011   2.860   4.274 -0.0640  0.8535 -0.2537
  234MOL    C5347119   6.940   2.797   4.164  0.1616  0.1938 -0.3572
  234MOL    C5447120   6.820   2.885   4.124  0.6261  0.7426 -0.1493
  234MOL    C5547121   6.688   2.849   4.189  0.8677 -0.6373 -0.1747
  234MOL    H5647122   6.918   2.691   4.180  1.5113  0.0738  0.7850
  234MOL    H5747123   6.997   2.794   4.071 -0.5222 -1.3041 -0.7559
  234MOL    H5847124   6.842   2.989   4.149 -1.4519  0.7136  1.9117
  234MOL    H5947125   6.798   2.888   4.017  2.8910 -4.0099 -0.8622
  234MOL    H6047126   6.706   2.855   4.296 -0.0165 -1.4737  0.0293
  234MOL    H6147127   6.669   2.742   4.177 -2.3542 -0.0487 -0.9065
  234MOL    O6247128   6.583   2.937   4.141  0.4242  0.2068 -0.4282
  234MOL    C6347129   6.462   2.913   4.214 -0.6723 -0.0878  0.7028
  234MOL    C6447130   6.346   3.003   4.170  0.3064  0.6077  0.6856
  234MOL    C6547131   6.207   2.964   4.226 -0.3511 -0.1223  0.2420
  234MOL    H6647132   6.486   2.937   4.318  3.0682 -0.0075 -0.0941
  234MOL    H6747133   6.440   2.807   4.207  1.2698 -0.3972 -1.2278
  234MOL    H6847134   6.374   3.099   4.211 -1.3123  0.9191  1.1081
  234MOL    H6947135   6.345   3.007   4.061  1.2124 -0.2176  0.6432
  234MOL    H7047136   6.185   2.859   4.204 -1.2629  0.0296  0.4014
  234MOL    H7147137   6.124   3.017   4.179 -1.0564 -0.4662  1.0787
  234MOL    O7247138   6.211   2.978   4.370 -0.0445  0.6663 -0.3450
  234MOL    C7347139   6.089   2.941   4.418 -0.2526 -0.2535 -0.0719
  234MOL    C7447140   6.096   2.914   4.571  0.6570  0.0259 -0.2615
  234MOL    C7547141   5.954   2.893   4.627 -0.4628  0.3244 -0.1804
  234MOL    H7647142   6.070   2.844   4.371 -0.1545  0.1084 -0.8694
  234MOL    H7747143   6.009   3.014   4.404 -2.0025 -1.6874  2.0351
  234MOL    H7847144   6.156   2.824   4.572  0.0725 -0.3685 -0.4729
  234MOL    H7947145   6.159   2.977   4.634  1.2275 -0.3473 -0.4525
  234MOL    H8047146   5.962   2.830   4.716 -0.2260  0.8649  0.1782
  234MOL    H8147147   5.893   2.835   4.557 -0.4511 -1.1822  1.0161
  234MOL    O8247148   5.902   3.021   4.653  0.0539 -0.3345 -0.6951
  234MOL    C8347149   5.786   3.021   4.731  0.4919  0.0984  0.1273
  234MOL    C8447150   5.672   2.956   4.654  0.0383  0.0943  0.0123
  234MOL    C8547151   5.533   3.006   4.684 -0.2163  0.0466 -0.0011
  234MOL    H8647152   5.760   3.124   4.756  0.9408  0.0499  0.8010
  234MOL    H8747153   5.818   2.970   4.822 -0.5986 -1.7713 -0.5242
  234MOL    H8847154   5.705   2.952   4.551 -0.2395 -4.3824 -0.0342
  234MOL    H8947155   5.670   2.850   4.681  1.2098  0.5317  1.9068
  234MOL    H9047156   5.516   3.109   4.653  2.0201  1.1596  2.2774
  234MOL    H9147157   5.525   3.008   4.792 -1.2812 -2.7040  0.0050
  234MOL    O9247158   5.448   2.913   4.621 -0.3340 -0.2368 -0.0599
  234MOL    C9347159   5.316   2.930   4.659 -0.3415 -0.3815 -0.2972
  234MOL    C9447160   5.238   2.815   4.603 -0.1714  0.2367 -0.8710
  234MOL    C9547161   5.088   2.832   4.652 -0.5661  0.1643  0.1128
  234MOL    H9647162   5.293   3.035   4.637  1.0264 -0.2782 -1.3108
  234MOL    H9747163   5.305   2.930   4.767 -1.1090  0.5561 -0.3632
  234MOL    H9847164   5.245   2.825   4.495  0.1184 -1.9670 -1.0687
  234MOL    H9947165   5.270   2.718   4.639 -0.1338  0.9744  1.1542
  234MOL   H10047166   5.053   2.935   4.643  0.7556  0.6344  0.2148
  234MOL   H10147167   5.088   2.797   4.755  0.0263 -3.1125 -0.9494
  234MOL   O10247168   5.006   2.736   4.586 -0.1920  0.1128 -0.0308
  234MOL   C10347169   4.877   2.717   4.642  0.2792 -0.5437  0.0750
  234MOL   C10447170   4.822   2.596   4.565 -0.2945  0.0260  0.0385
  234MOL   C10547171   4.716   2.525   4.641  0.2662  0.5031  0.0569
  234MOL   H10647172   4.821   2.809   4.628  0.7727 -0.0361  1.3145
  234MOL   H10747173   4.887   2.702   4.750  0.4107  0.3458  0.1941
  234MOL   H10847174   4.808   2.630   4.463 -0.0037 -3.2367 -1.1372
  234MOL   H10947175   4.907   2.530   4.548 -0.5388 -0.1570 -0.4653
  234MOL   H11047176   4.631   2.593   4.647 -1.4371 -1.3205 -2.4739
  234MOL   H11147177   4.742   2.491   4.741 -1.9572  0.7147  0.7263
  234MOL   O11247178   4.671   2.421   4.550 -0.7798  0.2353 -0.1497
  234MOL   C11347179   4.553   2.365   4.600 -0.2992 -0.3322  0.3139
  234MOL   C11447180   4.505   2.252   4.508  0.1728  0.0252  0.8714
  234MOL   C11547181   4.372   2.191   4.547 -0.0073 -0.5792 -0.2767
  234MOL   H11647182   4.477   2.441   4.616  2.9805  3.2441 -0.3109
  234MOL   H11747183   4.566   2.321   4.699 -0.2991  0.0526  0.4884
  234MOL   H11847184   4.498   2.294   4.407  1.0458  0.2356  0.8964
  234MOL   H11947185   4.580   2.174   4.504 -1.7280 -1.8792  1.4627
  234MOL   H12047186   4.369   2.168   4.653 -0.1586  0.1311 -0.1263
  234MOL   H12147187   4.365   2.097   4.491 -0.2970 -2.2303  2.4516
  234MOL   O12247188   4.268   2.275   4.508  0.3168  0.0896  0.6568
  234MOL   C12347189   4.140   2.216   4.517 -0.0552  0.3495  0.0998
  234MOL   C12447190   4.049   2.302   4.444  1.1412  0.1266  0.0505
  234MOL   C12547191   3.908   2.250   4.432  0.2844 -0.5742 -0.1624
  234MOL   H12647192   4.117   2.202   4.622 -1.4302  1.3814 -0.0605
  234MOL   H12747193   4.138   2.120   4.465  0.8888  0.8518 -0.8850
  234MOL   H12847194   4.056   2.401   4.490  1.5510  0.0721  0.1033
  234MOL   H12947195   4.086   2.322   4.343 -0.2324 -1.0867 -0.7222
  234MOL   H13047196   3.849   2.325   4.379  0.7549  0.8042  1.2321
  234MOL   H13147197   3.868   2.217   4.528  0.4581 -2.3429 -0.6728
  234MOL   O13247198   3.914   2.130   4.356  0.2209  0.3205  0.1631
  234MOL   C13347199   3.784   2.083   4.350 -0.4239 -1.0840 -0.3716
  234MOL   C13447200   3.772   1.962   4.246 -1.0070 -0.4309 -0.9058
  234MOL   C13547201   3.854   1.837   4.292  0.0445 -0.5646 -0.1190
  234MOL   H13647202   3.718   2.160   4.309 -1.1594 -0.5961  1.6806
  234MOL   H13747203   3.742   2.055   4.446  0.3424 -0.6774  0.0887
  234MOL   H13847204   3.670   1.926   4.264 -1.2960  1.5869  1.9871
  234MOL   H13947205   3.797   1.983   4.143 -4.0041  1.5539 -1.3240
  234MOL   H14047206   3.797   1.815   4.383 -0.8970  1.7011 -0.1251
  234MOL   H14147207   3.960   1.856   4.310  0.0193 -2.2167  1.9680
  234MOL   O14247208   3.832   1.736   4.191  0.6182 -0.5398 -0.2972
  234MOL   C14347209   3.858   1.607   4.248 -0.2713 -0.0723  0.9767
  234MOL   C14447210   3.820   1.504   4.145  0.3800 -0.0426  0.2732
  234MOL   C14547211   3.862   1.358   4.175  0.5579  0.1239  0.5889
  234MOL   H14647212   3.792   1.587   4.332  0.2883  0.0486  1.4509
  234MOL   H14747213   3.954   1.595   4.299  0.9930 -0.4589 -1.4056
  234MOL   H14847214   3.713   1.510   4.123  1.2157 -1.7458 -4.8005
  234MOL   H14947215   3.862   1.529   4.048 -1.8032 -0.1282 -0.7256
  234MOL   H15047216   3.817   1.325   4.269 -5.6812 -0.4689 -2.3686
  234MOL   H15147217   3.968   1.367   4.201  0.1503  2.1045  1.6964
  234MOL   O15247218   3.815   1.265   4.085  0.2639 -0.4963 -0.4598
  234MOL   C15347219   3.806   1.128   4.128 -0.5981  0.0551  0.1653
  234MOL   C15447220   3.892   1.042   4.037 -1.0328 -0.4926  0.7398
  234MOL   C15547221   4.046   1.027   4.059  0.2535  0.4953 -0.9362
  234MOL   H15647222   3.707   1.083   4.132  0.7648 -3.0236  1.2769
  234MOL   H15747223   3.840   1.130   4.231 -2.0677  2.4643  0.6265
  234MOL   H15847224   3.852   0.941   4.044  1.8749 -1.7134  0.2319
  234MOL   H15947225   3.878   1.084   3.938  0.4028  0.3010  0.8694
  234MOL   H16047226   4.054   1.017   4.167  0.5748  1.9361 -0.8084
  234MOL   H16147227   4.094   1.123   4.036 -0.3587  1.3334  1.1423
  234MOL   O16247228   4.103   0.914   3.999 -0.6187  0.3913 -0.5119
  234MOL   C16347229   4.245   0.910   4.025 -0.4927  0.0816  0.1751
  234MOL   C16447230   4.296   0.781   3.962 -0.4928 -0.4030  0.9019
  234MOL   C16547231   4.325   0.783   3.810  0.0086 -0.4712 -0.3752
  234MOL   H16647232   4.269   0.909   4.131 -1.4661 -1.1782  0.4003
  234MOL   H16747233   4.288   0.995   3.973  1.1675 -0.3227  0.8742
  234MOL   H16847234   4.387   0.753   4.014  0.0916  0.2100  0.2259
  234MOL   H16947235   4.227   0.700   3.986  0.6077 -1.6700 -0.1126
  234MOL   H17047236   4.229   0.804   3.763  0.0819  1.0698  0.1203
  234MOL   H17147237   4.352   0.683   3.776 -1.6040 -1.3039  0.7664
  234MOL   O17247238   4.431   0.884   3.787 -0.2375  0.1343  0.7071
  234MOL   C17347239   4.440   0.928   3.647  0.5912  0.9695 -0.0594
  234MOL   C17447240   4.516   1.060   3.649  0.1504  0.1214  0.8553
  234MOL   C17547241   4.453   1.171   3.734 -0.9048 -0.1281  0.0513
  234MOL   H17647242   4.339   0.949   3.612  0.9781  1.6794 -0.7426
  234MOL   H17747243   4.499   0.856   3.591 -1.9730  0.5552 -2.3073
  234MOL   H17847244   4.622   1.041   3.665  0.4742 -0.5553 -1.7803
  234MOL   H17947245   4.499   1.099   3.548 -0.7551 -2.2867  0.0298
  234MOL   H18047246   4.453   1.139   3.838 -0.1300  2.4749  0.8998
  234MOL   H18147247   4.351   1.191   3.702 -2.0697 -2.0406  2.4355
  234MOL   O18247248   4.544   1.282   3.743  0.1233 -0.2348  0.1413
  234MOL   C18347249   4.483   1.395   3.807 -0.9625 -0.6028 -0.4775
  234MOL   C18447250   4.578   1.511   3.823  0.3131  0.1144  0.4752
  234MOL   C18547251   4.526   1.634   3.888 -0.2919 -0.5637 -0.6167
  234MOL   H18647252   4.451   1.359   3.905 -0.8984  1.1035  0.1938
  234MOL   H18747253   4.407   1.440   3.743 -0.5764 -1.1611 -1.3355
  234MOL   H18847254   4.675   1.480   3.862  1.0028  0.2934 -1.0784
  234MOL   H18947255   4.593   1.547   3.721 -0.3743  1.6683  0.9146
  234MOL   H19047256   4.540   1.607   3.993 -2.9687  0.8171  0.1280
  234MOL   H19147257   4.422   1.664   3.880 -0.7446 -2.0515 -0.5587
  234MOL   O19247258   4.624   1.731   3.863 -0.4019 -0.0561 -0.0099
  234MOL   C19347259   4.564   1.859   3.847  0.3000  0.7639  0.1372
  234MOL   C19447260   4.675   1.961   3.857  0.4971 -0.0500 -0.0569
  234MOL   C19547261   4.625   2.100   3.845 -0.7198 -0.0484 -0.3153
  234MOL   H19647262   4.486   1.889   3.917  3.3927 -0.4113  4.3151
  234MOL   H19747263   4.524   1.866   3.746 -1.0346  1.9826  0.7358
  234MOL   H19847264   4.722   1.958   3.955 -1.0012 -1.2547  0.6441
  234MOL   H19947265   4.743   1.926   3.780 -1.4051 -2.1479 -0.8566
  234MOL   H20047266   4.574   2.103   3.748 -1.5427  0.3852  0.1172
  234MOL   H20147267   4.710   2.167   3.856 -0.2298 -0.7231  0.0066
  234MOL   H20247268   4.541   2.121   3.912 -1.6283  1.6592 -1.9235
  235MOL     O147269   5.459   2.636   1.847 -1.0726 -0.2162 -0.8318
  235MOL     C247270   5.492   2.758   1.911  0.0496 -0.7531 -0.8689
  235MOL     C347271   5.563   2.853   1.807  0.2520  0.3661 -0.5470
  235MOL     C447272   5.604   2.983   1.869  0.2938 -0.4948 -0.1269
  235MOL     H547273   5.552   2.742   2.001  2.0181  0.4987 -1.9261
  235MOL     H647274   5.405   2.811   1.949  0.1453 -0.5040 -0.9946
  235MOL     H747275   5.649   2.802   1.764 -0.4185 -1.4591  0.2154
  235MOL     H847276   5.489   2.885   1.734  0.5118 -1.3899 -1.6223
  235MOL     H947277   5.513   3.041   1.882 -0.0625 -0.8369 -1.0179
  235MOL    H1047278   5.660   3.051   1.804 -0.0048 -0.6468 -0.5415
  235MOL    H1147279   5.426   2.578   1.914 -0.5108  0.0036 -0.3665
  235MOL    O1247280   5.671   2.966   1.990  0.7094  0.7010 -0.0511
  235MOL    C1347281   5.694   3.096   2.043 -0.1532  0.3354  0.0468
  235MOL    C1447282   5.679   3.108   2.202  0.0460 -0.2948  1.2274
  235MOL    C1547283   5.726   3.240   2.258  1.2166  0.4109 -0.4293
  235MOL    H1647284   5.620   3.162   1.999 -0.2254 -1.2411 -2.3494
  235MOL    H1747285   5.797   3.113   2.010 -0.4724 -0.3721 -1.3751
  235MOL    H1847286   5.573   3.090   2.221  0.1198 -1.4531  0.5749
  235MOL    H1947287   5.733   3.027   2.251  0.2897 -1.1788 -0.4724
  235MOL    H2047288   5.832   3.257   2.238  1.5351  2.0151  2.3139
  235MOL    H2147289   5.727   3.244   2.367 -1.6243 -1.1314 -0.3137
  235MOL    O2247290   5.644   3.339   2.195 -0.2315 -0.0170 -0.2606
  235MOL    C2347291   5.641   3.466   2.259  0.7910  0.3687 -0.0924
  235MOL    C2447292   5.513   3.538   2.205 -0.0921 -0.4245 -0.4079
  235MOL    C2547293   5.500   3.685   2.256  0.5442  0.3514 -0.1259
  235MOL    H2647294   5.725   3.536   2.256  1.1920 -0.1552 -1.3725
  235MOL    H2747295   5.622   3.442   2.364 -3.1678  2.5933 -0.1802
  235MOL    H2847296   5.530   3.535   2.097 -1.8478 -1.5333 -0.6800
  235MOL    H2947297   5.417   3.488   2.222 -0.0448 -1.2817 -2.4467
  235MOL    H3047298   5.597   3.732   2.272  0.6946  0.2288 -0.6710
  235MOL    H3147299   5.447   3.682   2.352  1.2447  0.7447  0.2757
  235MOL    O3247300   5.422   3.752   2.162  0.3947 -0.0938 -0.7414
  235MOL    C3347301   5.387   3.881   2.206 -0.1178  0.6653 -0.0211
  235MOL    C3447302   5.328   3.964   2.091 -0.2885  1.4356  0.6833
  235MOL    C3547303   5.428   3.976   1.982  0.2503 -0.5606  0.0281
  235MOL    H3647304   5.473   3.933   2.249 -2.8524  2.5267  3.4242
  235MOL    H3747305   5.312   3.872   2.284  1.4641  1.4499  1.6338
  235MOL    H3847306   5.238   3.911   2.062  0.0889  1.3592 -0.3873
  235MOL    H3947307   5.304   4.064   2.129 -0.3925  1.1296  1.4247
  235MOL    H4047308   5.467   3.881   1.949  0.9000  0.0074 -0.8318
  235MOL    H4147309   5.511   4.026   2.032 -3.7987  2.9146  3.7357
  235MOL    O4247310   5.368   4.051   1.881 -0.4484 -0.5673  0.2370
  235MOL    C4347311   5.465   4.078   1.782 -0.2516 -0.7651  0.1196
  235MOL    C4447312   5.418   4.197   1.697  0.0837 -0.1035 -0.8863
  235MOL    C4547313   5.511   4.240   1.591  0.0204  0.0979 -0.4789
  235MOL    H4647314   5.501   3.990   1.729 -1.2699 -1.3050  0.3018
  235MOL    H4747315   5.555   4.110   1.835  1.1556 -1.1533 -1.9969
  235MOL    H4847316   5.334   4.145   1.650 -0.3767 -0.4201  0.2613
  235MOL    H4947317   5.384   4.271   1.769  0.7030 -0.0486 -0.6542
  235MOL    H5047318   5.516   4.158   1.520  2.5972  1.0176 -1.4068
  235MOL    H5147319   5.614   4.248   1.626  1.5189 -2.6624 -3.9265
  235MOL    O5247320   5.466   4.362   1.530  0.1093 -0.4852  0.1029
  235MOL    C5347321   5.525   4.371   1.395 -0.5623 -0.2952  0.6449
  235MOL    C5447322   5.481   4.500   1.334  0.4673  0.2247  0.2026
  235MOL    C5547323   5.546   4.634   1.377 -0.4268 -0.3021 -0.7578
  235MOL    H5647324   5.502   4.288   1.329 -0.9572 -0.8192  1.4421
  235MOL    H5747325   5.633   4.366   1.411 -0.2668  1.1370 -0.6257
  235MOL    H5847326   5.491   4.504   1.225  0.4586 -0.7321  0.1585
  235MOL    H5947327   5.377   4.496   1.365  0.2667 -1.2288 -0.5800
  235MOL    H6047328   5.652   4.623   1.352 -0.7864 -1.0876 -1.9599
  235MOL    H6147329   5.542   4.649   1.485  0.6728 -2.5208 -0.3795
  235MOL    O6247330   5.498   4.748   1.303  0.8982  0.4823  0.2455
  235MOL    C6347331   5.364   4.789   1.313  0.1133  0.0769  0.2810
  235MOL    C6447332   5.322   4.881   1.201 -0.1589 -0.1306 -0.3981
  235MOL    C6547333   5.410   5.010   1.194  0.0774 -0.0611  0.0326
  235MOL    H6647334   5.352   4.843   1.407  2.0159  1.6886 -0.3607
  235MOL    H6747335   5.306   4.697   1.307  1.1505 -0.8118  3.1168
  235MOL    H6847336   5.325   4.835   1.102 -1.9682 -0.7861 -0.1696
  235MOL    H6947337   5.216   4.905   1.212 -0.1340  0.2300 -0.9561
  235MOL    H7047338   5.514   4.978   1.185  0.1246 -0.2339  1.1231
  235MOL    H7147339   5.389   5.072   1.282 -0.7419  0.6448 -0.6534
  235MOL    O7247340   5.366   5.064   1.076  0.0958 -0.2134  0.4016
  235MOL    C7347341   5.418   5.194   1.045  0.1427 -0.1623  0.2315
  235MOL    C7447342   5.316   5.259   0.948  0.0918 -0.1381 -0.9101
  235MOL    C7547343   5.368   5.391   0.882 -0.5630  0.0740  0.4149
  235MOL    H7647344   5.513   5.188   0.992  0.6756 -0.1544  1.1795
  235MOL    H7747345   5.418   5.252   1.137 -1.5367 -0.7592  0.6221
  235MOL    H7847346   5.286   5.191   0.868 -0.6563 -0.0860 -0.6802
  235MOL    H7947347   5.227   5.279   1.008  0.8913  0.2356  0.1653
  235MOL    H8047348   5.456   5.377   0.819 -1.3325  2.1966 -1.2024
  235MOL    H8147349   5.408   5.447   0.967 -0.0255 -0.6691  0.6656
  235MOL    O8247350   5.270   5.449   0.804  0.1366 -0.5527  0.2943
  235MOL    C8347351   5.307   5.576   0.750  0.6365 -0.0956  0.1444
  235MOL    C8447352   5.205   5.641   0.656 -0.6998  0.2113 -0.6525
  235MOL    C8547353   5.260   5.763   0.591 -0.8755  0.2692  0.5186
  235MOL    H8647354   5.402   5.558   0.699  0.9597  0.3439  0.5802
  235MOL    H8747355   5.322   5.642   0.836  2.8962 -0.2491 -0.1082
  235MOL    H8847356   5.178   5.570   0.577  0.6671 -0.7946 -0.2319
  235MOL    H8947357   5.115   5.671   0.710  0.4065  1.0717  0.7410
  235MOL    H9047358   5.202   5.777   0.500 -1.5587  3.1628  1.3276
  235MOL    H9147359   5.360   5.728   0.567 -2.1747 -1.7274 -2.1808
  235MOL    O9247360   5.267   5.867   0.684  0.0456 -0.1589 -0.4016
  235MOL    C9347361   5.339   5.983   0.644 -0.0849  0.2941 -0.0381
  235MOL    C9447362   5.332   6.085   0.756 -0.4090  0.8325 -0.2553
  235MOL    C9547363   5.406   6.214   0.725 -0.0373 -0.5459 -0.4820
  235MOL    H9647364   5.287   6.024   0.557 -0.5796 -1.9507 -0.8510
  235MOL    H9747365   5.444   5.962   0.623 -0.6071 -2.4560 -0.1735
  235MOL    H9847366   5.230   6.121   0.767 -0.4943  1.5076 -2.9897
  235MOL    H9947367   5.366   6.040   0.849 -2.2819 -0.1063 -0.0017
  235MOL   H10047368   5.382   6.294   0.795  0.8152 -3.0185  2.7690
  235MOL   H10147369   5.388   6.261   0.628 -1.1104  4.2849  1.9483
  235MOL   O10247370   5.548   6.211   0.738 -0.4756  0.1319  1.0291
  235MOL   C10347371   5.614   6.332   0.755 -0.8458  0.4730 -0.8382
  235MOL   C10447372   5.624   6.419   0.628  0.1307 -0.2971 -0.3898
  235MOL   C10547373   5.708   6.362   0.518 -0.0717 -0.1586  0.4077
  235MOL   H10647374   5.715   6.311   0.790 -1.6125 -0.7752  0.7159
  235MOL   H10747375   5.571   6.387   0.839  0.7032 -1.3897  1.2746
  235MOL   H10847376   5.525   6.454   0.601  1.0422 -0.8846 -4.8040
  235MOL   H10947377   5.672   6.516   0.644  3.6127 -1.8300 -0.9345
  235MOL   H11047378   5.662   6.269   0.486  0.3172  0.4448 -1.9739
  235MOL   H11147379   5.806   6.337   0.559 -0.2235  1.2171  1.6534
  235MOL   O11247380   5.704   6.459   0.416  0.1781 -0.4416 -0.2983
  235MOL   C11347381   5.794   6.434   0.314  0.1038  0.0599 -0.5203
  235MOL   C11447382   5.744   6.511   0.189 -0.3251  0.8350 -0.1713
  235MOL   C11547383   5.808   6.462   0.053 -0.2286  0.6755  0.7998
  235MOL   H11647384   5.799   6.327   0.292  1.4746  0.0191 -0.0843
  235MOL   H11747385   5.898   6.447   0.346 -0.1527  0.2636  0.2280
  235MOL   H11847386   5.635   6.510   0.189 -0.3369 -2.4934 -0.4053
  235MOL   H11947387   5.786   6.611   0.203  3.2053 -0.6503  0.3266
  235MOL   H12047388   5.757   6.509   7.757  0.8269 -0.7069 -0.6406
  235MOL   H12147389   5.798   6.354   0.044  1.5012  0.7028 -1.9568
  235MOL   O12247390   5.942   6.497   0.045 -0.2919 -0.3040  0.3973
  235MOL   C12347391   6.013   6.440   7.727 -0.4370  0.4273 -0.0059
  235MOL   C12447392   6.110   6.328   7.771 -0.5243  0.1262 -0.5969
  235MOL   C12547393   6.045   6.214   0.063  0.3756 -0.0996 -0.7233
  235MOL   H12647394   6.074   6.513   7.675  1.1989 -1.2756 -0.5286
  235MOL   H12747395   5.951   6.391   7.652  0.0191  0.4770 -0.4138
  235MOL   H12847396   6.171   6.278   7.696 -0.0294  0.7988 -0.6516
  235MOL   H12947397   6.186   6.372   0.048 -1.3209  1.9528 -0.8613
  235MOL   H13047398   5.967   6.163   0.007 -2.3778  0.0447  2.7992
  235MOL   H13147399   5.982   6.262   0.139  0.8343 -1.2112  0.3694
  235MOL   O13247400   6.142   6.115   0.108  0.3455 -0.0513 -0.1947
  235MOL   C13347401   6.086   6.012   0.191 -0.1845 -0.3616  0.6110
  235MOL   C13447402   6.171   5.880   0.179  0.5099  0.2724  0.0121
  235MOL   C13547403   6.093   5.759   0.231  1.4861  0.0225 -0.5909
  235MOL   H13647404   5.981   5.986   0.180 -0.1773 -0.8170  1.5517
  235MOL   H13747405   6.078   6.037   0.297 -1.3935  0.1077  0.4273
  235MOL   H13847406   6.201   5.862   0.076 -2.4481  3.1271 -1.4032
  235MOL   H13947407   6.259   5.883   0.244  2.0400 -2.8554 -1.7872
  235MOL   H14047408   6.016   5.723   0.162  1.6963  0.0136 -0.8176
  235MOL   H14147409   6.038   5.769   0.325  0.1914 -0.1493 -1.3167
  235MOL   O14247410   6.188   5.660   0.255 -0.4941 -0.0001  0.6222
  235MOL   C14347411   6.124   5.534   0.284 -0.0299  0.2967 -0.0508
  235MOL   C14447412   6.232   5.426   0.282 -0.4582 -0.3079  0.3729
  235MOL   C14547413   6.172   5.287   0.316  0.1139 -0.0883  0.2505
  235MOL   H14647414   6.045   5.515   0.212  0.5406 -0.6021 -0.4427
  235MOL   H14747415   6.077   5.521   0.382 -0.9478 -0.0981 -0.5431
  235MOL   H14847416   6.270   5.425   0.180 -0.9499  1.1110  0.1689
  235MOL   H14947417   6.326   5.450   0.332 -1.3970  0.0141  2.0325
  235MOL   H15047418   6.113   5.247   0.234  0.6127 -2.5537  1.0625
  235MOL   H15147419   6.104   5.295   0.401  1.5513 -1.9425  1.6298
  235MOL   O15247420   6.279   5.201   0.350  0.2932  0.3241 -0.2848
  235MOL   C15347421   6.241   5.066   0.358 -0.0535  0.2902  0.1327
  235MOL   C15447422   6.373   5.008   0.397 -0.0120  0.5967 -0.1137
  235MOL   C15547423   6.370   4.859   0.440  0.0157  0.4971  0.1449
  235MOL   H15647424   6.213   5.028   0.260  0.5254  1.8690 -0.6778
  235MOL   H15747425   6.157   5.055   0.426 -0.4321 -2.0061 -0.6725
  235MOL   H15847426   6.436   5.012   0.308 -2.1458 -0.7192 -1.7211
  235MOL   H15947427   6.414   5.073   0.474 -0.8334  1.6512 -0.5465
  235MOL   H16047428   6.310   4.799   0.371  0.4372 -0.2539  0.4282
  235MOL   H16147429   6.329   4.842   0.540 -1.3055 -1.5844 -0.7155
  235MOL   O16247430   6.503   4.803   0.446 -0.1776  0.1436 -0.2702
  235MOL   C16347431   6.499   4.660   0.457  0.0638 -0.8523  0.4516
  235MOL   C16447432   6.635   4.605   0.425 -0.7844  0.4557 -0.7506
  235MOL   C16547433   6.726   4.620   0.546 -0.3194 -0.0767  0.2320
  235MOL   H16647434   6.429   4.613   0.388 -1.3315 -0.1528  1.3798
  235MOL   H16747435   6.469   4.635   0.558 -2.4486 -1.6445 -0.4557
  235MOL   H16847436   6.626   4.496   0.422 -1.3164  0.5181 -1.8862
  235MOL   H16947437   6.660   4.648   0.328  1.4669 -1.1670 -0.9222
  235MOL   H17047438   6.689   4.574   0.637 -1.1292  1.7793  0.8699
  235MOL   H17147439   6.718   4.728   0.562 -2.7041  0.2170 -2.6347
  235MOL   O17247440   6.860   4.575   0.516  0.4324 -0.4440 -0.5585
  235MOL   C17347441   6.957   4.593   0.617 -0.7467 -0.5481  0.2071
  235MOL   C17447442   7.103   4.584   0.558 -0.4623  0.6559 -0.0259
  235MOL   C17547443   7.192   4.571   0.681  0.1569  0.5594 -0.3864
  235MOL   H17647444   6.948   4.510   0.687 -1.6530 -0.8945 -0.3145
  235MOL   H17747445   6.926   4.678   0.679 -0.9688 -0.7197  0.3331
  235MOL   H17847446   7.114   4.492   0.501  1.9680  1.6723 -1.2923
  235MOL   H17947447   7.138   4.666   0.495 -3.9390  1.5980 -0.8109
  235MOL   H18047448   7.172   4.478   0.735  1.5200  0.8346  0.6316
  235MOL   H18147449   7.155   4.638   0.758  1.9280 -1.0657  1.9836
  235MOL   O18247450   7.325   4.581   0.643 -0.0505  0.1540 -0.2298
  235MOL   C18347451   7.415   4.537   0.741  0.1965 -0.3278  0.5826
  235MOL   C18447452   7.540   4.480   0.680 -0.2225 -0.1631 -0.0027
  235MOL   C18547453   7.634   4.444   0.793 -0.0018 -0.0573  0.3489
  235MOL   H18647454   7.374   4.459   0.805 -0.8445  0.1567  0.5152
  235MOL   H18747455   7.440   4.622   0.805 -0.9005 -0.5365  1.3095
  235MOL   H18847456   7.523   4.388   0.625  0.1013 -0.3368  0.1858
  235MOL   H18947457   7.591   4.561   0.626 -1.4274  1.1373  0.7734
  235MOL   H19047458   7.581   4.386   0.868 -1.1429  0.1622 -0.2669
  235MOL   H19147459   7.677   4.533   0.840 -1.6070 -0.1683  2.0841
  235MOL   O19247460   7.735   4.365   0.738 -0.1179  0.3413 -0.4980
  235MOL   C19347461   0.046   4.350   0.838 -0.4260  0.4369 -1.0007
  235MOL   C19447462   0.150   4.238   0.800 -0.5874 -0.1738  0.8480
  235MOL   C19547463   0.233   4.275   0.680 -0.4654  0.1787  0.0042
  235MOL   H19647464   0.002   4.335   0.937 -0.3865  0.7405 -0.9375
  235MOL   H19747465   0.100   4.444   0.845  0.2718 -0.1349  1.9775
  235MOL   H19847466   0.217   4.200   0.877 -1.9024 -2.5633  0.8534
  235MOL   H19947467   0.091   4.148   0.783 -1.1092 -0.0360  1.9614
  235MOL   H20047468   0.177   4.320   0.598 -1.1241  0.9856  0.8900
  235MOL   H20147469   0.287   4.188   0.643 -0.5600  0.4653 -0.8183
  235MOL   H20247470   0.308   4.350   0.708 -1.7865  2.0738 -1.3925
  236MOL     O147471   1.492   5.639   2.662  0.2293 -0.1968  0.9205
  236MOL     C247472   1.451   5.755   2.740 -0.3104  0.2095 -0.1702
  236MOL     C347473   1.474   5.890   2.673  0.3604  0.0836  0.2288
  236MOL     C447474   1.437   6.014   2.748  0.0291 -1.0461 -0.0999
  236MOL     H547475   1.505   5.754   2.835  1.2652 -0.5592 -1.0698
  236MOL     H647476   1.345   5.742   2.764 -0.0401 -0.7233  0.5389
  236MOL     H747477   1.575   5.888   2.632  0.0193 -1.0695 -0.5912
  236MOL     H847478   1.423   5.898   2.577  0.8464 -2.7737 -0.3003
  236MOL     H947479   1.492   6.011   2.842 -1.1987  1.4267  0.7502
  236MOL    H1047480   1.333   6.007   2.778  0.0814  0.2259  0.4104
  236MOL    H1147481   1.531   5.569   2.711  2.2593  0.6560  0.5814
  236MOL    O1247482   1.464   6.130   2.665 -0.3463  0.4965 -0.3615
  236MOL    C1347483   1.432   6.249   2.733 -0.4265  0.5224 -0.1190
  236MOL    C1447484   1.509   6.380   2.678 -0.4152  0.3879  0.9671
  236MOL    C1547485   1.493   6.502   2.764  0.2919 -0.0714 -0.4733
  236MOL    H1647486   1.468   6.241   2.836 -1.1000  3.0782  0.3624
  236MOL    H1747487   1.324   6.263   2.736 -0.5590 -0.4971 -0.0363
  236MOL    H1847488   1.614   6.349   2.685 -0.6562 -0.9860 -0.9781
  236MOL    H1947489   1.469   6.385   2.577  1.9724  3.3122  0.0789
  236MOL    H2047490   1.548   6.490   2.857  0.8195  0.5687 -0.7032
  236MOL    H2147491   1.388   6.533   2.768  0.5633  1.0890 -2.1378
  236MOL    O2247492   1.563   6.609   2.696  0.6674 -0.1677 -0.0308
  236MOL    C2347493   1.545   6.736   2.747  0.6221  0.1588  0.1807
  236MOL    C2447494   1.563   6.837   2.635 -0.2620 -0.7004  0.1229
  236MOL    C2547495   1.567   6.983   2.691  0.7389 -0.0292 -0.1133
  236MOL    H2647496   1.620   6.758   2.822 -0.3649  2.0618  0.6450
  236MOL    H2747497   1.447   6.754   2.792  0.6114  1.7755 -0.4463
  236MOL    H2847498   1.657   6.819   2.584 -0.6234  1.2392 -1.2803
  236MOL    H2947499   1.487   6.823   2.557 -1.1041 -0.1817  0.8497
  236MOL    H3047500   1.472   7.005   2.738 -0.1082 -0.3799 -1.6386
  236MOL    H3147501   1.581   7.062   2.617  1.6599  0.1263  0.2109
  236MOL    O3247502   1.662   7.002   2.791  0.6907  0.7843  0.2017
  236MOL    C3347503   1.669   7.131   2.849 -0.2460  0.0744 -0.2509
  236MOL    C3447504   1.761   7.113   2.976  0.1288 -0.1922 -0.5392
  236MOL    C3547505   1.767   7.231   3.074 -0.2362 -0.8399  0.7734
  236MOL    H3647506   1.571   7.175   2.868 -0.6966 -0.5865 -1.0448
  236MOL    H3747507   1.722   7.197   2.780 -0.1565  0.2693  0.0011
  236MOL    H3847508   1.734   7.020   3.027  0.5319 -0.6177 -1.0906
  236MOL    H3947509   1.866   7.098   2.949  0.4889 -0.5597  1.0281
  236MOL    H4047510   1.666   7.246   3.112 -0.9402  0.4493 -1.4622
  236MOL    H4147511   1.797   7.317   3.014 -0.4459 -0.5016  1.1469
  236MOL    O4247512   1.858   7.208   3.188 -0.4684  1.0106 -0.0014
  236MOL    C4347513   1.910   7.327   3.239 -0.5429 -0.3466 -0.2340
  236MOL    C4447514   2.001   7.315   3.358 -0.3165  0.5736  0.3347
  236MOL    C4547515   2.075   7.443   3.405 -0.1252 -0.0532 -0.5568
  236MOL    H4647516   1.827   7.393   3.265 -1.0174 -0.7094 -0.8289
  236MOL    H4747517   1.964   7.379   3.160 -1.5752 -1.3922 -1.6439
  236MOL    H4847518   1.954   7.266   3.443  1.6715 -1.9212  0.0376
  236MOL    H4947519   2.077   7.245   3.323 -0.5349  1.2061 -1.4315
  236MOL    H5047520   2.154   7.470   3.335  1.3572  1.2929  1.5818
  236MOL    H5147521   2.123   7.407   3.496 -0.8983  1.3537  0.4210
  236MOL    O5247522   1.995   7.552   3.439  0.0187 -0.6642  0.6509
  236MOL    C5347523   2.051   7.659   3.514  0.3019  0.8707 -0.1215
  236MOL    C5447524   1.965   7.786   3.509  0.2310  0.1571 -0.2537
  236MOL    C5547525   1.943   0.055   3.370 -1.0661  0.3409 -0.7235
  236MOL    H5647526   2.147   7.683   3.467  0.6713 -0.9588 -0.3513
  236MOL    H5747527   2.062   7.621   3.615  0.6512 -2.1905 -1.2407
  236MOL    H5847528   1.870   7.774   3.561  0.4850  0.0529  0.1930
  236MOL    H5947529   2.019   0.081   3.555  2.9673 -0.8155 -1.6476
  236MOL    H6047530   1.886   7.766   3.317 -0.8748  0.4276 -1.0557
  236MOL    H6147531   2.043   0.067   3.328  1.1839 -2.0284  3.6176
  236MOL    O6247532   1.871   0.169   3.369  0.2450  0.1630 -0.6156
  236MOL    C6347533   1.876   0.251   3.254  0.0228  0.4281 -0.5108
  236MOL    C6447534   1.992   0.354   3.258  0.8666 -0.2532  0.1731
  236MOL    C6547535   2.003   0.411   3.115  0.4616 -0.7825  0.3142
  236MOL    H6647536   1.791   0.319   3.256  0.4160  0.9030  0.8877
  236MOL    H6747537   1.864   0.192   3.163 -0.5530 -0.7045  0.2794
  236MOL    H6847538   1.965   0.434   3.327 -1.1375 -0.9194  0.2084
  236MOL    H6947539   2.084   0.305   3.287  1.3324  0.0726 -0.7506
  236MOL    H7047540   1.912   0.460   3.081 -0.1996 -1.6623  0.7991
  236MOL    H7147541   2.028   0.334   3.042  1.1753  0.6382 -0.9830
  236MOL    O7247542   2.112   0.507   3.109 -0.3099 -0.4217 -0.0585
  236MOL    C7347543   2.139   0.547   2.972  0.3567 -0.6457  0.6874
  236MOL    C7447544   2.203   0.686   2.966 -0.1187  0.5206  0.1402
  236MOL    C7547545   2.250   0.719   2.826 -0.2578  0.3237  0.7270
  236MOL    H7647546   2.062   0.541   2.895 -0.6609 -1.0500  1.7201
  236MOL    H7747547   2.208   0.472   2.933 -1.7986 -2.0673 -0.4817
  236MOL    H7847548   2.129   0.762   2.991 -2.0474 -0.8662 -1.1520
  236MOL    H7947549   2.289   0.694   3.033  0.1577  1.7528 -0.3597
  236MOL    H8047550   2.286   0.819   2.801 -1.1320 -0.0325 -2.1307
  236MOL    H8147551   2.153   0.715   2.777  0.2163 -1.2512 -0.1142
  236MOL    O8247552   2.350   0.631   2.781  0.2401  0.1716 -0.1272
  236MOL    C8347553   2.345   0.592   2.648 -0.1824 -0.2683 -0.4280
  236MOL    C8447554   2.435   0.472   2.632 -0.1149 -0.2822 -0.2686
  236MOL    C8547555   2.435   0.432   2.481 -0.0461 -0.1289 -0.7204
  236MOL    H8647556   2.399   0.673   2.598 -0.4316 -0.6666 -1.3457
  236MOL    H8747557   2.246   0.589   2.603  0.1848 -0.4866 -1.2244
  236MOL    H8847558   2.534   0.497   2.668 -0.9088  2.5792 -0.0044
  236MOL    H8947559   2.397   0.393   2.697 -1.9011  0.6795 -0.1251
  236MOL    H9047560   2.333   0.418   2.445  0.3987  0.2720 -2.1375
  236MOL    H9147561   2.482   0.335   2.463 -4.1228 -2.5169  0.6020
  236MOL    O9247562   2.496   0.536   2.396 -0.3224  0.3869 -0.3691
  236MOL    C9347563   2.462   0.528   2.259 -0.0401 -0.2427 -0.0801
  236MOL    C9447564   2.532   0.403   2.204  0.8581 -0.4374  0.4311
  236MOL    C9547565   2.535   0.379   2.054  0.3441 -0.6397  0.3464
  236MOL    H9647566   2.477   0.624   2.209 -1.8710 -0.4396 -1.0447
  236MOL    H9747567   2.355   0.521   2.242 -0.1908  1.4166  0.0869
  236MOL    H9847568   2.629   0.388   2.251  1.6024  0.8645 -0.6483
  236MOL    H9947569   2.483   0.308   2.230  0.5766 -0.5448 -0.4540
  236MOL   H10047570   2.617   0.437   2.012  1.5222 -2.5030  0.0106
  236MOL   H10147571   2.449   0.421   2.001  0.0521 -1.0086  0.5274
  236MOL   O10247572   2.554   0.241   2.023  0.5226 -0.0979 -0.1092
  236MOL   C10347573   2.520   0.198   1.890 -0.1136 -0.2721 -0.9549
  236MOL   C10447574   2.614   0.264   1.794  0.0321  0.1458 -0.7479
  236MOL   C10547575   2.600   0.213   1.652  0.3268 -0.0173 -0.1963
  236MOL   H10647576   2.416   0.224   1.872 -0.3190  0.5570  1.1987
  236MOL   H10747577   2.540   0.090   1.894 -0.7746 -0.3267  1.9854
  236MOL   H10847578   2.593   0.371   1.793  1.0846  0.3512 -0.8634
  236MOL   H10947579   2.708   0.237   1.842 -1.2656 -1.5011  0.9521
  236MOL   H11047580   2.500   0.223   1.611 -0.3566 -0.4291  1.3417
  236MOL   H11147581   2.624   0.106   1.651  0.5742  0.0341  0.0332
  236MOL   O11247582   2.703   0.273   1.570 -0.0731 -0.0153  0.6347
  236MOL   C11347583   2.722   0.219   1.441 -0.7509 -0.2081  0.5354
  236MOL   C11447584   2.854   0.274   1.392 -0.4012 -0.6682  0.6113
  236MOL   C11547585   2.847   0.410   1.326  0.1560  0.9887  0.4051
  236MOL   H11647586   2.646   0.233   1.365 -0.7661 -0.9329  0.4148
  236MOL   H11747587   2.733   0.111   1.450 -0.9036 -0.2325  0.4312
  236MOL   H11847588   2.921   0.278   1.478  0.9837 -1.4344 -0.4183
  236MOL   H11947589   2.898   0.194   1.332  1.1373  0.7710 -0.2396
  236MOL   H12047590   2.754   0.461   1.353  0.2543  0.9556  0.8144
  236MOL   H12147591   2.840   0.397   1.219  0.5762 -1.4248  0.6518
  236MOL   O12247592   2.959   0.488   1.369 -0.3279  0.0156 -0.5792
  236MOL   C12347593   3.058   0.507   1.272  0.5808 -0.0637 -0.0705
  236MOL   C12447594   3.186   0.553   1.344  0.4641 -0.3940  0.2090
  236MOL   C12547595   3.317   0.544   1.253  0.6851  0.3016  0.1387
  236MOL   H12647596   3.013   0.575   1.200  0.7166 -1.1721 -1.1969
  236MOL   H12747597   3.076   0.406   1.236 -0.5238 -0.0682 -0.6249
  236MOL   H12847598   3.177   0.656   1.377  1.3408  0.2130 -1.3863
  236MOL   H12947599   3.195   0.499   1.438  1.4911  0.3151  0.5302
  236MOL   H13047600   3.295   0.587   1.155  0.8841  1.4578  0.5960
  236MOL   H13147601   3.337   0.443   1.217 -1.4762 -0.5896  1.3700
  236MOL   O13247602   3.433   0.604   1.311  0.3638  0.2692 -0.6510
  236MOL   C13347603   3.467   0.538   1.431 -0.1138 -0.3734  0.7653
  236MOL   C13447604   3.611   0.560   1.466 -0.5447  0.5305  0.5180
  236MOL   C13547605   3.631   0.516   1.612  0.8104 -0.0086  0.9186
  236MOL   H13647606   3.435   0.435   1.417 -1.9789  0.1323  1.1714
  236MOL   H13747607   3.402   0.588   1.503 -2.0903  0.4849 -1.5286
  236MOL   H13847608   3.687   0.521   1.398 -2.6587 -3.1166  0.1649
  236MOL   H13947609   3.636   0.667   1.468 -1.3588  0.7233  0.3279
  236MOL   H14047610   3.604   0.411   1.604  0.5618  0.2306 -2.0896
  236MOL   H14147611   3.552   0.559   1.674  0.1132  0.0102  0.0308
  236MOL   O14247612   3.762   0.539   1.662  0.4781 -0.2242  0.1608
  236MOL   C14347613   3.804   0.470   1.777 -0.0581  0.1405 -0.1127
  236MOL   C14447614   3.912   0.559   1.842 -0.3081 -0.5973 -0.4477
  236MOL   C14547615   3.940   0.520   1.987  0.2302 -0.1800  0.2118
  236MOL   H14647616   3.827   0.364   1.773  0.2698  0.2647 -1.5264
  236MOL   H14747617   3.716   0.474   1.841 -2.7466 -1.1090 -3.5712
  236MOL   H14847618   4.002   0.547   1.781 -1.2372 -5.5412 -1.0883
  236MOL   H14947619   3.882   0.661   1.820 -1.1873 -0.5641  0.8500
  236MOL   H15047620   3.971   0.416   1.994 -0.9130 -0.4484  1.5180
  236MOL   H15147621   3.857   0.533   2.057 -0.4905  0.3663 -0.7293
  236MOL   O15247622   4.036   0.616   2.039 -0.7320  0.4503 -0.5348
  236MOL   C15347623   4.077   0.588   2.172 -0.0035 -0.3229  0.4161
  236MOL   C15447624   4.178   0.691   2.219  0.1225 -0.2041  0.1617
  236MOL   C15547625   4.250   0.657   2.351 -0.3379  0.5623 -0.3324
  236MOL   H15647626   4.115   0.486   2.177 -0.1194 -0.2591  3.3469
  236MOL   H15747627   3.990   0.587   2.238 -1.4721  1.6656 -1.4027
  236MOL   H15847628   4.249   0.699   2.136 -0.5474 -0.2569 -0.4258
  236MOL   H15947629   4.145   0.795   2.220  4.1137  1.1324  0.7840
  236MOL   H16047630   4.299   0.745   2.393  0.4377  1.2450 -2.5908
  236MOL   H16147631   4.328   0.586   2.322 -0.6126  0.9171 -2.0201
  236MOL   O16247632   4.175   0.589   2.448 -0.5083  0.2567 -0.3593
  236MOL   C16347633   4.245   0.597   2.576  0.2807 -0.6690  0.1027
  236MOL   C16447634   4.177   0.485   2.660 -0.2816 -0.3623 -0.7739
  236MOL   C16547635   4.176   0.346   2.587 -0.1002 -1.1774 -0.1991
  236MOL   H16647636   4.245   0.695   2.624  0.5842 -0.9170  0.6228
  236MOL   H16747637   4.349   0.572   2.557  0.6970  0.8395  0.3803
  236MOL   H16847638   4.228   0.472   2.756 -3.2195  0.0065  0.8823
  236MOL   H16947639   4.078   0.525   2.677 -0.3722 -1.6516  2.1157
  236MOL   H17047640   4.270   0.322   2.539 -0.1401  0.5911 -1.1972
  236MOL   H17147641   4.090   0.331   2.520 -0.6117 -3.7038  0.9510
  236MOL   O17247642   4.165   0.264   2.700  0.2168  0.0552  0.2202
  236MOL   C17347643   4.184   0.122   2.679  0.1467  0.3061 -0.1546
  236MOL   C17447644   4.045   0.054   2.639 -0.1929  0.6864 -0.2420
  236MOL   C17547645   4.057   7.697   2.604  0.0576  0.3444 -0.6433
  236MOL   H17647646   4.215   0.088   2.778  2.8335  0.2718 -0.9514
  236MOL   H17747647   4.257   0.092   2.604 -0.0947 -0.6817 -0.0001
  236MOL   H17847648   3.986   0.063   2.730 -2.4837 -1.7768 -1.4203
  236MOL   H17947649   3.996   0.118   2.565 -0.3320  1.8012  0.7980
  236MOL   H18047650   4.123   7.687   2.518  0.3531 -1.5849 -0.2114
  236MOL   H18147651   3.962   7.652   2.575  0.2607  0.2937 -1.2352
  236MOL   O18247652   4.117   7.617   2.706 -0.5175 -0.0657  0.1191
  236MOL   C18347653   4.108   7.477   2.675  0.0526 -0.5671 -0.3850
  236MOL   C18447654   4.172   7.394   2.795 -0.5094 -0.2508  0.4485
  236MOL   C18547655   4.148   7.256   2.763 -0.1164 -0.3589  0.1551
  236MOL   H18647656   4.163   7.461   2.583 -2.3784 -0.2296 -1.9211
  236MOL   H18747657   4.007   7.439   2.661  1.2326 -3.4098 -1.6492
  236MOL   H18847658   4.277   7.422   2.798 -0.7828  1.2073 -1.8280
  236MOL   H18947659   4.137   7.424   2.894  1.9755 -0.4763  1.4210
  236MOL   H19047660   4.199   7.220   2.674  0.5124  1.5677 -0.2805
  236MOL   H19147661   4.041   7.240   2.767  0.1287 -1.6665  2.4598
  236MOL   O19247662   4.204   7.194   2.876  0.3607  0.1249 -0.1959
  236MOL   C19347663   4.245   7.061   2.859 -0.1898  0.0765 -0.0573
  236MOL   C19447664   4.257   7.003   3.006  0.0739  0.0767 -0.0624
  236MOL   C19547665   4.345   7.083   3.096 -0.2299 -0.1672  0.4678
  236MOL   H19647666   4.342   7.062   2.809 -0.7335 -2.0643 -1.2046
  236MOL   H19747667   4.182   6.990   2.805  0.9250 -0.6922 -0.3745
  236MOL   H19847668   4.159   7.004   3.055  0.5082  1.3088  0.7997
  236MOL   H19947669   4.275   6.895   3.009 -0.4076  0.0032  0.3575
  236MOL   H20047670   4.448   7.072   3.063 -0.0905  1.5930  0.2886
  236MOL   H20147671   4.345   7.069   3.204  0.4340  3.2925  0.9943
  236MOL   H20247672   4.315   7.187   3.081 -1.5348 -0.7720 -1.2384
  237MOL     O147673   7.205   0.954   4.530  0.0341 -0.1659 -0.3361
  237MOL     C247674   7.083   0.935   4.460 -0.5641  0.6265 -0.2010
  237MOL     C347675   6.970   0.972   4.551  0.6178 -0.4384  0.6548
  237MOL     C447676   6.835   0.949   4.485 -1.6337  0.6439 -0.2319
  237MOL     H547677   7.093   0.827   4.444  2.6974  1.0170 -1.1358
  237MOL     H647678   7.086   0.996   4.370  1.8647  0.8408 -0.0011
  237MOL     H747679   6.970   0.914   4.644  2.0559 -0.8605  0.4011
  237MOL     H847680   6.984   1.080   4.563 -1.2685  0.0931 -1.5734
  237MOL     H947681   6.813   0.842   4.475 -3.0725  0.9492 -0.5049
  237MOL    H1047682   6.836   0.988   4.384 -1.3775  0.2980 -0.3639
  237MOL    H1147683   7.241   1.040   4.513  0.3321  0.3617  2.7024
  237MOL    O1247684   6.733   1.006   4.568 -0.1742  0.0279 -0.4572
  237MOL    C1347685   6.610   1.017   4.498  0.1491 -0.1433  0.1147
  237MOL    C1447686   6.495   1.039   4.600 -0.2458 -0.4006  0.6149
  237MOL    C1547687   6.371   1.097   4.541 -0.5523  0.1131  0.4887
  237MOL    H1647688   6.602   0.924   4.441 -3.0063 -0.3886  0.8335
  237MOL    H1747689   6.617   1.103   4.431  1.0334  1.2898  2.0195
  237MOL    H1847690   6.473   0.943   4.647 -0.5857 -0.7853 -0.3233
  237MOL    H1947691   6.531   1.110   4.674  0.5485 -0.0665 -0.0878
  237MOL    H2047692   6.279   1.063   4.588 -0.6483  0.0901  0.2871
  237MOL    H2147693   6.366   1.063   4.438 -3.1591  1.0699  0.2548
  237MOL    O2247694   6.379   1.239   4.540 -0.1961 -0.0588 -0.7662
  237MOL    C2347695   6.259   1.296   4.502 -0.4202 -0.4092 -0.1763
  237MOL    C2447696   6.237   1.278   4.351 -0.0417 -0.3744 -0.8624
  237MOL    C2547697   6.334   1.355   4.262  0.0508 -0.4950  0.0613
  237MOL    H2647698   6.271   1.401   4.526  1.1156 -0.3954 -0.9291
  237MOL    H2747699   6.179   1.251   4.560 -0.6801  1.6121  1.0595
  237MOL    H2847700   6.233   1.170   4.333  0.6621 -0.8711  1.8316
  237MOL    H2947701   6.135   1.315   4.340 -0.6126 -1.4123  0.8259
  237MOL    H3047702   6.433   1.314   4.281  0.6343  0.2078 -1.3990
  237MOL    H3147703   6.341   1.463   4.280 -1.0988 -0.6253  1.4244
  237MOL    O3247704   6.315   1.319   4.130 -0.2095 -0.5043 -0.4168
  237MOL    C3347705   6.340   1.424   4.037 -0.0609 -0.5194 -0.3975
  237MOL    C3447706   6.302   1.384   3.894  0.3546  0.4252 -0.3058
  237MOL    C3547707   6.331   1.490   3.789 -0.8633  0.5115 -0.0527
  237MOL    H3647708   6.445   1.453   4.041 -0.0921 -0.4867  0.1847
  237MOL    H3747709   6.284   1.513   4.069 -2.4814 -2.0521 -0.2445
  237MOL    H3847710   6.343   1.287   3.867  2.0382  1.0353 -0.0263
  237MOL    H3947711   6.194   1.369   3.897  0.0895  2.1928 -0.4154
  237MOL    H4047712   6.437   1.517   3.792  0.7740 -4.8475 -2.4270
  237MOL    H4147713   6.268   1.577   3.803 -1.0333  0.1285  1.6718
  237MOL    O4247714   6.298   1.426   3.666  0.1251 -0.0909  0.2135
  237MOL    C4347715   6.291   1.524   3.566  0.2691  0.0845  0.0853
  237MOL    C4447716   6.415   1.510   3.479 -0.1378 -0.2346  0.2440
  237MOL    C4547717   6.412   1.613   3.352 -0.3910  0.1196 -0.8427
  237MOL    H4647718   6.291   1.625   3.608 -0.7012 -0.3736  1.1897
  237MOL    H4747719   6.204   1.519   3.500  1.9248  0.2015 -2.1752
  237MOL    H4847720   6.498   1.519   3.548 -0.2394 -0.2292  0.3639
  237MOL    H4947721   6.417   1.405   3.448  3.2813  0.5397 -2.5406
  237MOL    H5047722   6.307   1.633   3.329 -0.0400  2.5393 -0.4649
  237MOL    H5147723   6.466   1.582   3.263  1.0237  0.8846 -0.2631
  237MOL    O5247724   6.461   1.737   3.392  0.7476 -0.1140  0.0992
  237MOL    C5347725   6.479   1.829   3.292 -0.2109 -0.5888  1.4564
  237MOL    C5447726   6.534   1.956   3.357 -0.5427 -0.6880  0.9736
  237MOL    C5547727   6.540   2.069   3.252 -0.3195  0.0761 -0.0259
  237MOL    H5647728   6.379   1.851   3.254  0.2075  0.1340  0.7547
  237MOL    H5747729   6.550   1.793   3.217 -0.4848 -0.5303  1.1671
  237MOL    H5847730   6.470   1.984   3.441 -1.4280 -0.2532  0.1682
  237MOL    H5947731   6.628   1.930   3.406  0.7448 -1.6327 -1.8996
  237MOL    H6047732   6.452   2.077   3.188  0.0959  2.2040 -0.3769
  237MOL    H6147733   6.626   2.046   3.190  0.5813  3.4359 -0.1242
  237MOL    O6247734   6.562   2.202   3.315  0.5334  0.1783  0.0538
  237MOL    C6347735   6.564   2.314   3.226  0.2643 -0.2370 -0.0516
  237MOL    C6447736   6.546   2.444   3.311  0.3135  0.0769 -0.2792
  237MOL    C6547737   6.514   2.565   3.223 -0.3183  0.6800  0.3679
  237MOL    H6647738   6.477   2.285   3.166  1.1320 -0.8165 -1.0467
  237MOL    H6747739   6.641   2.311   3.149 -0.0709  0.9094 -0.4518
  237MOL    H6847740   6.471   2.424   3.388  0.2739 -1.2499 -0.6429
  237MOL    H6947741   6.637   2.461   3.367 -0.1280  2.2417 -0.1701
  237MOL    H7047742   6.580   2.565   3.136 -2.8091  0.2640 -1.5933
  237MOL    H7147743   6.518   2.661   3.274  0.2260  1.2469 -0.7260
  237MOL    O7247744   6.379   2.552   3.168 -0.3963  0.2600  0.2269
  237MOL    C7347745   6.318   2.664   3.114 -0.5922  0.2924  0.0737
  237MOL    C7447746   6.179   2.637   3.055  0.4122 -0.1806 -0.3389
  237MOL    C7547747   6.183   2.548   2.929  0.0572 -0.9826  0.7238
  237MOL    H7647748   6.385   2.711   3.042  0.7387  0.7244  1.5518
  237MOL    H7747749   6.303   2.737   3.194  0.5541 -1.4761  1.9342
  237MOL    H7847750   6.130   2.580   3.134  1.9102 -0.9350  0.0686
  237MOL    H7947751   6.131   2.732   3.032  0.1662 -0.7499 -2.3191
  237MOL    H8047752   6.220   2.448   2.950  0.3596 -0.6355  1.8711
  237MOL    H8147753   6.249   2.591   2.853 -0.3862 -2.4672 -0.5415
  237MOL    O8247754   6.052   2.556   2.879  0.2061 -0.1112 -0.0448
  237MOL    C8347755   6.020   2.450   2.788  0.2532 -0.5911  0.7557
  237MOL    C8447756   5.888   2.495   2.716  0.3533 -0.1764 -0.3500
  237MOL    C8547757   5.765   2.498   2.809 -0.0215  0.4869 -0.6802
  237MOL    H8647758   6.006   2.367   2.857 -2.2346 -0.9272 -0.1025
  237MOL    H8747759   6.100   2.434   2.716 -0.0991  0.6849  0.0735
  237MOL    H8847760   5.898   2.597   2.681  0.0740 -0.5652 -1.5844
  237MOL    H8947761   5.860   2.429   2.634  0.8570  0.0180 -0.6781
  237MOL    H9047762   5.783   2.551   2.903  1.3229 -2.6655  0.9125
  237MOL    H9147763   5.753   2.398   2.850 -0.0998  0.6531 -0.2970
  237MOL    O9247764   5.648   2.527   2.742 -0.3884 -0.0477 -0.0862
  237MOL    C9347765   5.539   2.558   2.834 -0.1717 -0.4809 -0.6442
  237MOL    C9447766   5.410   2.532   2.757 -0.6350 -0.3066 -0.0763
  237MOL    C9547767   5.288   2.584   2.827 -0.2199 -0.0872 -0.1640
  237MOL    H9647768   5.547   2.663   2.862 -0.8247 -0.4236 -0.6679
  237MOL    H9747769   5.546   2.502   2.927  0.2673  2.4933  1.1792
  237MOL    H9847770   5.421   2.564   2.653  1.4000  1.1829  0.5630
  237MOL    H9947771   5.412   2.424   2.739  0.4588 -0.1227 -1.1927
  237MOL   H10047772   5.287   2.561   2.934 -1.6266 -0.7565 -0.3130
  237MOL   H10147773   5.200   2.532   2.788 -1.0818 -1.4956  3.4391
  237MOL   O10247774   5.280   2.726   2.806 -0.3117 -0.0257  0.1620
  237MOL   C10347775   5.148   2.781   2.820 -0.4956 -0.0321 -0.0033
  237MOL   C10447776   5.165   2.932   2.775 -0.3816 -0.5618 -0.1033
  237MOL   C10547777   5.030   2.984   2.717 -0.0433  0.4072  0.1407
  237MOL   H10647778   5.118   2.781   2.925  2.3195  0.7970  0.8483
  237MOL   H10747779   5.072   2.725   2.765  0.3661  0.9312 -2.2028
  237MOL   H10847780   5.188   2.993   2.862 -1.2782  0.2914 -0.4577
  237MOL   H10947781   5.247   2.928   2.704  0.7150 -2.7330  1.2294
  237MOL   H11047782   4.952   2.947   2.785  0.9446 -0.5673  0.7551
  237MOL   H11147783   5.012   2.949   2.615  0.0446  0.4320  0.1164
  237MOL   O11247784   5.033   3.131   2.727  0.2201 -0.6443  0.0665
  237MOL   C11347785   4.910   3.196   2.699  0.0141 -0.6179 -0.6981
  237MOL   C11447786   4.900   3.332   2.771 -0.4856  0.3524  0.8374
  237MOL   C11547787   4.890   3.308   2.916 -0.1486  0.3511 -0.1178
  237MOL   H11647788   4.822   3.145   2.737 -0.0006 -1.9282 -2.4855
  237MOL   H11747789   4.906   3.213   2.592 -1.1628  5.7681  0.1442
  237MOL   H11847790   4.984   3.400   2.753 -1.6862  1.9272  1.0968
  237MOL   H11947791   4.813   3.390   2.741 -1.2489 -0.5818  1.2167
  237MOL   H12047792   4.973   3.247   2.953  0.0842  0.2866 -0.7404
  237MOL   H12147793   4.805   3.244   2.936  0.1431 -1.2153 -3.5747
  237MOL   O12247794   4.880   3.426   2.995 -0.1526 -0.3963 -0.1778
  237MOL   C12347795   4.744   3.474   3.013 -0.3902  0.2722 -0.4448
  237MOL   C12447796   4.668   3.401   3.128 -0.5108 -0.2239 -0.1114
  237MOL   C12547797   4.575   3.491   3.194 -0.2822 -0.1529 -0.4279
  237MOL   H12647798   4.683   3.480   2.923  0.3490 -0.1565 -0.9696
  237MOL   H12747799   4.754   3.577   3.046 -3.1817  0.8880 -1.3752
  237MOL   H12847800   4.622   3.310   3.091  0.9636  0.2258 -3.2324
  237MOL   H12947801   4.747   3.374   3.199 -1.4693  1.2097  1.5380
  237MOL   H13047802   4.508   3.539   3.122 -0.6972  0.2735  0.2322
  237MOL   H13147803   4.621   3.578   3.241  1.7206 -0.3266 -2.0154
  237MOL   O13247804   4.504   3.410   3.291  0.2545 -0.0378  0.4053
  237MOL   C13347805   4.424   3.489   3.382 -0.0712  0.4441 -0.3269
  237MOL   C13447806   4.334   3.386   3.447 -0.5133  0.6389 -0.2740
  237MOL   C13547807   4.254   3.432   3.576  0.4004 -0.7865 -0.4670
  237MOL   H13647808   4.362   3.561   3.329 -2.7826 -0.8324  1.0596
  237MOL   H13747809   4.486   3.537   3.458  0.9442 -2.6776  0.9215
  237MOL   H13847810   4.272   3.351   3.364  0.8018  1.7024 -1.7145
  237MOL   H13947811   4.397   3.301   3.472  1.1786  0.9136 -3.4012
  237MOL   H14047812   4.187   3.360   3.623  0.6217 -0.0668  0.9734
  237MOL   H14147813   4.180   3.508   3.551  1.0741 -0.0467 -0.2257
  237MOL   O14247814   4.348   3.494   3.669 -0.2935  0.2257  0.1573
  237MOL   C14347815   4.292   3.517   3.793  0.7296 -0.3888  0.0855
  237MOL   C14447816   4.401   3.573   3.887  0.1346 -0.1757  0.6073
  237MOL   C14547817   4.334   3.621   4.020  0.0526  0.2036 -0.0629
  237MOL   H14647818   4.255   3.423   3.835 -0.2010 -0.5798 -1.1558
  237MOL   H14747819   4.201   3.577   3.789  0.5869 -0.6938 -1.5652
  237MOL   H14847820   4.470   3.496   3.919 -0.0751 -0.7724 -0.3626
  237MOL   H14947821   4.452   3.660   3.845 -0.6011 -0.7057 -1.4939
  237MOL   H15047822   4.296   3.532   4.070  0.2361  0.7724  1.0989
  237MOL   H15147823   4.255   3.693   3.996  0.4241 -0.0824 -2.2010
  237MOL   O15247824   4.432   3.678   4.105  0.4662 -0.1035  0.2599
  237MOL   C15347825   4.394   3.686   4.243  0.5635  0.0189  0.3106
  237MOL   C15447826   4.269   3.770   4.272  0.9325 -0.0004  0.9633
  237MOL   C15547827   4.239   3.796   4.424  0.5326 -0.2885  0.4567
  237MOL   H15647828   4.474   3.740   4.295 -0.0352 -0.1629  1.4443
  237MOL   H15747829   4.396   3.584   4.283  1.6580  0.7492  2.2226
  237MOL   H15847830   4.261   3.867   4.223 -1.3086 -2.6103 -4.3641
  237MOL   H15947831   4.177   3.726   4.233  0.6727  1.3501 -0.0173
  237MOL   H16047832   4.303   3.868   4.474 -0.5428 -1.0177  2.9686
  237MOL   H16147833   4.235   3.703   4.479  1.3014  1.0519  2.8330
  237MOL   O16247834   4.101   3.832   4.424  0.1072  0.3746  0.6251
  237MOL   C16347835   4.036   3.844   4.552  0.5082  0.4536 -0.6025
  237MOL   C16447836   3.893   3.897   4.528  0.1638 -0.1978  0.0982
  237MOL   C16547837   3.806   3.908   4.655  0.2987 -0.3823 -0.5878
  237MOL   H16647838   4.085   3.908   4.625 -0.2004  0.2837  0.0345
  237MOL   H16747839   4.034   3.745   4.598  2.3075  0.4537 -0.5140
  237MOL   H16847840   3.905   4.000   4.495 -0.4288  0.2591  1.2666
  237MOL   H16947841   3.845   3.840   4.449 -0.5176  1.1440 -0.4817
  237MOL   H17047842   3.847   3.985   4.720 -0.4796  1.2164 -1.9553
  237MOL   H17147843   3.821   3.811   4.702 -2.1276  0.1051  1.2775
  237MOL   O17247844   3.677   3.948   4.627 -0.1087  1.4031 -0.1017
  237MOL   C17347845   3.585   3.936   4.733  0.4401  0.0126 -0.3622
  237MOL   C17447846   3.445   3.986   4.683 -0.2990 -0.3914  0.1752
  237MOL   C17547847   3.370   3.890   4.583 -0.1570 -0.5086 -0.2482
  237MOL   H17647848   3.618   3.999   4.816 -0.3298  1.7724 -1.3781
  237MOL   H17747849   3.580   3.832   4.764  2.9558 -0.2598 -0.7176
  237MOL   H17847850   3.379   3.994   4.769  1.1266  2.7258  1.0628
  237MOL   H17947851   3.450   4.083   4.635 -1.5499  0.2797  1.3771
  237MOL   H18047852   3.355   3.788   4.618  1.2944 -0.2107  1.2869
  237MOL   H18147853   3.433   3.882   4.495 -1.0294  1.1595 -1.0479
  237MOL   O18247854   3.251   3.943   4.520  0.2563 -0.4077 -0.2662
  237MOL   C18347855   3.159   3.975   4.615  0.3872  0.1035  0.0276
  237MOL   C18447856   3.023   3.935   4.558 -0.5754 -0.5598  0.2361
  237MOL   C18547857   2.952   4.040   4.473 -0.2984  0.4684  0.5335
  237MOL   H18647858   3.143   4.080   4.640  1.8972  1.1233 -3.0147
  237MOL   H18747859   3.164   3.919   4.709  0.1298  0.5090  0.2843
  237MOL   H18847860   3.026   3.850   4.489  1.6765  0.3947 -0.8785
  237MOL   H18947861   2.967   3.889   4.640 -0.7318 -1.0306 -0.1314
  237MOL   H19047862   3.010   4.069   4.386 -0.1135 -1.9704 -0.2100
  237MOL   H19147863   2.930   4.136   4.519 -0.7361  0.5709  0.1046
  237MOL   O19247864   2.829   3.984   4.421 -0.4958 -0.2439  0.4999
  237MOL   C19347865   2.705   4.008   4.487 -1.0120  0.0017  0.2886
  237MOL   C19447866   2.616   3.897   4.441  0.1875  1.0407  0.6863
  237MOL   C19547867   2.572   3.907   4.293 -0.2365  0.1481 -0.0050
  237MOL   H19647868   2.664   4.108   4.476 -3.0976 -0.8732 -0.1596
  237MOL   H19747869   2.722   3.986   4.593  0.8085 -0.5224 -0.1052
  237MOL   H19847870   2.656   3.798   4.461 -1.2667  0.0750 -1.1270
  237MOL   H19947871   2.533   3.903   4.512 -0.0414 -1.2325  0.6269
  237MOL   H20047872   2.513   3.819   4.266 -0.5138  0.6994 -1.2512
  237MOL   H20147873   2.664   3.915   4.236 -0.2971 -1.6938 -0.4131
  237MOL   H20247874   2.515   3.999   4.277  0.1346  0.3305 -0.2676
  238MOL     O147875   6.040   5.342   6.735  0.0439  0.0565  0.6400
  238MOL     C247876   6.128   5.445   6.755 -0.3892 -0.3448  0.4947
  238MOL     C347877   6.232   5.461   6.639 -0.4705 -0.2100 -0.5648
  238MOL     C447878   6.313   5.590   6.655 -0.1857  0.3613 -0.6266
  238MOL     H547879   6.182   5.420   6.846  2.1089 -0.9443 -1.0904
  238MOL     H647880   6.073   5.539   6.763 -0.7813 -0.7214  2.4068
  238MOL     H747881   6.308   5.383   6.646 -0.3067 -0.0921 -1.0097
  238MOL     H847882   6.179   5.460   6.544 -1.7859 -0.0675  0.1518
  238MOL     H947883   6.400   5.601   6.590 -0.8415  1.6104 -1.3126
  238MOL    H1047884   6.350   5.589   6.757  0.9282 -1.8928 -1.0206
  238MOL    H1147885   5.990   5.358   6.657  1.0360 -0.3779 -0.1029
  238MOL    O1247886   6.231   5.704   6.643 -0.3615 -0.5333  0.7466
  238MOL    C1347887   6.304   5.829   6.650  0.1047 -0.0341 -1.0168
  238MOL    C1447888   6.215   5.938   6.607 -1.3088 -0.1437  0.0925
  238MOL    C1547889   6.281   6.078   6.629  0.3623 -0.1032  0.3891
  238MOL    H1647890   6.395   5.819   6.590  1.5470 -1.1791  1.2560
  238MOL    H1747891   6.334   5.829   6.755 -0.1863  1.3477 -0.9258
  238MOL    H1847892   6.190   5.916   6.503  2.4336 -1.5867 -0.5762
  238MOL    H1947893   6.134   5.946   6.680  0.0150  0.2898  1.5279
  238MOL    H2047894   6.363   6.101   6.562  0.6612  0.4894  0.9576
  238MOL    H2147895   6.331   6.076   6.726 -0.2848 -0.9736  0.7079
  238MOL    O2247896   6.180   6.180   6.637  0.4103  0.0357 -0.4283
  238MOL    C2347897   6.141   6.223   6.511  0.2410  0.4875 -0.1921
  238MOL    C2447898   6.024   6.314   6.550 -0.1636 -0.1741 -0.0749
  238MOL    C2547899   5.956   6.377   6.432 -0.0056 -1.0580  0.0423
  238MOL    H2647900   6.097   6.138   6.459  2.7380 -1.5926  0.9834
  238MOL    H2747901   6.218   6.267   6.447 -0.7298  0.3114 -1.4854
  238MOL    H2847902   5.950   6.249   6.596 -2.9707  0.8679 -2.9442
  238MOL    H2947903   6.070   6.385   6.619  2.6199 -1.9758  0.0117
  238MOL    H3047904   5.895   6.459   6.468 -1.5236 -2.1282 -0.0707
  238MOL    H3147905   5.896   6.301   6.382 -3.0192  1.3346 -0.1182
  238MOL    O3247906   6.058   6.430   6.345  0.2067  0.0515 -0.2997
  238MOL    C3347907   6.012   6.520   6.239 -0.4682 -0.0507 -0.0426
  238MOL    C3447908   6.133   6.546   6.147 -0.3670  0.2588 -0.3273
  238MOL    C3547909   6.185   6.424   6.059  0.6207 -0.9830 -0.3155
  238MOL    H3647910   5.992   6.615   6.288  5.5369  2.3495 -1.7341
  238MOL    H3747911   5.922   6.486   6.187 -0.8194 -1.7009  1.5871
  238MOL    H3847912   6.089   6.617   6.077  1.8925  0.2148 -1.8825
  238MOL    H3947913   6.213   6.604   6.194 -0.6712 -0.8497  1.6129
  238MOL    H4047914   6.104   6.369   6.011 -0.6424  0.0779  0.5526
  238MOL    H4147915   6.246   6.354   6.116  2.7188  0.9298 -0.1324
  238MOL    O4247916   6.269   6.477   5.963 -0.0914 -0.2160  0.3333
  238MOL    C4347917   6.284   6.392   5.853 -0.2693  0.0405  0.1269
  238MOL    C4447918   6.349   6.253   5.876 -0.2444 -0.5428 -0.2232
  238MOL    C4547919   6.399   6.192   5.751 -0.6020 -1.0860 -0.0851
  238MOL    H4647920   6.349   6.449   5.786 -0.3201  1.5368  1.3062
  238MOL    H4747921   6.192   6.370   5.798  0.4014  1.4359 -1.6012
  238MOL    H4847922   6.435   6.270   5.941 -0.4575  0.0530 -0.0912
  238MOL    H4947923   6.284   6.178   5.921  0.3577 -0.4841  0.7661
  238MOL    H5047924   6.452   6.256   5.680 -0.1508 -1.1345  0.2029
  238MOL    H5147925   6.303   6.171   5.704 -0.5952  1.1231 -1.1676
  238MOL    O5247926   6.467   6.070   5.772  0.5135  0.2186  0.0050
  238MOL    C5347927   6.601   6.076   5.823 -0.1120 -0.0605  0.4841
  238MOL    C5447928   6.672   5.940   5.798 -0.5127  0.1963  0.4487
  238MOL    C5547929   6.691   5.896   5.655  0.6686 -0.2376  0.4412
  238MOL    H5647930   6.590   6.104   5.928  1.0379 -0.7422  0.7802
  238MOL    H5747931   6.659   6.155   5.774 -0.1111 -0.6077 -0.4140
  238MOL    H5847932   6.771   5.955   5.841 -0.8415 -1.3084  1.7532
  238MOL    H5947933   6.620   5.859   5.849  0.6962 -1.5268 -1.0163
  238MOL    H6047934   6.740   5.960   5.582  0.0097  1.1789  1.2272
  238MOL    H6147935   6.594   5.869   5.613  0.0968  1.7091  0.4895
  238MOL    O6247936   6.768   5.779   5.659 -0.2415 -0.3313  0.5621
  238MOL    C6347937   6.759   5.695   5.545  0.0207 -0.1081 -0.3367
  238MOL    C6447938   6.792   5.556   5.587 -0.0006 -0.5407 -0.4919
  238MOL    C6547939   6.792   5.477   5.453  0.0027  0.5119 -0.5824
  238MOL    H6647940   6.822   5.734   5.465  2.1402 -2.5698  0.0671
  238MOL    H6747941   6.658   5.702   5.506 -0.3437 -2.9854 -0.0268
  238MOL    H6847942   6.887   5.558   5.641 -0.3100  3.1525  0.0368
  238MOL    H6947943   6.716   5.510   5.650 -0.0914 -0.9249 -0.8770
  238MOL    H7047944   6.887   5.509   5.412  1.4895 -0.2554  2.1589
  238MOL    H7147945   6.703   5.498   5.394 -1.9907  0.3090  2.2652
  238MOL    O7247946   6.819   5.337   5.479 -0.5686  0.5389 -0.0486
  238MOL    C7347947   6.829   5.253   5.359  0.1480 -0.4356  0.6099
  238MOL    C7447948   6.882   5.115   5.400 -0.7273 -0.4203  0.8675
  238MOL    C7547949   6.771   5.021   5.444  0.7740  0.3593  0.4127
  238MOL    H7647950   6.894   5.294   5.282 -1.6021 -1.3247 -1.4025
  238MOL    H7747951   6.729   5.253   5.316  0.6882  0.9520 -0.6800
  238MOL    H7847952   6.932   5.077   5.311 -0.6927  2.3609 -0.3617
  238MOL    H7947953   6.962   5.130   5.473  0.5554  1.7041 -0.9097
  238MOL    H8047954   6.703   4.992   5.364 -0.1254  0.7036  1.0510
  238MOL    H8147955   6.719   5.071   5.526 -0.2521 -1.9502  1.1975
  238MOL    O8247956   6.819   4.896   5.498  0.7194 -0.0045 -0.2055
  238MOL    C8347957   6.717   4.822   5.571 -0.4293 -0.6554 -0.1581
  238MOL    C8447958   6.782   4.705   5.647  0.0406 -0.2834 -0.3730
  238MOL    C8547959   6.834   4.600   5.556  0.1265 -0.6611  0.6461
  238MOL    H8647960   6.624   4.801   5.518 -0.6615 -1.8576  0.7114
  238MOL    H8747961   6.674   4.880   5.652  0.6968 -1.1040  0.7713
  238MOL    H8847962   6.858   4.747   5.713 -0.8213 -0.4480  0.7524
  238MOL    H8947963   6.718   4.650   5.715 -0.4468 -1.0094 -1.4178
  238MOL    H9047964   6.907   4.656   5.498 -1.0966  0.2038 -0.0892
  238MOL    H9147965   6.750   4.567   5.494 -0.8794  0.0368  1.6095
  238MOL    O9247966   6.909   4.503   5.614  0.6080 -0.6591 -0.0587
  238MOL    C9347967   7.000   4.443   5.523  0.2169 -0.0963 -0.3497
  238MOL    C9447968   7.067   4.320   5.595 -0.5785  0.1189  0.1727
  238MOL    C9547969   7.174   4.256   5.514  0.7295  0.1277 -0.3800
  238MOL    H9647970   7.077   4.519   5.509 -1.5151  1.7783  0.1744
  238MOL    H9747971   6.954   4.411   5.429 -1.5068  0.9934  0.1016
  238MOL    H9847972   7.106   4.350   5.692  2.3852  0.6181 -1.1087
  238MOL    H9947973   6.986   4.249   5.609 -0.1487 -0.1591  1.3336
  238MOL   H10047974   7.212   4.334   5.448  0.5895  0.2754 -0.2874
  238MOL   H10147975   7.126   4.182   5.450  0.1092 -1.0733  1.4369
  238MOL   O10247976   7.280   4.193   5.591  0.3154 -0.4153  0.4450
  238MOL   C10347977   7.255   4.073   5.671  0.4574  0.0573 -0.8037
  238MOL   C10447978   7.364   4.075   5.773 -0.1460 -0.0296  0.3797
  238MOL   C10547979   7.387   3.946   5.849 -0.0177  0.4110  0.3762
  238MOL   H10647980   7.251   3.986   5.606  0.4592  0.8607 -1.8972
  238MOL   H10747981   7.154   4.079   5.713  0.6883 -0.3153 -0.1836
  238MOL   H10847982   7.451   4.103   5.713 -1.8730  0.8850 -1.7865
  238MOL   H10947983   7.350   4.153   5.848 -0.1616 -0.3098  0.6692
  238MOL   H11047984   7.298   3.918   5.905 -1.3745  1.4015 -1.2253
  238MOL   H11147985   7.468   3.951   5.921  0.9033 -1.5375 -0.4791
  238MOL   O11247986   7.417   3.841   5.754 -0.0567  0.3239  0.1133
  238MOL   C11347987   7.450   3.725   5.833  0.0658 -0.0928  0.4387
  238MOL   C11447988   7.478   3.598   5.758  0.0177 -0.2816 -0.9058
  238MOL   C11547989   7.574   3.513   5.825  0.3086 -1.0113 -0.0339
  238MOL   H11647990   7.388   3.706   5.921 -2.0605  1.1379 -0.7354
  238MOL   H11747991   7.547   3.754   5.873  0.0264 -1.4596  1.5415
  238MOL   H11847992   7.385   3.546   5.734  0.6794 -0.9998 -1.9466
  238MOL   H11947993   7.517   3.630   5.662 -0.5194  0.1261 -0.9927
  238MOL   H12047994   7.538   3.488   5.924 -1.1104  0.4628 -0.1591
  238MOL   H12147995   7.659   3.581   5.832  0.3397 -1.0159 -0.3401
  238MOL   O12247996   7.613   3.407   5.740  0.0774 -0.3400 -0.1096
  238MOL   C12347997   7.730   3.337   5.778  0.6905  0.1705 -0.5147
  238MOL   C12447998   7.777   3.248   5.665 -0.0615  0.7432 -0.0234
  238MOL   C12547999   0.116   3.166   5.692 -0.0950 -0.3054 -0.4513
  238MOL   H12648000   7.719   3.281   5.871 -1.1439 -0.6351 -1.2010
  238MOL   H12748001   0.023   3.410   5.779  0.1202  0.8144 -0.4361
  238MOL   H12848002   7.699   3.173   5.651  0.9882 -0.8227  2.1752
  238MOL   H12948003   0.010   3.307   5.576  1.8556  0.7982  0.4472
  238MOL   H13048004   0.115   3.085   5.620 -0.0595  0.2271 -1.0511
  238MOL   H13148005   0.122   3.128   5.794  1.2345  2.4516  0.5661
  238MOL   O13248006   0.232   3.242   5.671 -0.6004  0.1784 -0.0639
  238MOL   C13348007   0.344   3.161   5.668 -0.6505  0.6002  0.4455
  238MOL   C13448008   0.466   3.254   5.658 -0.4540  0.0725 -0.2303
  238MOL   C13548009   0.597   3.186   5.717 -0.5773 -0.8289  0.2762
  238MOL   H13648010   0.351   3.078   5.598 -2.4170 -2.3200  3.5779
  238MOL   H13748011   0.350   3.125   5.771 -1.0210  1.3977  0.7501
  238MOL   H13848012   0.475   3.278   5.552 -1.4594  0.4768 -0.2282
  238MOL   H13948013   0.449   3.348   5.710  0.8518 -0.4270  1.1510
  238MOL   H14048014   0.630   3.097   5.663 -0.3627  0.7230 -2.2663
  238MOL   H14148015   0.570   3.148   5.816 -0.6105  1.9555  1.3745
  238MOL   O14248016   0.695   3.292   5.714  0.2132  0.2003  0.2083
  238MOL   C14348017   0.817   3.257   5.764 -0.2683 -0.1574  0.2453
  238MOL   C14448018   0.881   3.369   5.859  0.1543 -0.1099  0.1898
  238MOL   C14548019   0.923   3.504   5.796  0.0783  0.2371 -0.3937
  238MOL   H14648020   0.889   3.237   5.685 -1.5593 -1.7458 -0.5427
  238MOL   H14748021   0.815   3.169   5.828  0.4207 -0.5598 -0.2841
  238MOL   H14848022   0.818   3.385   5.946 -2.5140  3.9811 -2.3598
  238MOL   H14948023   0.971   3.322   5.899  1.7131  2.2629 -0.4037
  238MOL   H15048024   0.831   3.555   5.768 -0.9456 -2.1497 -1.5595
  238MOL   H15148025   0.988   3.489   5.709  1.2265 -2.7060  0.9037
  238MOL   O15248026   0.996   3.584   5.896  0.0341 -0.1307 -0.3322
  238MOL   C15348027   1.001   3.726   5.844  0.2880 -0.8633 -0.0574
  238MOL   C15448028   1.069   3.820   5.942  0.9716 -0.0195  0.1873
  238MOL   C15548029   1.061   3.961   5.906  0.6271 -0.5005 -0.2441
  238MOL   H15648030   0.895   3.751   5.836  0.0532 -1.5248  0.8367
  238MOL   H15748031   1.049   3.726   5.746  0.2935  0.3644 -0.0603
  238MOL   H15848032   1.030   3.799   6.041  2.2773 -2.6972  0.1733
  238MOL   H15948033   1.176   3.804   5.946  1.1716  1.2503  0.1385
  238MOL   H16048034   0.960   3.998   5.896  0.2038 -0.4891  3.4022
  238MOL   H16148035   1.118   3.964   5.813 -1.0114 -1.9169 -1.3048
  238MOL   O16248036   1.123   4.021   6.014 -0.5801  0.4513 -0.0825
  238MOL   C16348037   1.199   4.136   5.967 -0.5016 -0.7282 -0.7571
  238MOL   C16448038   1.116   4.250   5.896 -0.2017 -0.3257  0.4196
  238MOL   C16548039   1.210   4.365   5.855 -0.3222  0.3629  0.5753
  238MOL   H16648040   1.274   4.094   5.900  0.3850  0.9603 -0.8468
  238MOL   H16748041   1.242   4.182   6.056 -1.4116 -1.1189 -0.1067
  238MOL   H16848042   1.062   4.215   5.808 -0.7553  0.1425  0.5640
  238MOL   H16948043   1.039   4.293   5.962  0.7182  1.6869  0.2184
  238MOL   H17048044   1.278   4.320   5.783 -0.8260 -0.6833  0.7442
  238MOL   H17148045   1.267   4.410   5.937  1.8741 -0.2112 -0.6000
  238MOL   O17248046   1.130   4.460   5.792  0.3379 -0.0136  0.3722
  238MOL   C17348047   1.200   4.585   5.771  0.9091 -0.6152  0.2320
  238MOL   C17448048   1.093   4.684   5.729 -0.0959 -0.2729  0.3563
  238MOL   C17548049   1.022   4.654   5.595 -0.0387  0.1455  0.1807
  238MOL   H17648050   1.289   4.584   5.708  0.0386 -1.7611 -1.0145
  238MOL   H17748051   1.238   4.636   5.859  2.1618  0.6290 -0.9980
  238MOL   H17848052   1.029   4.700   5.816 -1.9472 -2.1401 -0.6337
  238MOL   H17948053   1.142   4.779   5.708 -0.0646 -0.6192 -1.1755
  238MOL   H18048054   0.993   4.549   5.603  0.4525  0.0097  0.1780
  238MOL   H18148055   1.100   4.657   5.519 -1.3595 -2.3209 -1.3596
  238MOL   O18248056   0.907   4.736   5.574  0.0387  0.0409  0.1979
  238MOL   C18348057   0.816   4.698   5.471 -0.2886  0.8998 -0.0056
  238MOL   C18448058   0.706   4.799   5.454  1.0733 -0.0288  0.6167
  238MOL   C18548059   0.585   4.732   5.377 -0.3498 -0.2204 -0.7935
  238MOL   H18648060   0.773   4.602   5.500 -1.8424  1.0026 -1.9237
  238MOL   H18748061   0.882   4.692   5.385  0.9049 -0.5319  0.9977
  238MOL   H18848062   0.674   4.844   5.547  0.8185 -0.0488  0.5380
  238MOL   H18948063   0.748   4.871   5.383 -0.7843  1.3832  0.9297
  238MOL   H19048064   0.541   4.648   5.432  1.5045 -0.6787  0.0352
  238MOL   H19148065   0.636   4.692   5.289  0.7240 -0.1923 -0.1981
  238MOL   O19248066   0.475   4.811   5.341  0.0507 -0.5513  0.0834
  238MOL   C19348067   0.393   4.850   5.455  0.3284  0.0058  0.2467
  238MOL   C19448068   0.292   4.949   5.411  0.0509 -0.0261  0.2567
  238MOL   C19548069   0.362   5.090   5.395  1.2316  0.3847  0.5019
  238MOL   H19648070   0.457   4.904   5.525 -2.5444  1.6502  1.7066
  238MOL   H19748071   0.359   4.762   5.509  1.7922 -1.0516 -0.5357
  238MOL   H19848072   0.239   4.912   5.323 -0.6702  0.8356  0.3160
  238MOL   H19948073   0.207   4.949   5.480 -0.9299 -1.4328 -0.9173
  238MOL   H20048074   0.396   5.126   5.492 -0.1852  1.4136  0.6379
  238MOL   H20148075   0.300   5.174   5.362  1.7280 -0.3099 -2.3755
  238MOL   H20248076   0.443   5.087   5.321  2.5611  1.5232  1.8760
  239MOL     O148077   0.973   1.558   2.497 -1.0064  0.3386  0.0992
  239MOL     C248078   1.031   1.431   2.492  0.0681  0.1916 -0.2268
  239MOL     C348079   1.180   1.436   2.480 -0.5636  0.3454 -1.4663
  239MOL     C448080   1.234   1.295   2.452 -0.0422 -0.4425  0.2926
  239MOL     H548081   0.983   1.368   2.417  0.3594 -0.6575  0.2880
  239MOL     H648082   1.002   1.378   2.583 -0.4966  1.2253  0.2088
  239MOL     H748083   1.220   1.501   2.402 -1.4166  2.4348 -0.2050
  239MOL     H848084   1.233   1.476   2.566 -0.8621  0.4948 -1.3557
  239MOL     H948085   1.340   1.298   2.427 -0.6165 -2.0819 -2.5605
  239MOL    H1048086   1.196   1.266   2.354  0.5592  3.6383 -1.2420
  239MOL    H1148087   0.879   1.564   2.497 -1.2383 -2.3450 -1.7570
  239MOL    O1248088   1.203   1.202   2.553  0.6920  0.2376  0.5205
  239MOL    C1348089   1.258   1.075   2.528 -0.2612 -0.4977 -0.0784
  239MOL    C1448090   1.200   0.967   2.623  0.5264  0.3198 -0.0930
  239MOL    C1548091   1.241   0.818   2.603  0.1270 -0.6330 -0.0752
  239MOL    H1648092   1.367   1.080   2.516 -0.3461 -1.6671 -1.4958
  239MOL    H1748093   1.228   1.043   2.428  0.3650  3.8618 -1.7855
  239MOL    H1848094   1.208   0.988   2.729  0.4068  0.4334 -0.1075
  239MOL    H1948095   1.094   0.964   2.598  1.1000 -1.2241 -2.6038
  239MOL    H2048096   1.342   0.805   2.644  0.0881  0.9695  0.5839
  239MOL    H2148097   1.237   0.805   2.495  0.8638 -0.6092 -0.1118
  239MOL    O2248098   1.150   0.735   2.661  0.7687 -0.0272  0.5746
  239MOL    C2348099   1.142   0.733   2.805 -0.6894 -0.5576  1.0289
  239MOL    C2448100   1.072   0.613   2.853 -0.4546  0.5000 -0.3932
  239MOL    C2548101   1.107   0.587   3.000  0.1193  0.2784  0.6065
  239MOL    H2648102   1.079   0.817   2.836 -1.0044 -0.0510 -0.9626
  239MOL    H2748103   1.245   0.738   2.842 -0.7695 -0.0354  1.1964
  239MOL    H2848104   0.964   0.619   2.843 -0.5590 -1.5928 -0.7477
  239MOL    H2948105   1.121   0.531   2.799  1.3140  1.2721 -0.0168
  239MOL    H3048106   1.076   0.667   3.068 -0.2969  0.4651  0.2004
  239MOL    H3148107   1.214   0.587   3.021  0.2588  1.4471 -0.0913
  239MOL    O3248108   1.048   0.457   3.033  0.4213 -0.0446 -0.0928
  239MOL    C3348109   1.084   0.415   3.167  0.3981 -0.3097  0.4766
  239MOL    C3448110   1.006   0.286   3.192 -0.1211  0.2154  0.0822
  239MOL    C3548111   1.060   0.235   3.325  0.5888 -0.1436  0.0349
  239MOL    H3648112   1.065   0.498   3.236  1.1728  0.6046 -0.3851
  239MOL    H3748113   1.192   0.407   3.180  0.9504  0.4733 -2.9439
  239MOL    H3848114   0.897   0.280   3.188 -0.0514 -0.5310 -1.0135
  239MOL    H3948115   1.037   0.216   3.114 -3.2004 -0.6850 -0.3803
  239MOL    H4048116   1.015   0.295   3.404 -0.4172 -1.5810  0.5545
  239MOL    H4148117   1.167   0.250   3.344 -0.0071 -0.1391  3.8218
  239MOL    O4248118   1.027   0.101   3.347  0.1411 -0.3367  0.3451
  239MOL    C4348119   1.095   0.038   3.449  0.7471 -0.5650 -0.4521
  239MOL    C4448120   1.028   7.688   3.465  0.0133 -0.4954  0.3497
  239MOL    C4548121   1.094   7.605   3.577 -0.3047 -0.0546 -0.4289
  239MOL    H4648122   1.075   0.095   3.540 -0.1355 -1.8212  0.1497
  239MOL    H4748123   1.198   0.032   3.414  1.0299  0.0934  0.2481
  239MOL    H4848124   0.925   7.703   3.495  0.5746  1.7395  1.2896
  239MOL    H4948125   1.037   7.636   3.370 -0.5311 -0.2322  0.1567
  239MOL    H5048126   1.202   7.606   3.563 -0.4000 -0.1003 -1.1814
  239MOL    H5148127   1.059   7.502   3.567  0.8076 -0.6829  1.7262
  239MOL    O5248128   1.080   7.659   3.706 -0.2721 -0.1351  0.2088
  239MOL    C5348129   0.957   7.643   3.768  0.5050 -0.7160  0.2470
  239MOL    C5448130   0.978   7.680   3.910  0.1200 -0.3167 -0.2207
  239MOL    C5548131   0.847   7.684   3.997 -0.0851 -0.3755  0.1233
  239MOL    H5648132   0.935   7.537   3.778  1.4930 -0.8546  0.9671
  239MOL    H5748133   0.879   7.710   3.732  1.3552 -0.0174 -0.3099
  239MOL    H5848134   1.046   7.617   3.968 -0.0897  1.3493  1.8931
  239MOL    H5948135   1.015   7.782   3.904 -5.1465  1.6931 -1.3283
  239MOL    H6048136   0.795   7.591   4.017 -1.1824  0.1226 -0.3284
  239MOL    H6148137   0.788   7.768   3.960 -1.8754 -1.3837  0.6394
  239MOL    O6248138   0.891   7.734   4.129 -0.7930  0.1583  0.2071
  239MOL    C6348139   0.791   7.782   4.212  0.4666  0.0428 -0.0248
  239MOL    C6448140   0.859   0.062   4.328  0.1590  0.0754  0.0305
  239MOL    C6548141   0.764   0.147   4.416  0.5496 -0.0354 -0.0291
  239MOL    H6648142   0.724   7.704   4.246  1.5495 -0.9588 -0.1545
  239MOL    H6748143   0.725   0.068   4.167 -0.0907 -0.1216  0.5161
  239MOL    H6848144   0.913   7.781   4.393  0.3005  0.1638  0.0068
  239MOL    H6948145   0.925   0.127   4.272  2.1034 -1.9505 -0.0790
  239MOL    H7048146   0.821   0.207   4.487  0.0227 -0.2441  0.5763
  239MOL    H7148147   0.710   0.085   4.487  3.4839  0.3382  2.6601
  239MOL    O7248148   0.696   0.246   4.337  0.0186  0.0085  0.4294
  239MOL    C7348149   0.573   0.292   4.391  0.0186 -0.4158  0.1350
  239MOL    C7448150   0.506   0.391   4.289 -0.5974  0.6638 -0.8642
  239MOL    C7548151   0.366   0.438   4.322 -0.9760 -0.0396 -0.0773
  239MOL    H7648152   0.588   0.340   4.488  1.2287  0.8457 -0.6494
  239MOL    H7748153   0.513   0.202   4.401 -0.4452  0.1779  3.2414
  239MOL    H7848154   0.575   0.472   4.264 -0.0544  0.6213  0.4683
  239MOL    H7948155   0.498   0.339   4.193 -0.5981  3.0672 -2.2236
  239MOL    H8048156   0.376   0.497   4.413 -0.2805 -0.7324  0.3084
  239MOL    H8148157   0.303   0.350   4.336 -0.6722 -0.1379  0.6836
  239MOL    O8248158   0.311   0.516   4.215  0.1319 -0.1812 -0.3967
  239MOL    C8348159   0.176   0.548   4.241 -0.1056 -0.5894 -0.0330
  239MOL    C8448160   0.181   0.679   4.322 -0.2823 -0.2030 -0.3244
  239MOL    C8548161   0.038   0.726   4.363  0.0743 -0.2920 -0.1810
  239MOL    H8648162   0.116   0.465   4.278  0.1615 -1.6734 -1.9382
  239MOL    H8748163   0.127   0.571   4.147 -0.5719  0.4198  0.4525
  239MOL    H8848164   0.241   0.666   4.412 -0.7976 -0.9442 -0.0770
  239MOL    H8948165   0.231   0.755   4.261  0.2381  0.0181  0.3666
  239MOL    H9048166   0.046   0.815   4.425  0.3597 -0.5006  0.0831
  239MOL    H9148167   7.775   0.646   4.415 -2.7791  1.2814 -0.4776
  239MOL    O9248168   7.746   0.761   4.248 -0.0387 -0.5748 -0.4884
  239MOL    C9348169   7.610   0.797   4.283  0.2767  0.0666 -0.8109
  239MOL    C9448170   7.534   0.801   4.147 -0.1152  0.1570  0.3797
  239MOL    C9548171   7.380   0.832   4.161 -0.4120 -0.2836  0.9302
  239MOL    H9648172   7.604   0.894   4.332  1.7047  0.5639 -1.5784
  239MOL    H9748173   7.571   0.725   4.355 -0.1200  1.6055  0.5429
  239MOL    H9848174   7.584   0.859   4.069  0.9166 -0.1905  0.7717
  239MOL    H9948175   7.541   0.701   4.106 -0.3597  1.0291 -1.8931
  239MOL   H10048176   7.372   0.922   4.221  2.7921  1.3679 -1.0118
  239MOL   H10148177   7.340   0.752   4.223  2.6235 -0.7990  2.2804
  239MOL   O10248178   7.308   0.843   4.035 -0.0666 -0.1152 -0.3176
  239MOL   C10348179   7.174   0.879   4.061 -0.1351  0.2390 -0.2332
  239MOL   C10448180   7.132   0.955   3.936 -0.3380 -0.8658  0.3332
  239MOL   C10548181   6.975   0.943   3.916 -0.5185  0.2119 -0.1089
  239MOL   H10648182   7.161   0.932   4.156  1.6709 -0.3963  0.3816
  239MOL   H10748183   7.113   0.791   4.083 -0.8945  0.7371 -0.3154
  239MOL   H10848184   7.163   1.060   3.943  0.2012 -1.0364  0.5368
  239MOL   H10948185   7.187   0.911   3.852 -1.3040  0.0357 -0.7978
  239MOL   H11048186   6.948   0.838   3.908  1.6415 -0.4184  0.6252
  239MOL   H11148187   6.948   0.991   3.822  0.1587 -1.6862 -1.2749
  239MOL   O11248188   6.892   1.001   4.017 -0.3469 -0.0269 -0.0676
  239MOL   C11348189   6.754   0.983   3.983 -0.1778  0.4998 -0.8143
  239MOL   C11448190   6.667   1.037   4.105  0.2636  0.2141  0.1514
  239MOL   C11548191   6.521   1.060   4.065 -0.3299  0.8540 -0.5677
  239MOL   H11648192   6.729   0.880   3.959 -2.0970  0.9858 -1.0122
  239MOL   H11748193   6.733   1.037   3.891 -1.9132 -0.3096 -0.9109
  239MOL   H11848194   6.692   0.967   4.184 -0.9232 -0.8648 -0.3935
  239MOL   H11948195   6.710   1.132   4.135 -0.8285 -0.0828  2.7908
  239MOL   H12048196   6.519   1.113   3.970 -3.1185 -0.1119 -1.0902
  239MOL   H12148197   6.469   1.115   4.144  0.5206  0.9686 -0.0787
  239MOL   O12248198   6.459   0.931   4.060  0.0349 -0.1466 -0.4430
  239MOL   C12348199   6.328   0.932   4.012 -0.7266 -0.4476  0.2543
  239MOL   C12448200   6.239   0.817   4.064  0.0617 -0.0350  0.5713
  239MOL   C12548201   6.263   0.687   4.002  0.0514  0.4925  0.3070
  239MOL   H12648202   6.328   0.953   3.905  1.4646  1.3175  0.5494
  239MOL   H12748203   6.284   1.016   4.067 -2.1833 -1.3878  0.5572
  239MOL   H12848204   6.242   0.804   4.173  0.6823  0.3190  0.5956
  239MOL   H12948205   6.135   0.847   4.049  0.4418  0.9094 -0.1729
  239MOL   H13048206   6.188   0.618   4.039  1.7779 -1.1519  0.8735
  239MOL   H13148207   6.364   0.658   4.033 -0.5225 -1.9563 -0.0251
  239MOL   O13248208   6.265   0.683   3.861 -0.6680 -0.0671 -0.0010
  239MOL   C13348209   6.132   0.690   3.805  0.2371 -0.1789  0.3195
  239MOL   C13448210   6.148   0.736   3.653  0.2643  0.2375 -0.2307
  239MOL   C13548211   6.013   0.752   3.604 -0.1775 -0.6036  0.6820
  239MOL   H13648212   6.080   0.764   3.866  1.5715  0.9718  0.0947
  239MOL   H13748213   6.069   0.602   3.813  1.3549 -1.1152 -0.8905
  239MOL   H13848214   6.208   0.824   3.631  0.6328 -0.4603 -2.1644
  239MOL   H13948215   6.195   0.655   3.596  1.6385  0.8175  0.0732
  239MOL   H14048216   6.010   0.812   3.513 -0.3486 -0.1322  0.9958
  239MOL   H14148217   5.956   0.808   3.678  1.4253  1.3911  0.4474
  239MOL   O14248218   5.953   0.622   3.588 -0.6545  0.0591 -0.1047
  239MOL   C14348219   5.815   0.633   3.566  0.7708 -0.8930 -0.2829
  239MOL   C14448220   5.763   0.497   3.544 -0.4851 -0.0109  0.0673
  239MOL   C14548221   5.621   0.498   3.480  0.1862  0.4628  0.2604
  239MOL   H14648222   5.803   0.695   3.477  0.3012  0.3194  0.6199
  239MOL   H14748223   5.769   0.690   3.647  2.9736 -1.4716  1.4212
  239MOL   H14848224   5.829   0.449   3.472 -0.2662 -0.1644  0.3702
  239MOL   H14948225   5.762   0.443   3.638  0.4588  0.3577  0.2955
  239MOL   H15048226   5.582   0.396   3.473  1.9341 -0.1796 -0.1597
  239MOL   H15148227   5.621   0.553   3.386 -0.4171  2.1235  1.2197
  239MOL   O15248228   5.542   0.567   3.584 -0.1043  0.2558  0.1426
  239MOL   C15348229   5.416   0.606   3.541  0.3167 -0.8147  0.1983
  239MOL   C15448230   5.375   0.712   3.641  0.7791  0.2948 -0.7285
  239MOL   C15548231   5.226   0.764   3.611 -0.4001  0.0257  1.1703
  239MOL   H15648232   5.354   0.517   3.551  0.9368 -1.1351  1.1920
  239MOL   H15748233   5.424   0.637   3.437 -1.9043 -0.5391  0.0902
  239MOL   H15848234   5.380   0.675   3.743 -2.0974  0.3182 -0.5334
  239MOL   H15948235   5.443   0.797   3.635  0.3148  0.8850  1.9652
  239MOL   H16048236   5.177   0.716   3.527 -0.0526  0.3340  0.7901
  239MOL   H16148237   5.231   0.872   3.595  0.2705  0.3329  3.2359
  239MOL   O16248238   5.152   0.742   3.731  0.9162 -0.5875 -0.2126
  239MOL   C16348239   5.026   0.804   3.748 -0.5924 -0.3454 -0.1473
  239MOL   C16448240   4.964   0.770   3.884 -0.1901 -0.4537  0.2896
  239MOL   C16548241   4.833   0.842   3.892  0.8621 -0.3661  0.5877
  239MOL   H16648242   4.972   0.772   3.658 -0.9758  0.3151 -0.1551
  239MOL   H16748243   5.049   0.910   3.737  3.0738 -1.0900 -0.4982
  239MOL   H16848244   4.943   0.666   3.906  1.4341 -1.2517 -1.7851
  239MOL   H16948245   5.028   0.814   3.961  3.7780 -0.8386 -2.6687
  239MOL   H17048246   4.759   0.784   3.836  0.7578  0.8386 -0.5568
  239MOL   H17148247   4.835   0.938   3.840 -2.4684 -0.8190 -0.4796
  239MOL   O17248248   4.793   0.868   4.029 -0.4510  0.7366  0.7741
  239MOL   C17348249   4.662   0.921   4.041  0.2850  0.1078  0.1187
  239MOL   C17448250   4.655   1.001   4.170 -0.3262 -0.4463  0.3643
  239MOL   C17548251   4.756   1.118   4.177  0.4644 -1.2922 -0.8367
  239MOL   H17648252   4.592   0.837   4.041 -0.4342  0.7078 -0.2090
  239MOL   H17748253   4.641   0.977   3.950 -2.0032 -0.8617  0.0064
  239MOL   H17848254   4.556   1.044   4.182 -1.4999 -1.8817 -3.3364
  239MOL   H17948255   4.690   0.938   4.252  0.8888  0.5722  0.6412
  239MOL   H18048256   4.753   1.180   4.087 -2.5145  1.0485  0.7655
  239MOL   H18148257   4.856   1.078   4.188  0.5162 -0.6491  1.2259
  239MOL   O18248258   4.714   1.195   4.286 -0.3178 -0.0685  0.2950
  239MOL   C18348259   4.788   1.309   4.293  0.4007 -0.4246  0.1260
  239MOL   C18448260   4.749   1.385   4.430  0.4236 -0.8815 -0.2839
  239MOL   C18548261   4.794   1.535   4.436 -0.8047 -0.2332 -0.3524
  239MOL   H18648262   4.769   1.378   4.211 -1.6568  0.4662  1.3068
  239MOL   H18748263   4.897   1.299   4.298  0.5470  1.0120 -0.1392
  239MOL   H18848264   4.640   1.381   4.442  0.1115 -0.3265 -2.7454
  239MOL   H18948265   4.791   1.329   4.514 -1.0934  0.8892  1.7436
  239MOL   H19048266   4.899   1.539   4.410 -1.0687 -1.8206 -1.8037
  239MOL   H19148267   4.775   1.573   4.536  0.7200 -0.5017  0.0505
  239MOL   O19248268   4.712   1.597   4.342  0.1020 -0.3378  0.1313
  239MOL   C19348269   4.705   1.738   4.361  0.9241 -0.3630  0.3457
  239MOL   C19448270   4.578   1.773   4.285 -0.3382 -0.1782 -0.3192
  239MOL   C19548271   4.550   1.919   4.278  0.2674 -0.0715  0.2284
  239MOL   H19648272   4.789   1.782   4.307 -1.8190  1.5194 -2.5863
  239MOL   H19748273   4.699   1.765   4.467 -2.3896 -0.2416  0.1835
  239MOL   H19848274   4.566   1.735   4.183  3.2240 -0.1044 -0.8007
  239MOL   H19948275   4.500   1.722   4.342 -0.2634 -0.5901 -0.5855
  239MOL   H20048276   4.624   1.965   4.213 -1.5400 -0.9381 -2.5554
  239MOL   H20148277   4.551   1.960   4.379  2.7799  1.5630 -0.4043
  239MOL   H20248278   4.456   1.935   4.225 -0.6551 -0.8163  1.6104
  240MOL     O148279   3.039   0.434   5.775  0.6471  0.0369  0.3560
  240MOL     C248280   3.090   0.491   5.895 -0.5774  0.5942  0.4760
  240MOL     C348281   3.240   0.480   5.910  0.1534  0.5718 -0.2415
  240MOL     C448282   3.294   0.530   6.046  0.1985  0.0165  0.2407
  240MOL     H548283   3.044   0.435   5.977 -0.1814 -0.1540  0.1947
  240MOL     H648284   3.060   0.595   5.905  1.1195  1.5677 -3.6852
  240MOL     H748285   3.283   0.381   5.893  0.4894  0.3949  1.5189
  240MOL     H848286   3.290   0.544   5.837  0.2634  0.5799 -0.1582
  240MOL     H948287   3.254   0.463   6.123 -0.7355  0.4686  0.1531
  240MOL    H1048288   3.274   0.632   6.078  0.6994  0.2788 -0.2674
  240MOL    H1148289   3.013   0.507   5.720  2.5161  0.4531 -0.0280
  240MOL    O1248290   3.435   0.519   6.057 -1.2131 -0.4220 -0.2967
  240MOL    C1348291   3.508   0.636   6.020 -0.3006  0.1358 -0.2412
  240MOL    C1448292   3.644   0.584   5.994  0.1495 -0.3864 -0.5816
  240MOL    C1548293   3.742   0.701   5.990  1.0830  0.1007 -0.5231
  240MOL    H1648294   3.496   0.718   6.091 -0.1490 -0.0889  0.0412
  240MOL    H1748295   3.469   0.673   5.925  0.7494  2.9289  0.3530
  240MOL    H1848296   3.671   0.506   6.065  0.9024 -1.5218 -2.0819
  240MOL    H1948297   3.644   0.534   5.897  1.2624 -1.1136 -0.2133
  240MOL    H2048298   3.842   0.665   5.967  1.5873  0.7269  0.6619
  240MOL    H2148299   3.751   0.754   6.085 -0.7791  0.7137 -0.6737
  240MOL    O2248300   3.711   0.780   5.872 -0.2856 -0.4547 -0.1713
  240MOL    C2348301   3.778   0.902   5.846  0.2008 -0.6317 -0.0330
  240MOL    C2448302   3.778   0.922   5.695 -0.3912 -0.0526  0.1726
  240MOL    C2548303   3.635   0.937   5.643  0.1209  0.3378  0.0883
  240MOL    H2648304   3.875   0.905   5.895 -0.5516 -0.0437  1.4799
  240MOL    H2748305   3.725   0.987   5.891 -1.1340 -1.9867  1.0204
  240MOL    H2848306   3.836   1.001   5.648 -0.3832 -0.5228 -0.6247
  240MOL    H2948307   3.817   0.832   5.648 -0.6418 -0.4946  0.7890
  240MOL    H3048308   3.598   1.027   5.692  0.3890  0.1452  0.6576
  240MOL    H3148309   3.569   0.855   5.673  0.3115 -0.9788 -2.9146
  240MOL    O3248310   3.631   0.948   5.498  0.3948  0.5085  0.4012
  240MOL    C3348311   3.498   0.966   5.451 -0.1477 -0.2464 -0.4340
  240MOL    C3448312   3.481   0.913   5.311 -0.1068  0.1277 -1.0212
  240MOL    C3548313   3.349   0.953   5.245  0.1287  0.0924  0.1508
  240MOL    H3648314   3.470   1.071   5.454  0.6920 -0.0457  0.8339
  240MOL    H3748315   3.431   0.918   5.523 -0.5098  1.2163  0.2288
  240MOL    H3848316   3.559   0.954   5.248  0.4639 -2.0943 -1.7931
  240MOL    H3948317   3.487   0.804   5.314  1.7507  0.1892 -2.2011
  240MOL    H4048318   3.277   0.964   5.326  0.1691 -0.1005  0.2142
  240MOL    H4148319   3.288   0.879   5.193 -0.1199  0.6764 -0.3969
  240MOL    O4248320   3.344   1.077   5.177  0.0828 -0.1688 -0.2190
  240MOL    C4348321   3.398   1.065   5.046 -0.2273  0.1838 -0.3670
  240MOL    C4448322   3.338   1.173   4.964 -0.1070 -0.3076 -0.0639
  240MOL    C4548323   3.371   1.313   5.017  0.1020  0.6828  0.9261
  240MOL    H4648324   3.374   0.969   5.001  0.4673 -0.0891 -0.1660
  240MOL    H4748325   3.507   1.058   5.050 -0.1871 -0.3407 -2.1028
  240MOL    H4848326   3.371   1.172   4.860 -2.6008  1.7919 -0.9322
  240MOL    H4948327   3.230   1.166   4.952 -0.2182  1.0440  0.0488
  240MOL    H5048328   3.479   1.324   5.019  0.2972 -1.3077  1.6492
  240MOL    H5148329   3.337   1.323   5.120  0.5713 -0.0260  1.1537
  240MOL    O5248330   3.309   1.402   4.927  0.1665  0.3234 -0.0326
  240MOL    C5348331   3.301   1.539   4.961  0.2920 -0.4510 -0.0763
  240MOL    C5448332   3.443   1.596   4.962  0.0815  0.3724  0.7857
  240MOL    C5548333   3.455   1.741   5.005 -0.3264 -0.2909  0.1125
  240MOL    H5648334   3.251   1.542   5.058  0.4778 -1.0297  0.0446
  240MOL    H5748335   3.247   1.599   4.888  0.6112  0.0655  0.1045
  240MOL    H5848336   3.513   1.541   5.025 -1.4868  0.4948  2.6417
  240MOL    H5948337   3.489   1.582   4.864 -0.0910  1.5087  0.5369
  240MOL    H6048338   3.435   1.752   5.111  1.0287  2.0373  0.1515
  240MOL    H6148339   3.401   1.797   4.928 -1.6364 -0.4373  0.9002
  240MOL    O6248340   3.592   1.763   4.982  0.2216 -0.3808 -0.2312
  240MOL    C6348341   3.628   1.908   4.981  0.3934  0.2812  0.0313
  240MOL    C6448342   3.781   1.912   4.956  0.6243 -0.5356  0.0111
  240MOL    C6548343   3.819   1.863   4.816  0.6166 -0.0275  0.0122
  240MOL    H6648344   3.609   1.957   5.076  2.9126  0.8984  0.2651
  240MOL    H6748345   3.565   1.970   4.917  0.4410 -0.8653 -1.1679
  240MOL    H6848346   3.813   2.012   4.984  0.1046 -0.0278 -1.1725
  240MOL    H6948347   3.832   1.849   5.029  0.7998  2.2736  2.3608
  240MOL    H7048348   3.756   1.912   4.741 -2.1376  0.1467  2.3461
  240MOL    H7148349   3.798   1.756   4.802  2.4580 -0.2717 -1.0163
  240MOL    O7248350   3.959   1.875   4.808 -0.0286 -0.0287 -0.2050
  240MOL    C7348351   4.007   1.859   4.679  0.0761 -0.2719  0.0801
  240MOL    C7448352   4.005   1.717   4.623  0.1598 -1.2704  0.3269
  240MOL    C7548353   4.117   1.683   4.517  0.6832  0.1588 -0.8159
  240MOL    H7648354   4.109   1.897   4.678  1.0433 -2.6974 -2.9459
  240MOL    H7748355   3.948   1.923   4.613  0.3223 -2.1860 -2.0788
  240MOL    H7848356   4.020   1.647   4.706  1.8158  0.0330  1.1570
  240MOL    H7948357   3.907   1.694   4.581 -0.3189  2.5754 -0.8835
  240MOL    H8048358   4.093   1.736   4.425 -0.5817  0.2702 -0.4381
  240MOL    H8148359   4.101   1.576   4.500  0.7768  0.1156 -0.6366
  240MOL    O8248360   4.249   1.708   4.564  0.4871  0.4642 -0.2443
  240MOL    C8348361   4.308   1.607   4.643 -0.1805  0.0310 -0.2065
  240MOL    C8448362   4.458   1.629   4.663  0.8123 -0.3154 -0.2253
  240MOL    C8548363   4.520   1.534   4.767 -0.2058  0.4069  0.0380
  240MOL    H8648364   4.305   1.510   4.594  0.4512  0.0423 -0.2712
  240MOL    H8748365   4.260   1.590   4.740  2.5871 -0.5227  1.1123
  240MOL    H8848366   4.494   1.635   4.560 -0.7772 -0.8050 -0.8165
  240MOL    H8948367   4.474   1.728   4.706 -1.0444 -0.2114  0.2603
  240MOL    H9048368   4.539   1.433   4.731  4.4570  1.2467 -0.1640
  240MOL    H9148369   4.463   1.529   4.860 -0.3368  0.3766 -0.0452
  240MOL    O9248370   4.653   1.576   4.801  0.2350 -0.0214  0.2481
  240MOL    C9348371   4.708   1.512   4.913 -0.5052  0.5139  0.0323
  240MOL    C9448372   4.797   1.613   4.991 -0.5470 -0.3557 -0.1853
  240MOL    C9548373   4.718   1.709   5.073 -0.3531 -0.2758 -0.2814
  240MOL    H9648374   4.775   1.438   4.870  2.7072  2.2488  1.8823
  240MOL    H9748375   4.637   1.454   4.973 -1.7801  1.0928 -0.8915
  240MOL    H9848376   4.867   1.561   5.057 -0.6188  0.1955  0.3269
  240MOL    H9948377   4.850   1.672   4.916 -0.7636  0.7581  0.5292
  240MOL   H10048378   4.690   1.657   5.165  1.2778  1.7135  1.4049
  240MOL   H10148379   4.629   1.746   5.024 -0.4708  2.6483  2.0076
  240MOL   O10248380   4.796   1.819   5.115 -0.0465  0.1172  0.6494
  240MOL   C10348381   4.748   1.897   5.225  0.0367 -0.6521 -0.0895
  240MOL   C10448382   4.621   1.978   5.187  0.3273  0.2078 -0.6870
  240MOL   C10548383   4.558   2.043   5.310 -0.3172 -0.0102 -0.8999
  240MOL   H10648384   4.820   1.966   5.270  0.9989 -1.7011  0.0258
  240MOL   H10748385   4.715   1.839   5.311  0.1791  2.0522  1.8474
  240MOL   H10848386   4.646   2.059   5.118  1.3989  0.2553 -0.2487
  240MOL   H10948387   4.539   1.917   5.150 -0.5615 -0.7674  2.7199
  240MOL   H11048388   4.633   2.092   5.372 -0.0885  0.5883 -1.6426
  240MOL   H11148389   4.501   1.978   5.376 -0.0185  0.7759  0.1424
  240MOL   O11248390   4.468   2.142   5.263 -0.0478  0.5557  0.4678
  240MOL   C11348391   4.384   2.195   5.364 -0.3785  0.0437 -0.7699
  240MOL   C11448392   4.302   2.303   5.298 -0.0755  0.1650  0.3552
  240MOL   C11548393   4.169   2.346   5.368 -1.1762 -0.3185  0.4809
  240MOL   H11648394   4.455   2.239   5.434 -1.1894  1.9294 -1.1110
  240MOL   H11748395   4.324   2.113   5.403  0.5307 -1.9349 -3.3490
  240MOL   H11848396   4.363   2.393   5.289 -0.6370  0.4887 -0.3346
  240MOL   H11948397   4.277   2.263   5.200  0.8111 -1.3576  0.7456
  240MOL   H12048398   4.103   2.263   5.396 -0.8662 -0.9013 -0.4907
  240MOL   H12148399   4.116   2.403   5.292 -1.1641 -1.3646 -0.3288
  240MOL   O12248400   4.173   2.411   5.500 -0.2529  0.7183  0.0788
  240MOL   C12348401   4.230   2.541   5.492  0.2246  0.3222 -0.1951
  240MOL   C12448402   4.249   2.593   5.637  0.9816 -0.9859 -0.1242
  240MOL   C12548403   4.374   2.540   5.709  0.1832  0.0011 -0.1061
  240MOL   H12648404   4.166   2.611   5.438  2.3137  1.9840 -0.5998
  240MOL   H12748405   4.324   2.531   5.438  0.4757  0.2093  0.2663
  240MOL   H12848406   4.264   2.701   5.636 -0.9826 -0.6872  1.4756
  240MOL   H12948407   4.157   2.581   5.693 -0.1853  0.0760 -1.7503
  240MOL   H13048408   4.464   2.598   5.690 -0.4838  1.8979  2.3207
  240MOL   H13148409   4.389   2.432   5.716 -1.1917 -0.1184  1.1732
  240MOL   O13248410   4.346   2.580   5.841  0.3895 -0.0378  0.2526
  240MOL   C13348411   4.460   2.568   5.926  0.2276  0.4634 -0.0025
  240MOL   C13448412   4.404   2.556   6.068  0.4233 -0.4880 -0.0131
  240MOL   C13548413   4.520   2.567   6.169 -0.5807  0.9449 -0.3690
  240MOL   H13648414   4.533   2.650   5.921  0.4987  0.3840  1.9407
  240MOL   H13748415   4.516   2.480   5.896  1.4407  0.7544  1.3069
  240MOL   H13848416   4.337   2.642   6.068  0.0742 -0.7420 -1.6740
  240MOL   H13948417   4.349   2.463   6.080  0.3060 -0.1013  2.6707
  240MOL   H14048418   4.521   2.669   6.208  1.4476  1.0564 -0.6771
  240MOL   H14148419   4.612   2.568   6.111 -0.4558 -1.3234 -0.2563
  240MOL   O14248420   4.516   2.451   6.267 -0.2153  0.5007  0.2564
  240MOL   C14348421   4.418   2.468   6.369  0.2979  0.9759  0.1187
  240MOL   C14448422   4.431   2.367   6.482 -0.3993  0.1372  0.4084
  240MOL   C14548423   4.318   2.365   6.584 -0.4027  0.0987 -0.2181
  240MOL   H14648424   4.315   2.468   6.333  0.0719  2.6738  0.7125
  240MOL   H14748425   4.417   2.570   6.408  2.3973  1.1741 -0.2831
  240MOL   H14848426   4.442   2.268   6.439 -1.1224 -0.0468  0.6482
  240MOL   H14948427   4.530   2.376   6.527  0.3911 -2.8614 -0.6270
  240MOL   H15048428   4.219   2.338   6.548 -0.8851  1.4756  0.0355
  240MOL   H15148429   4.307   2.463   6.630 -0.2623  0.3652 -0.7532
  240MOL   O15248430   4.356   2.272   6.683  0.8869 -0.0214  0.8720
  240MOL   C15348431   4.272   2.161   6.697  0.1913  0.6254  0.2692
  240MOL   C15448432   4.348   2.073   6.795  0.1605  0.3812  0.4479
  240MOL   C15548433   4.272   1.959   6.866 -0.0367 -0.0774 -0.2968
  240MOL   H15648434   4.247   2.110   6.604  1.0801  0.1158  0.3090
  240MOL   H15748435   4.182   2.188   6.753 -0.7351  1.0494 -1.3591
  240MOL   H15848436   4.431   2.039   6.733  1.0255  0.5259  1.5130
  240MOL   H15948437   4.396   2.131   6.873  1.0303  1.7221 -1.0421
  240MOL   H16048438   4.175   1.994   6.901 -0.7890 -0.0468 -2.3751
  240MOL   H16148439   4.340   1.924   6.945  0.1021 -0.7730 -0.7220
  240MOL   O16248440   4.246   1.858   6.775 -0.5331 -0.4083  0.0444
  240MOL   C16348441   4.172   1.744   6.819  0.1350  0.3805 -0.6048
  240MOL   C16448442   4.025   1.780   6.844 -0.1356  0.0872 -0.3642
  240MOL   C16548443   3.944   1.658   6.891  0.1201  0.5877  0.5959
  240MOL   H16648444   4.213   1.696   6.909 -3.1712 -1.7380 -0.1389
  240MOL   H16748445   4.167   1.673   6.737 -0.0217  0.8603 -1.0097
  240MOL   H16848446   4.024   1.847   6.931  3.5171  0.6077 -0.6637
  240MOL   H16948447   3.980   1.835   6.761 -0.5530  3.5315  2.0218
  240MOL   H17048448   3.989   1.623   6.984 -0.2005  0.1678  0.5915
  240MOL   H17148449   3.944   1.567   6.832  2.3170 -0.6093  2.3590
  240MOL   O17248450   3.808   1.695   6.910 -0.5497  0.0627  0.2647
  240MOL   C17348451   3.717   1.589   6.911  0.6110 -0.5539 -0.5000
  240MOL   C17448452   3.562   1.640   6.915 -0.1404 -0.5925  0.1258
  240MOL   C17548453   3.460   1.529   6.886 -0.3266 -0.1867 -0.2665
  240MOL   H17648454   3.733   1.543   7.009 -0.4103  0.5076  0.1936
  240MOL   H17748455   3.725   1.515   6.831 -2.8459 -0.8881 -0.6180
  240MOL   H17848456   3.537   1.687   7.010 -0.6242  1.2232 -0.8811
  240MOL   H17948457   3.549   1.715   6.837 -0.2674 -1.1983 -0.4388
  240MOL   H18048458   3.358   1.568   6.877  0.8460  2.4408 -2.8202
  240MOL   H18148459   3.456   1.445   6.956 -1.3288  1.0217  1.1585
  240MOL   O18248460   3.483   1.463   6.761  0.0631 -0.0472 -0.3868
  240MOL   C18348461   3.390   1.358   6.734 -0.2378  0.4728  0.0506
  240MOL   C18448462   3.431   1.315   6.594 -0.2839  0.1595  0.2112
  240MOL   C18548463   3.352   1.187   6.540 -0.0982  0.5235  0.7038
  240MOL   H18648464   3.283   1.378   6.742 -0.5076 -0.4899 -1.0305
  240MOL   H18748465   3.410   1.273   6.799  1.1405  0.9710  0.3083
  240MOL   H18848466   3.420   1.402   6.529  0.4561 -0.0586 -0.2159
  240MOL   H18948467   3.537   1.288   6.591 -0.2519  0.4078 -0.9077
  240MOL   H19048468   3.246   1.198   6.559 -0.0798 -1.1868  1.9689
  240MOL   H19148469   3.371   1.100   6.603 -0.1163  0.2792  0.3771
  240MOL   O19248470   3.405   1.150   6.406  0.5362 -0.0556 -0.5539
  240MOL   C19348471   3.356   1.025   6.360 -0.0005 -0.0345  0.6798
  240MOL   C19448472   3.398   1.009   6.209  0.0225  0.5205  0.1183
  240MOL   C19548473   3.534   1.061   6.163  0.2832  0.2281  0.3605
  240MOL   H19648474   3.250   1.028   6.383 -0.0300  1.2764  0.4288
  240MOL   H19748475   3.399   0.948   6.424  0.2179 -0.0702  0.4931
  240MOL   H19848476   3.378   0.905   6.187 -0.2533  0.2682  1.4940
  240MOL   H19948477   3.324   1.048   6.138  1.3022  1.3628 -0.7710
  240MOL   H20048478   3.530   1.170   6.171 -2.7314  0.1494  0.5041
  240MOL   H20148479   3.556   1.018   6.065  0.3412 -1.6240  1.1791
  240MOL   H20248480   3.612   1.024   6.230 -0.7211 -0.4646  1.1676
  241MOL     O148481   5.199   4.177   0.907  0.3898  0.3578 -0.3787
  241MOL     C248482   5.144   4.159   1.033 -0.3948 -0.0397 -0.1009
  241MOL     C348483   5.000   4.108   1.007 -0.2626 -0.0425  0.9512
  241MOL     C448484   4.915   4.112   1.131  0.9026  0.1326  0.2594
  241MOL     H548485   5.144   4.251   1.091 -2.5947 -0.3373  0.4291
  241MOL     H648486   5.202   4.082   1.084 -1.1249  0.0504  0.8893
  241MOL     H748487   4.953   4.177   0.937 -0.6803  0.6830  1.9265
  241MOL     H848488   4.998   4.010   0.961 -1.6197  0.5225 -0.2186
  241MOL     H948489   4.919   4.202   1.192 -1.4348 -0.1353  0.8785
  241MOL    H1048490   4.937   4.028   1.197  0.1319 -1.2089 -1.1693
  241MOL    H1148491   5.192   4.092   0.866  2.8224 -0.7154  1.3493
  241MOL    O1248492   4.781   4.098   1.092 -0.1599 -0.2301 -0.5290
  241MOL    C1348493   4.683   4.130   1.186  0.5264  0.1028 -0.7149
  241MOL    C1448494   4.683   4.048   1.319  0.0260  0.3449 -0.8329
  241MOL    C1548495   4.549   4.068   1.382  0.2017 -0.4174  0.0231
  241MOL    H1648496   4.591   4.103   1.135  0.4358  1.0780 -1.0846
  241MOL    H1748497   4.683   4.236   1.212  0.1213 -0.2566  0.8111
  241MOL    H1848498   4.704   3.941   1.310 -0.8083 -0.0419  1.3865
  241MOL    H1948499   4.761   4.073   1.390 -1.3485  0.9506  0.4838
  241MOL    H2048500   4.472   4.047   1.308  1.2119 -2.3890 -0.5214
  241MOL    H2148501   4.536   4.169   1.419 -0.8118 -0.9912  1.3003
  241MOL    O2248502   4.517   3.986   1.496  0.5464  0.3867 -0.9043
  241MOL    C2348503   4.590   4.028   1.613  0.3336 -0.7794  0.5460
  241MOL    C2448504   4.613   3.923   1.716 -0.1412 -0.4782 -0.0017
  241MOL    C2548505   4.710   3.953   1.825 -0.3829  0.5115  0.1429
  241MOL    H2648506   4.535   4.109   1.660  0.5165 -0.0957 -0.4089
  241MOL    H2748507   4.682   4.082   1.591 -0.9326  1.4144  0.4281
  241MOL    H2848508   4.515   3.896   1.755 -0.2194 -0.2232 -0.0234
  241MOL    H2948509   4.652   3.832   1.670 -1.8850 -1.1352 -0.2285
  241MOL    H3048510   4.675   4.021   1.903  2.8419  2.5183 -0.0852
  241MOL    H3148511   4.804   3.986   1.781 -0.0048  0.5699  0.9828
  241MOL    O3248512   4.746   3.825   1.890  0.0732 -0.5620  0.1911
  241MOL    C3348513   4.841   3.849   1.986 -0.1707 -0.1252 -0.1879
  241MOL    C3448514   4.867   3.720   2.063 -0.1008  0.5631 -0.1487
  241MOL    C3548515   5.003   3.712   2.135 -0.1058 -0.0012 -0.0456
  241MOL    H3648516   4.806   3.921   2.060 -1.2509  2.9085 -3.5124
  241MOL    H3748517   4.939   3.880   1.950 -0.3761  0.3719 -0.3167
  241MOL    H3848518   4.792   3.722   2.142 -0.2530  0.0627 -0.2809
  241MOL    H3948519   4.855   3.623   2.015  0.6888 -0.3244  1.4341
  241MOL    H4048520   5.024   3.812   2.173 -2.1331  1.4003 -2.4885
  241MOL    H4148521   5.070   3.682   2.054 -1.5608 -0.0448 -1.2561
  241MOL    O4248522   4.996   3.625   2.243 -0.1361 -0.4045 -0.1548
  241MOL    C4348523   5.116   3.554   2.263 -0.7690  0.4739 -0.1740
  241MOL    C4448524   5.091   3.485   2.395  0.4520 -0.0146  0.1191
  241MOL    C4548525   5.215   3.408   2.434  0.6024 -0.5667  0.1833
  241MOL    H4648526   5.198   3.626   2.268 -1.0394  0.6351  2.9412
  241MOL    H4748527   5.144   3.476   2.193  0.2130 -1.5688  2.4225
  241MOL    H4848528   5.065   3.555   2.475  1.1504 -0.3426  0.6431
  241MOL    H4948529   5.013   3.409   2.385 -0.8220  1.2078  0.6249
  241MOL    H5048530   5.300   3.476   2.428  0.6704 -0.8054 -2.0609
  241MOL    H5148531   5.234   3.329   2.361  0.0793 -1.0853  0.6015
  241MOL    O5248532   5.203   3.345   2.559  0.2122  0.3492 -0.5094
  241MOL    C5348533   5.282   3.227   2.563 -0.1232  0.0953 -0.4222
  241MOL    C5448534   5.435   3.246   2.542  0.4271  0.0682  0.7886
  241MOL    C5548535   5.514   3.113   2.565  0.3682 -0.3334  0.1514
  241MOL    H5648536   5.246   3.158   2.485  2.6726 -0.9298 -0.8600
  241MOL    H5748537   5.262   3.173   2.655  0.6190  0.8042  0.1520
  241MOL    H5848538   5.468   3.290   2.448 -1.5064  1.4303  0.7184
  241MOL    H5948539   5.475   3.320   2.610  0.2981 -0.9972  2.0347
  241MOL    H6048540   5.518   3.049   2.477  0.0969  0.8286 -0.7196
  241MOL    H6148541   5.469   3.044   2.636 -0.1251  1.1757  1.3447
  241MOL    O6248542   5.648   3.161   2.586 -0.0813  0.3507 -0.0535
  241MOL    C6348543   5.742   3.059   2.596 -0.0215 -0.4991  0.4027
  241MOL    C6448544   5.724   2.967   2.714  0.0369  0.3022 -0.0480
  241MOL    C6548545   5.832   2.849   2.712 -0.0266 -0.1727 -0.0421
  241MOL    H6648546   5.837   3.111   2.605 -0.7308  0.9046 -0.2347
  241MOL    H6748547   5.748   3.019   2.495  0.0591  2.0045 -0.5975
  241MOL    H6848548   5.728   3.024   2.806  0.9123 -0.2407  0.2608
  241MOL    H6948549   5.627   2.919   2.701  1.4674 -3.0212  0.8668
  241MOL    H7048550   5.826   2.778   2.629  0.9726 -1.0712  0.6406
  241MOL    H7148551   5.826   2.789   2.802 -0.3929 -2.0162 -1.2619
  241MOL    O7248552   5.953   2.910   2.708 -0.0809  0.6272  0.2108
  241MOL    C7348553   6.069   2.829   2.723  0.6204 -0.1240  0.2881
  241MOL    C7448554   6.194   2.902   2.684  0.2661  0.0829 -0.5886
  241MOL    C7548555   6.246   2.983   2.796 -0.3541 -0.0882  0.4216
  241MOL    H7648556   6.054   2.748   2.651  0.7393 -0.2678  0.4239
  241MOL    H7748557   6.064   2.790   2.824  1.2046  1.2956  0.8754
  241MOL    H7848558   6.273   2.834   2.653 -1.3122 -2.1485  0.1561
  241MOL    H7948559   6.180   2.969   2.599  1.1369  2.8996  1.4160
  241MOL    H8048560   6.298   2.916   2.865 -0.4973 -0.2989  0.3260
  241MOL    H8148561   6.163   3.041   2.837 -2.3799 -1.4273 -1.6742
  241MOL    O8248562   6.342   3.079   2.762 -0.1736  0.0512  0.0166
  241MOL    C8348563   6.392   3.145   2.882  0.0125  0.0803 -0.0712
  241MOL    C8448564   6.464   3.274   2.838 -1.1067  0.5011  0.1059
  241MOL    C8548565   6.550   3.352   2.936  0.1054  0.5692 -0.0486
  241MOL    H8648566   6.457   3.075   2.935  1.2505 -0.2782 -1.9908
  241MOL    H8748567   6.304   3.166   2.943  1.0165  0.5758  1.2391
  241MOL    H8848568   6.533   3.237   2.762  2.0355  0.6347  2.7890
  241MOL    H8948569   6.396   3.345   2.792  0.0487  0.9518 -0.9445
  241MOL    H9048570   6.506   3.430   2.998 -1.5049 -1.8803  1.9904
  241MOL    H9148571   6.624   3.411   2.882  1.9490  1.1084  2.9482
  241MOL    O9248572   6.617   3.261   3.020 -0.9014  0.0877  0.1484
  241MOL    C9348573   6.730   3.314   3.086 -0.3760  0.0546  0.3882
  241MOL    C9448574   6.707   3.330   3.236  0.1526 -0.6329 -0.1435
  241MOL    C9548575   6.569   3.377   3.280  0.4092  0.1442  0.0544
  241MOL    H9648576   6.766   3.411   3.052 -3.4288  0.3755 -2.1932
  241MOL    H9748577   6.814   3.249   3.061 -0.3007 -0.1617  1.2027
  241MOL    H9848578   6.720   3.234   3.285 -1.7375 -0.6796  0.3081
  241MOL    H9948579   6.784   3.388   3.288 -0.6753 -0.5324  0.9949
  241MOL   H10048580   6.547   3.338   3.379  1.0877  0.6660  0.4162
  241MOL   H10148581   6.493   3.322   3.225  1.6259 -0.0703 -1.4630
  241MOL   O10248582   6.557   3.516   3.287 -0.0058  0.3515 -0.2731
  241MOL   C10348583   6.442   3.557   3.355  0.7627 -0.3677 -0.3087
  241MOL   C10448584   6.426   3.709   3.359  0.4633  0.4859 -0.8872
  241MOL   C10548585   6.412   3.781   3.225  0.0551  0.0119  0.9188
  241MOL   H10648586   6.437   3.512   3.454  1.0936 -0.2139 -0.2201
  241MOL   H10748587   6.362   3.511   3.298 -0.4228  2.9712 -1.4461
  241MOL   H10848588   6.335   3.737   3.413  0.7407 -1.0748  0.3984
  241MOL   H10948589   6.503   3.753   3.422 -0.4032  0.2034  0.3771
  241MOL   H11048590   6.319   3.752   3.175  0.1606 -1.0503  1.3069
  241MOL   H11148591   6.502   3.764   3.167 -0.5746  0.8969 -0.3275
  241MOL   O11248592   6.411   3.917   3.260  0.3130 -0.3014  0.0847
  241MOL   C11348593   6.393   4.000   3.144  0.0128  0.2524  0.2926
  241MOL   C11448594   6.526   4.083   3.102  0.4182  0.0544  0.0865
  241MOL   C11548595   6.499   4.178   2.983 -0.3246 -0.3847 -0.1099
  241MOL   H11648596   6.327   4.082   3.172  1.4883  1.3603  0.6233
  241MOL   H11748597   6.357   3.954   3.052  1.3790  1.1136 -0.6860
  241MOL   H11848598   6.573   4.130   3.188  0.9072  0.3889 -0.3656
  241MOL   H11948599   6.598   4.006   3.073  2.7382  1.8180  1.0171
  241MOL   H12048600   6.443   4.266   3.015  0.8574  0.2849  0.1501
  241MOL   H12148601   6.433   4.128   2.913  0.0191  0.3110 -0.9423
  241MOL   O12248602   6.624   4.228   2.921  0.0743 -0.0630 -0.3667
  241MOL   C12348603   6.606   4.306   2.799  0.3530 -1.0026  0.2538
  241MOL   C12448604   6.615   4.459   2.824  0.2721  0.1673  0.3865
  241MOL   C12548605   6.616   4.541   2.690  0.4591  0.1053 -0.0293
  241MOL   H12648606   6.516   4.273   2.748  0.9342 -0.1053 -1.3955
  241MOL   H12748607   6.688   4.284   2.730  1.9125 -0.8120  1.9987
  241MOL   H12848608   6.550   4.505   2.898 -1.1307  0.9704 -1.2893
  241MOL   H12948609   6.718   4.475   2.854  0.6606  1.9700 -1.7488
  241MOL   H13048610   6.514   4.519   2.658  1.0430 -1.1948 -1.0094
  241MOL   H13148611   6.688   4.504   2.617  0.7061  1.1823 -0.3324
  241MOL   O13248612   6.623   4.682   2.712  0.2278 -0.2869 -0.5497
  241MOL   C13348613   6.749   4.730   2.732 -0.3893  0.4068 -0.1520
  241MOL   C13448614   6.739   4.883   2.728  0.5217 -0.3538 -0.4658
  241MOL   C13548615   6.878   4.947   2.715 -0.2094 -0.8602 -0.7039
  241MOL   H13648616   6.811   4.688   2.653 -1.6162 -3.6741  0.9529
  241MOL   H13748617   6.782   4.691   2.828  0.5288  0.3905 -0.4751
  241MOL   H13848618   6.666   4.914   2.653  0.5388  0.4871 -0.1448
  241MOL   H13948619   6.689   4.909   2.821 -0.0505  0.0884 -0.8982
  241MOL   H14048620   6.923   4.933   2.617 -0.3733 -2.7475 -0.5261
  241MOL   H14148621   6.954   4.896   2.774  0.5253  0.5329 -0.3986
  241MOL   O14248622   6.880   5.084   2.755  0.5666  0.3229  0.0594
  241MOL   C14348623   6.987   5.158   2.707  0.0786 -0.0832 -0.5608
  241MOL   C14448624   6.966   5.296   2.772 -0.1284 -0.5890  0.1155
  241MOL   C14548625   7.039   5.407   2.700 -0.6294  0.1562  0.2415
  241MOL   H14648626   6.962   5.169   2.601 -2.6612  2.4429  0.2748
  241MOL   H14748627   7.083   5.110   2.725  0.3182  0.9696  1.0413
  241MOL   H14848628   6.862   5.327   2.768  0.5644  2.2925  2.2561
  241MOL   H14948629   6.994   5.294   2.878 -1.2826  2.2223  0.5296
  241MOL   H15048630   7.009   5.412   2.595 -0.2457  0.7051  0.1562
  241MOL   H15148631   7.148   5.394   2.698 -0.7744 -1.0132 -1.0293
  241MOL   O15248632   7.006   5.526   2.771  0.1960 -0.0470 -0.5153
  241MOL   C15348633   7.052   5.644   2.704 -0.5785 -0.0526  0.0763
  241MOL   C15448634   6.964   5.771   2.735  0.3795  1.0147 -0.2268
  241MOL   C15548635   7.021   5.896   2.678 -0.0121  0.0967  0.0348
  241MOL   H15648636   7.048   5.631   2.595 -3.0345  1.7759 -0.1005
  241MOL   H15748637   7.157   5.658   2.728 -0.4178  0.8463 -1.0859
  241MOL   H15848638   6.864   5.755   2.695  0.6897 -1.0658 -0.2103
  241MOL   H15948639   6.948   5.795   2.841 -1.1690  2.3640 -0.7439
  241MOL   H16048640   7.052   5.890   2.573  1.6641  0.0958  0.5166
  241MOL   H16148641   7.109   5.919   2.738 -0.3217 -0.1130  0.5688
  241MOL   O16248642   6.920   5.997   2.685  0.2089 -0.2591 -0.0811
  241MOL   C16348643   6.963   6.134   2.715  0.1992  0.9283 -0.4507
  241MOL   C16448644   6.844   6.226   2.742 -0.9700  0.1370  0.2844
  241MOL   C16548645   6.738   6.212   2.633 -0.0315  0.5678  0.4504
  241MOL   H16648646   7.012   6.162   2.621  1.6659 -0.3902 -0.1083
  241MOL   H16748647   7.040   6.132   2.792  1.8460 -0.2043 -2.0514
  241MOL   H16848648   6.794   6.194   2.833 -0.6487  0.2814  0.5143
  241MOL   H16948649   6.887   6.324   2.762 -0.4844 -0.1531  0.6935
  241MOL   H17048650   6.703   6.109   2.623  0.5162  0.2563  1.7045
  241MOL   H17148651   6.789   6.243   2.542 -0.4353 -0.6217 -0.1966
  241MOL   O17248652   6.621   6.291   2.663 -0.5650 -0.2000 -0.7914
  241MOL   C17348653   6.504   6.285   2.586  0.6867  0.5421 -0.1591
  241MOL   C17448654   6.379   6.267   2.683 -0.1846 -0.5578  0.9590
  241MOL   C17548655   6.353   6.390   2.771 -1.0757 -0.1142  0.0325
  241MOL   H17648656   6.509   6.201   2.517  0.4052 -0.4107  0.9504
  241MOL   H17748657   6.495   6.372   2.522  1.8356  0.3747 -0.5600
  241MOL   H17848658   6.297   6.250   2.613  1.1272  0.7288 -0.9476
  241MOL   H17948659   6.378   6.180   2.748  0.2667 -1.3375 -0.0480
  241MOL   H18048660   6.329   6.475   2.707 -0.8941 -0.2425 -0.2080
  241MOL   H18148661   6.442   6.412   2.829 -0.8886 -1.0865  0.1269
  241MOL   O18248662   6.248   6.359   2.863  0.0788  1.0564 -0.3511
  241MOL   C18348663   6.218   6.467   2.947 -0.5667 -0.7020 -0.1509
  241MOL   C18448664   6.095   6.446   3.032  0.0153  0.7156 -0.1793
  241MOL   C18548665   6.118   6.337   3.140 -0.1000  0.8403 -0.3978
  241MOL   H18648666   6.200   6.556   2.886  1.3097 -0.3079 -0.1529
  241MOL   H18748667   6.301   6.483   3.015 -1.8566  3.1969  0.6924
  241MOL   H18848668   6.073   6.543   3.076  1.0524  1.5164 -1.3815
  241MOL   H18948669   6.015   6.416   2.965  2.2983  0.8226 -3.0580
  241MOL   H19048670   6.145   6.244   3.091  1.6372  0.9636  0.2812
  241MOL   H19148671   6.017   6.321   3.177  0.4140  1.3606  1.2948
  241MOL   O19248672   6.204   6.382   3.235 -1.0779 -0.3864 -0.1834
  241MOL   C19348673   6.193   6.311   3.351 -0.0025 -0.7131  0.3720
  241MOL   C19448674   6.271   6.388   3.453  0.4605 -0.7710  0.3625
  241MOL   C19548675   6.413   6.422   3.408  0.2303  0.5583  0.1340
  241MOL   H19648676   6.219   6.205   3.342  0.2291 -0.5774 -0.6350
  241MOL   H19748677   6.089   6.310   3.382 -0.6155  0.1640 -1.5983
  241MOL   H19848678   6.219   6.482   3.470  0.6659 -0.6453  0.2991
  241MOL   H19948679   6.271   6.323   3.540 -0.8856  1.2438  1.9086
  241MOL   H20048680   6.469   6.332   3.383  1.7199  1.0460  1.6453
  241MOL   H20148681   6.456   6.465   3.498  1.7538  0.6418 -0.6088
  241MOL   H20248682   6.418   6.488   3.321  0.4778 -0.4342 -0.6138
  242MOL     O148683   5.700   2.426   1.989  0.5120 -0.4273 -0.1945
  242MOL     C248684   5.752   2.551   2.013  0.2282 -0.3421  0.1930
  242MOL     C348685   5.905   2.536   2.020  0.6246 -0.0556  0.0801
  242MOL     C448686   5.977   2.666   2.018  0.2632  0.0511 -0.2378
  242MOL     H548687   5.705   2.586   2.105 -0.5131  0.4228 -0.4696
  242MOL     H648688   5.717   2.619   1.936 -1.0495  0.9858  1.9147
  242MOL     H748689   5.928   2.484   2.113 -1.3493 -1.9864 -0.4981
  242MOL     H848690   5.943   2.470   1.943 -1.4880 -2.2408  0.8608
  242MOL     H948691   5.961   2.717   2.113 -1.7018 -0.0543 -0.4946
  242MOL    H1048692   5.945   2.726   1.933  2.1899  1.2139 -0.1792
  242MOL    H1148693   5.607   2.441   1.981  0.6588 -0.0707 -1.3579
  242MOL    O1248694   6.112   2.649   1.998 -0.2950 -0.3987 -0.5449
  242MOL    C1348695   6.182   2.768   1.985  0.8599 -0.4166 -0.1054
  242MOL    C1448696   6.326   2.739   1.962  0.0781  0.1766  0.5379
  242MOL    C1548697   6.423   2.857   1.968 -0.1850 -0.7569 -0.1722
  242MOL    H1648698   6.174   2.835   2.071 -2.5116  0.2428 -0.8624
  242MOL    H1748699   6.146   2.825   1.899 -2.5716  1.1261  2.2433
  242MOL    H1848700   6.351   2.665   2.038 -1.2838  1.1657  1.9819
  242MOL    H1948701   6.329   2.695   1.862 -1.9042  1.0482  0.0759
  242MOL    H2048702   6.439   2.887   2.072  1.1618 -0.4869 -0.4406
  242MOL    H2148703   6.383   2.947   1.922 -0.1904  1.5280  4.0047
  242MOL    O2248704   6.550   2.812   1.920  0.6083 -0.5899  0.3634
  242MOL    C2348705   6.644   2.911   1.920 -0.5281 -0.1482  0.1498
  242MOL    C2448706   6.765   2.856   1.841  0.0306 -0.3101  0.2255
  242MOL    C2548707   6.863   2.967   1.801 -0.0527  0.1534 -0.0983
  242MOL    H2648708   6.663   2.912   2.027 -0.3629 -1.7509  0.1602
  242MOL    H2748709   6.602   2.999   1.873 -0.6349  1.4398  3.1303
  242MOL    H2848710   6.827   2.791   1.904  3.0996  0.1353 -2.2141
  242MOL    H2948711   6.733   2.793   1.758 -1.0901  0.8451 -0.2335
  242MOL    H3048712   6.912   2.993   1.895  0.5249  1.9261 -0.8713
  242MOL    H3148713   6.819   3.053   1.750  0.7659  0.1192 -0.8757
  242MOL    O3248714   6.972   2.915   1.729 -0.1072  0.2740 -0.1082
  242MOL    C3348715   7.086   2.989   1.740  0.2475 -0.0232  1.2073
  242MOL    C3448716   7.083   3.115   1.651 -0.1846 -0.2197 -0.3153
  242MOL    C3548717   7.196   3.209   1.678  0.0016 -0.7283  0.1745
  242MOL    H3648718   7.168   2.930   1.698  1.3155  3.1299 -1.3627
  242MOL    H3748719   7.106   3.015   1.844 -0.3640  2.0258  0.8462
  242MOL    H3848720   7.100   3.077   1.550  1.4657 -0.0608 -0.1019
  242MOL    H3948721   6.992   3.174   1.656 -0.1828 -0.4168  3.2184
  242MOL    H4048722   7.208   3.280   1.597  0.7777 -2.1109 -0.9387
  242MOL    H4148723   7.288   3.151   1.685 -0.6211 -1.7065  0.3831
  242MOL    O4248724   7.165   3.279   1.793 -0.1555 -0.9985 -0.0369
  242MOL    C4348725   7.265   3.371   1.842  0.0538  0.1045 -0.5574
  242MOL    C4448726   7.242   3.400   1.990  0.3168 -0.2064  0.4003
  242MOL    C4548727   7.360   3.469   2.059 -0.4058 -0.1685 -0.9720
  242MOL    H4648728   7.262   3.466   1.787  1.1230  0.6003  0.2251
  242MOL    H4748729   7.365   3.332   1.823  0.5345  1.7035 -1.4211
  242MOL    H4848730   7.158   3.469   1.994  0.8855  0.5422 -0.2774
  242MOL    H4948731   7.208   3.306   2.034 -0.2725 -0.6684 -1.0180
  242MOL    H5048732   7.449   3.408   2.045 -0.4019 -0.5831  0.7657
  242MOL    H5148733   7.337   3.480   2.165  0.9312 -0.4262 -0.6442
  242MOL    O5248734   7.388   3.602   2.009  0.2478  0.0180  0.0339
  242MOL    C5348735   7.505   3.652   2.055 -0.5667  0.3764 -0.7518
  242MOL    C5448736   7.530   3.803   2.031  0.2331 -0.0614 -0.1398
  242MOL    C5548737   7.568   3.845   1.890  0.1874 -0.0312  0.2488
  242MOL    H5648738   7.584   3.588   2.015 -0.2792  0.4870 -0.3602
  242MOL    H5748739   7.496   3.644   2.163 -1.4531  1.2072 -0.7625
  242MOL    H5848740   7.436   3.852   2.058 -0.9013 -2.3259  0.1900
  242MOL    H5948741   7.603   3.839   2.104 -1.1826  1.0422  0.7554
  242MOL    H6048742   7.496   3.815   1.813  0.6992 -1.3860  0.2814
  242MOL    H6148743   7.665   3.801   1.867 -0.0786  0.5459 -2.0959
  242MOL    O6248744   7.580   3.982   1.894  0.7010  0.0513 -0.0441
  242MOL    C6348745   7.628   4.036   1.765  0.5593 -0.1455  0.0796
  242MOL    C6448746   7.603   4.188   1.753  0.0243 -0.1180  0.3448
  242MOL    C6548747   7.598   4.244   1.612  0.2261 -0.0972 -0.3908
  242MOL    H6648748   7.585   3.974   1.686  0.0640 -0.3032  0.4692
  242MOL    H6748749   7.731   4.003   1.755  0.6901  0.0107  0.8929
  242MOL    H6848750   7.501   4.205   1.788 -0.4855 -0.5642 -0.9014
  242MOL    H6948751   7.672   4.242   1.818  2.4836 -1.2485 -1.2433
  242MOL    H7048752   7.512   4.210   1.555 -1.1381 -1.1579  2.2208
  242MOL    H7148753   7.695   4.214   1.573 -0.0787  0.3466 -1.5039
  242MOL    O7248754   7.592   4.385   1.623 -0.6229  0.1621  0.5184
  242MOL    C7348755   7.596   4.469   1.510 -0.9103  0.1242  0.7999
  242MOL    C7448756   7.635   4.612   1.531 -0.8492 -0.0309 -0.3731
  242MOL    C7548757   7.612   4.711   1.414  0.2412 -0.3684  0.6401
  242MOL    H7648758   7.493   4.471   1.473 -0.6123 -2.9548 -0.3783
  242MOL    H7748759   7.653   4.425   1.429 -0.8204 -0.4427  1.1691
  242MOL    H7848760   7.581   4.643   1.620  0.5253 -2.2432  1.3065
  242MOL    H7948761   7.737   4.611   1.570 -1.6068 -0.9534  1.6648
  242MOL    H8048762   7.632   4.813   1.448  1.0110 -0.2602 -0.1049
  242MOL    H8148763   7.507   4.716   1.385  1.0651  0.5341 -2.3586
  242MOL    O8248764   7.698   4.687   1.307  0.2996 -0.4525 -0.9469
  242MOL    C8348765   7.680   4.777   1.201  0.0187  0.0290 -0.7762
  242MOL    C8448766   7.762   4.721   1.091 -0.4456  0.1056 -0.4501
  242MOL    C8548767   7.778   4.819   0.969  0.1604  0.1028 -0.6013
  242MOL    H8648768   7.711   4.876   1.235 -0.4792  0.3798 -1.3333
  242MOL    H8748769   7.576   4.774   1.167 -0.1398 -0.3310 -0.2725
  242MOL    H8848770   0.067   4.679   1.128 -0.4343  1.2810  0.8860
  242MOL    H8948771   7.699   4.638   1.056 -0.5230  0.4221 -1.0779
  242MOL    H9048772   0.053   4.897   1.013 -1.2055  1.0169 -0.2472
  242MOL    H9148773   7.691   4.882   0.951  0.5177  1.0906  0.9680
  242MOL    O9248774   0.032   4.761   0.849  0.3842 -0.1249  0.0319
  242MOL    C9348775   0.179   4.760   0.844  0.0132 -0.2862  0.0888
  242MOL    C9448776   0.220   4.705   0.710 -0.2143  0.3635 -0.4887
  242MOL    C9548777   0.367   4.705   0.693  0.0396  0.3145 -0.4083
  242MOL    H9648778   0.228   4.699   0.919  1.5733 -0.9273 -1.4054
  242MOL    H9748779   0.223   4.859   0.845  0.4211 -0.4577 -0.2032
  242MOL    H9848780   0.186   4.602   0.701 -0.4537  0.2933  1.1375
  242MOL    H9948781   0.177   4.769   0.632 -0.3545  0.7414 -0.1036
  242MOL   H10048782   0.409   4.630   0.759  0.7247 -0.0425 -1.2503
  242MOL   H10148783   0.407   4.797   0.735  1.5391 -0.3103 -0.4533
  242MOL   O10248784   0.415   4.687   0.561 -0.0917 -0.2441  0.5124
  242MOL   C10348785   0.408   4.555   0.516  0.4786 -0.2089 -0.2671
  242MOL   C10448786   0.480   4.527   0.383  0.0240 -1.1498  0.8200
  242MOL   C10548787   0.524   4.385   0.357 -0.5553  0.4316  0.6346
  242MOL   H10648788   0.309   4.520   0.485  1.3412 -0.8723 -2.3564
  242MOL   H10748789   0.446   4.489   0.594  0.4349 -0.3201 -0.3388
  242MOL   H10848790   0.417   4.558   0.299  0.4859 -0.6063  0.6709
  242MOL   H10948791   0.574   4.581   0.386 -0.4556 -0.3210  1.2173
  242MOL   H11048792   0.608   4.371   0.425 -1.3932 -0.5679  1.4784
  242MOL   H11148793   0.552   4.357   0.256 -3.1505 -0.3660  0.0884
  242MOL   O11248794   0.424   4.294   0.394  0.0950  0.2030  0.0579
  242MOL   C11348795   0.336   4.256   0.292 -0.5428 -0.3522  0.2234
  242MOL   C11448796   0.389   4.140   0.208  0.1098 -0.4558 -0.0727
  242MOL   C11548797   0.296   4.097   0.089  0.1678  0.5861 -0.0791
  242MOL   H11648798   0.298   4.340   0.234  1.0046 -1.6168 -2.7553
  242MOL   H11748799   0.249   4.221   0.348  2.0899 -1.3367  3.8729
  242MOL   H11848800   0.487   4.159   0.166  0.0274 -0.1025 -0.1116
  242MOL   H11948801   0.409   4.046   0.259 -1.7573 -1.3499 -0.9237
  242MOL   H12048802   0.262   4.188   0.039 -0.2617  1.0421  1.0037
  242MOL   H12148803   0.209   4.041   0.122  1.2609 -0.9514  0.2857
  242MOL   O12248804   0.376   4.015   0.004 -0.1812 -0.0256 -0.3299
  242MOL   C12348805   0.327   4.028   7.660 -0.1215 -0.3093 -0.0018
  242MOL   C12448806   0.408   3.938   7.558  0.0346  0.6383  0.1935
  242MOL   C12548807   0.554   3.998   7.526 -0.5531  0.5512  0.0738
  242MOL   H12648808   0.328   4.133   7.630  1.0088 -0.4880 -0.6018
  242MOL   H12748809   0.222   4.002   7.647 -0.6019  0.5570  1.9690
  242MOL   H12848810   0.404   3.834   7.590 -0.7912  0.7178  0.3417
  242MOL   H12948811   0.362   3.946   7.459  1.3072 -3.7394 -0.9041
  242MOL   H13048812   0.620   4.015   7.610  0.8305 -0.4333 -0.7824
  242MOL   H13148813   0.542   4.096   7.480  0.2707  0.0428 -1.2496
  242MOL   O13248814   0.617   3.918   7.429 -0.0765  0.0636 -0.1074
  242MOL   C13348815   0.751   3.968   7.409  1.0812  0.4391 -0.2295
  242MOL   C13448816   0.793   3.886   7.286 -0.0092  0.7109  0.0642
  242MOL   C13548817   0.923   3.937   7.221 -0.3513  1.1259  0.1542
  242MOL   H13648818   0.809   3.956   7.500  3.6110  1.1622 -1.7098
  242MOL   H13748819   0.743   4.076   7.402  1.1804  0.3934 -1.1101
  242MOL   H13848820   0.802   3.778   7.300  1.8694  0.5834 -1.8296
  242MOL   H13948821   0.710   3.895   7.215 -0.3680  0.5005  0.4496
  242MOL   H14048822   1.011   3.913   7.280 -0.5836  1.0979  0.4899
  242MOL   H14148823   0.933   4.045   7.211  2.4931  0.9911  1.0661
  242MOL   O14248824   0.926   3.873   7.100 -0.3738  0.3517  0.6164
  242MOL   C14348825   1.042   3.902   7.019  0.1074  0.1842 -0.2052
  242MOL   C14448826   1.031   3.820   6.891 -0.2948  0.0422  0.0390
  242MOL   C14548827   0.911   3.873   6.806 -0.3506 -0.1916 -0.6815
  242MOL   H14648828   1.136   3.895   7.074 -0.3596 -2.4412  0.3025
  242MOL   H14748829   1.041   4.002   6.975 -0.0856 -0.2941 -1.3044
  242MOL   H14848830   1.122   3.824   6.831  0.0951  1.3973  0.7120
  242MOL   H14948831   1.026   3.712   6.908 -0.1346 -0.3203 -2.0562
  242MOL   H15048832   0.943   3.965   6.758  0.7047  0.4037  1.0956
  242MOL   H15148833   0.833   3.884   6.881 -0.2573  0.6160 -0.6927
  242MOL   O15248834   0.879   3.763   6.715 -0.1376  0.2518 -0.1501
  242MOL   C15348835   0.772   3.781   6.621 -0.4418  0.3979  0.9253
  242MOL   C15448836   0.737   3.643   6.554 -0.6161  0.1336 -0.2928
  242MOL   C15548837   0.654   3.652   6.427 -0.0340 -0.5547  0.0709
  242MOL   H15648838   0.791   3.865   6.553  1.6228 -1.6070 -1.0858
  242MOL   H15748839   0.685   3.815   6.677  1.1131  1.4504  2.7696
  242MOL   H15848840   0.822   3.576   6.537  0.7312  1.8973 -0.6525
  242MOL   H15948841   0.687   3.577   6.625 -1.4144  0.7992 -0.2273
  242MOL   H16048842   0.640   3.553   6.385 -2.7710 -1.1256  2.1554
  242MOL   H16148843   0.717   3.708   6.358 -1.2682  0.4391 -0.2781
  242MOL   O16248844   0.537   3.728   6.441 -0.1679  0.0187 -0.1131
  242MOL   C16348845   0.437   3.672   6.523 -0.0580  0.0954 -1.1473
  242MOL   C16448846   0.321   3.754   6.474 -0.8550 -0.4746  0.1666
  242MOL   C16548847   0.192   3.715   6.540 -0.2496 -0.4887 -0.5520
  242MOL   H16648848   0.467   3.682   6.627  1.8086  3.4300 -1.9288
  242MOL   H16748849   0.418   3.565   6.509  1.0790 -0.2421 -0.1803
  242MOL   H16848850   0.344   3.859   6.493  0.0130 -0.3036 -1.6813
  242MOL   H16948851   0.314   3.755   6.365 -0.9976 -0.3021  0.1763
  242MOL   H17048852   0.222   3.714   6.645  1.4531  5.2633 -0.7903
  242MOL   H17148853   0.145   3.624   6.505 -0.6012 -1.2655  1.8644
  242MOL   O17248854   0.098   3.825   6.528  0.3170 -0.5241  0.1437
  242MOL   C17348855   7.775   3.796   6.614 -0.1377 -0.5312  0.0528
  242MOL   C17448856   7.656   3.892   6.588 -0.8009  0.3957  0.0003
  242MOL   C17548857   7.523   3.847   6.642  0.1377  0.4773  0.3025
  242MOL   H17648858   0.012   3.795   6.720 -2.3633  1.4058  0.6552
  242MOL   H17748859   7.736   3.697   6.592  0.5306 -1.0389  1.1264
  242MOL   H17848860   7.679   3.981   6.648 -0.7890  2.1467 -2.5302
  242MOL   H17948861   7.637   3.917   6.484 -0.8848  3.5083  0.7193
  242MOL   H18048862   7.490   3.770   6.572 -1.5357  3.5983 -2.5094
  242MOL   H18148863   7.447   3.924   6.630 -0.8637 -0.3402  1.2460
  242MOL   O18248864   7.525   3.798   6.776 -0.2147  0.2777 -0.2316
  242MOL   C18348865   7.411   3.821   6.845  0.1041  0.6332 -0.3062
  242MOL   C18448866   7.412   3.733   6.980 -0.0282 -0.4794  0.3911
  242MOL   C18548867   7.316   3.774   7.082  0.1831  0.4231 -0.0710
  242MOL   H18648868   7.318   3.796   6.795 -1.9928  3.1495  2.1880
  242MOL   H18748869   7.394   3.925   6.871  3.2667  0.8547  1.2371
  242MOL   H18848870   7.395   3.628   6.956  0.0974 -0.9795  2.3762
  242MOL   H18948871   7.515   3.736   7.016 -0.0559  1.0766  0.3648
  242MOL   H19048872   7.291   3.683   7.137 -2.5114  1.6605  0.8247
  242MOL   H19148873   7.230   3.822   7.036  0.2736 -1.1841 -1.9491
  242MOL   O19248874   7.379   3.859   7.171  0.6402  0.0423 -0.0017
  242MOL   C19348875   7.297   3.908   7.271  0.4671 -0.2420  0.3323
  242MOL   C19448876   7.358   4.040   7.332  0.0738  0.4321 -0.3432
  242MOL   C19548877   7.356   4.156   7.235  0.1530  0.6850  0.8092
  242MOL   H19648878   7.282   3.834   7.350  2.9611 -1.9711 -0.7401
  242MOL   H19748879   7.194   3.935   7.246  0.3280 -0.4252  0.7036
  242MOL   H19848880   7.312   4.070   7.427  0.4996  1.4565 -0.4526
  242MOL   H19948881   7.459   4.004   7.352 -0.6900 -1.0081  0.9866
  242MOL   H20048882   7.413   4.156   7.142  1.3853  0.4074  1.5565
  242MOL   H20148883   7.382   4.244   7.294 -2.0156  1.1711  1.0928
  242MOL   H20248884   7.252   4.172   7.206  0.7680 -0.4070 -2.1764
  243MOL     O148885   5.002   6.147   1.615 -0.0306 -0.2379 -0.4584
  243MOL     C248886   4.951   6.276   1.615 -0.7357 -0.4295 -0.7548
  243MOL     C348887   4.882   6.298   1.481  0.9935  0.3009 -0.9381
  243MOL     C448888   4.833   6.435   1.466 -0.2496  0.2245  0.2685
  243MOL     H548889   5.041   6.333   1.639 -1.4670 -1.0799  4.0765
  243MOL     H648890   4.884   6.291   1.700  0.4716  0.8868 -0.0125
  243MOL     H748891   4.962   6.278   1.410  1.0049 -0.2420 -0.7779
  243MOL     H848892   4.806   6.223   1.456 -0.0293  0.5106  1.3935
  243MOL     H948893   4.900   6.519   1.488 -0.9394  0.8444  0.0256
  243MOL    H1048894   4.744   6.442   1.528 -0.4434 -0.5779  0.0846
  243MOL    H1148895   5.056   6.130   1.690  1.0119  0.3189 -1.0690
  243MOL    O1248896   4.794   6.454   1.331 -0.7101 -0.0539  0.4665
  243MOL    C1348897   4.725   6.572   1.316 -0.1300 -0.1153 -0.2926
  243MOL    C1448898   4.703   6.598   1.170 -0.2741 -0.2318 -0.7278
  243MOL    C1548899   4.595   6.521   1.090  0.1862  0.2234 -0.1572
  243MOL    H1648900   4.767   6.660   1.366 -0.3020 -0.8112  1.1243
  243MOL    H1748901   4.627   6.538   1.350 -0.0391  0.0945  0.1862
  243MOL    H1848902   4.676   6.704   1.164 -0.0327 -0.2842 -3.5463
  243MOL    H1948903   4.795   6.602   1.111 -1.1218  2.3800 -1.9508
  243MOL    H2048904   4.494   6.549   1.120  0.2136  1.1150 -0.8683
  243MOL    H2148905   4.605   6.413   1.098  0.6965  0.2663 -0.2394
  243MOL    O2248906   4.614   6.557   0.957  0.7628  0.0096  0.1887
  243MOL    C2348907   4.509   6.520   0.868  0.6121  0.0820  0.2136
  243MOL    C2448908   4.525   6.593   0.726  0.2108 -0.1248  0.1561
  243MOL    C2548909   4.447   6.529   0.613  0.0279 -0.4757 -0.0909
  243MOL    H2648910   4.408   6.534   0.908  1.5802 -0.1585  2.7933
  243MOL    H2748911   4.514   6.413   0.852 -1.5557  0.1067 -0.8492
  243MOL    H2848912   4.506   6.699   0.744  2.0127  0.0665  1.0484
  243MOL    H2948913   4.630   6.587   0.695  0.3843  1.2684  0.4200
  243MOL    H3048914   4.461   6.422   0.598  0.8818 -0.2120 -1.2560
  243MOL    H3148915   4.481   6.575   0.520  0.9923 -2.9643 -1.0232
  243MOL    O3248916   4.304   6.568   0.621 -0.1343  0.3479 -0.2495
  243MOL    C3348917   4.226   6.451   0.654 -0.6051  0.6850  0.1804
  243MOL    C3448918   4.093   6.507   0.704  0.1676 -0.0740 -0.2112
  243MOL    C3548919   4.002   6.386   0.735  0.5808 -0.5665 -0.3078
  243MOL    H3648920   4.263   6.381   0.729 -1.5884 -1.7400 -1.5439
  243MOL    H3748921   4.224   6.392   0.563 -4.2291 -1.2043  1.3775
  243MOL    H3848922   4.106   6.559   0.798 -0.9472  0.2599 -0.2385
  243MOL    H3948923   4.046   6.567   0.625  0.4696  0.4221 -0.0217
  243MOL    H4048924   4.036   6.333   0.824  0.2410 -1.3335 -0.6371
  243MOL    H4148925   4.009   6.317   0.651 -0.1538  1.0110 -1.6959
  243MOL    O4248926   3.862   6.419   0.746 -0.4353 -0.1036 -0.5735
  243MOL    C4348927   3.773   6.310   0.769 -0.9584  0.1440  0.4459
  243MOL    C4448928   3.635   6.374   0.795  0.5231 -0.5471  0.5107
  243MOL    C4548929   3.568   6.317   0.924  0.1903 -0.4512  0.3011
  243MOL    H4648930   3.814   6.243   0.844 -0.3971 -0.5621 -0.4855
  243MOL    H4748931   3.768   6.258   0.674  2.0527  1.0690 -0.2608
  243MOL    H4848932   3.654   6.481   0.790 -1.5466 -0.2344 -1.5547
  243MOL    H4948933   3.572   6.359   0.708  3.0197  1.4526 -1.7114
  243MOL    H5048934   3.567   6.208   0.935 -0.5883 -0.4636  0.1123
  243MOL    H5148935   3.461   6.333   0.914  0.1230 -1.6985 -1.2034
  243MOL    O5248936   3.609   6.376   1.043 -0.1484  0.5268  0.1859
  243MOL    C5348937   3.729   6.323   1.096 -0.1111  0.3746  0.1019
  243MOL    C5448938   3.734   6.357   1.242  0.2771 -0.1377  0.4861
  243MOL    C5548939   3.879   6.368   1.301  0.0956  0.0238  0.1997
  243MOL    H5648940   3.814   6.357   1.038  0.9595 -1.3728  0.6220
  243MOL    H5748941   3.735   6.214   1.088 -0.7714  0.4416 -1.4213
  243MOL    H5848942   3.684   6.451   1.265  2.5061  0.5732  2.7014
  243MOL    H5948943   3.669   6.290   1.298 -1.2592  0.9810  0.0488
  243MOL    H6048944   3.937   6.276   1.291  1.2926  0.7634  0.2311
  243MOL    H6148945   3.865   6.394   1.406  2.0611 -0.0517  0.4884
  243MOL    O6248946   3.938   6.481   1.230  0.1723  1.0038  0.4279
  243MOL    C6348947   4.035   6.538   1.308  0.0556  0.2550  0.7972
  243MOL    C6448948   4.090   6.654   1.215  0.3471 -0.2697  0.7194
  243MOL    C6548949   4.161   6.590   1.089  0.2372 -0.8301 -0.0373
  243MOL    H6648950   4.110   6.463   1.334 -2.5079 -1.8926  2.1320
  243MOL    H6748951   3.993   6.568   1.404 -0.7100  0.6280  0.3486
  243MOL    H6848952   4.003   6.716   1.193  0.1973 -0.9462 -0.6844
  243MOL    H6948953   4.159   6.719   1.267  1.1427  0.0136 -0.6679
  243MOL    H7048954   4.086   6.539   1.029 -0.6425 -0.8181  1.0301
  243MOL    H7148955   4.230   6.511   1.118 -0.0264 -1.9177 -2.2524
  243MOL    O7248956   4.250   6.689   1.025  0.0271 -0.3262  0.0223
  243MOL    C7348957   4.173   6.790   0.965 -0.4400  0.6398 -0.4265
  243MOL    C7448958   4.235   6.829   0.834 -0.5855  0.3523  0.4303
  243MOL    C7548959   4.141   6.898   0.731  0.6965 -0.0033  0.2421
  243MOL    H7648960   4.174   6.884   1.021 -2.5695  1.1515 -1.2134
  243MOL    H7748961   4.070   6.763   0.941  0.5416 -1.9683 -1.8665
  243MOL    H7848962   4.314   6.901   0.858 -0.5177  0.2063  0.6457
  243MOL    H7948963   4.286   6.742   0.792 -3.8866 -2.0204  1.1699
  243MOL    H8048964   4.055   6.833   0.715  0.2336  0.4410  0.8852
  243MOL    H8148965   4.201   6.898   0.639  0.4602 -1.5371  0.0638
  243MOL    O8248966   4.094   7.026   0.761 -0.0993 -0.3530  0.1528
  243MOL    C8348967   4.188   7.130   0.774 -0.2684 -0.5269  0.1399
  243MOL    C8448968   4.112   7.264   0.753  0.3456 -0.8086 -0.0090
  243MOL    C8548969   4.207   7.384   0.768  0.1772  0.2586  0.1979
  243MOL    H8648970   4.255   7.125   0.688  0.3629  1.2322  0.5036
  243MOL    H8748971   4.233   7.133   0.873 -1.8238  0.2297  0.8358
  243MOL    H8848972   4.075   7.255   0.651 -2.3403 -2.3875  1.0378
  243MOL    H8948973   4.022   7.274   0.814  1.1254  0.6935  0.9127
  243MOL    H9048974   4.160   7.476   0.735 -1.2079  0.4233  2.5554
  243MOL    H9148975   4.298   7.363   0.711  0.0371  0.7710 -0.2257
  243MOL    O9248976   4.231   7.391   0.906  0.3878 -0.5195 -0.2855
  243MOL    C9348977   4.301   7.510   0.950 -0.5720  0.4226 -0.3994
  243MOL    C9448978   4.331   7.515   1.100  0.1982  0.2453 -0.4065
  243MOL    C9548979   4.219   7.578   1.188  0.1188 -0.0746  0.1624
  243MOL    H9648980   4.243   7.599   0.926 -0.4834  0.3470 -0.8924
  243MOL    H9748981   4.390   7.514   0.888  0.4212 -1.7108  0.8364
  243MOL    H9848982   4.357   7.416   1.137  0.5333  0.1487 -0.8962
  243MOL    H9948983   4.415   7.585   1.110 -0.7214  1.2703  0.3349
  243MOL   H10048984   4.130   7.520   1.161  0.1549 -0.4274  0.7892
  243MOL   H10148985   4.206   7.682   1.158 -0.7090 -0.3299 -0.3963
  243MOL   O10248986   4.245   7.573   1.326  0.5018 -0.1816  0.1428
  243MOL   C10348987   4.139   7.621   1.404  0.2153 -0.3274  0.5072
  243MOL   C10448988   4.144   7.541   1.540  0.9918 -0.4929 -0.2406
  243MOL   C10548989   4.022   7.554   1.644  0.4494 -0.0197  0.9062
  243MOL   H10648990   4.047   7.610   1.347  0.4608 -1.3588  0.2887
  243MOL   H10748991   4.163   7.724   1.428  1.2208 -0.2072 -1.0096
  243MOL   H10848992   4.128   7.437   1.511  0.8441 -0.7992  0.9259
  243MOL   H10948993   4.237   7.558   1.593 -0.4038  0.8057  1.8651
  243MOL   H11048994   4.046   7.488   1.728  0.3044 -1.1754  0.0626
  243MOL   H11148995   3.925   7.526   1.601  0.3964  1.3508  0.1294
  243MOL   O11248996   4.003   7.677   1.700  0.4714 -0.1028  0.3018
  243MOL   C11348997   3.909   7.702   1.800  0.1238  0.2580 -0.0560
  243MOL   C11448998   3.856   0.060   1.813  0.0335 -0.1316 -1.0120
  243MOL   C11548999   3.734   0.063   1.906 -0.6040 -0.0221  0.4752
  243MOL   H11649000   3.950   7.667   1.894  0.6859  0.4556 -0.2261
  243MOL   H11749001   3.822   7.636   1.797 -0.3508  0.7988  1.4875
  243MOL   H11849002   3.934   0.130   1.842 -0.6587  0.6742 -1.0825
  243MOL   H11949003   3.826   0.101   1.716 -1.3109 -1.8257 -1.3434
  243MOL   H12049004   3.743   0.034   2.011 -1.9589 -0.2174  0.5553
  243MOL   H12149005   3.667   7.774   1.867  1.7522 -1.8534 -0.0543
  243MOL   O12249006   3.670   0.192   1.902  0.2320 -0.2578  0.0720
  243MOL   C12349007   3.545   0.198   1.969 -0.4515 -0.4625  0.1181
  243MOL   C12449008   3.542   0.339   2.025 -0.0008  0.6758 -1.1247
  243MOL   C12549009   3.434   0.371   2.122  0.5007  0.1145 -0.7774
  243MOL   H12649010   3.523   0.120   2.042 -2.2797  0.2418  0.3470
  243MOL   H12749011   3.467   0.185   1.893 -1.6996  1.2700  1.0807
  243MOL   H12849012   3.631   0.335   2.088 -0.9352 -0.1790  0.1725
  243MOL   H12949013   3.555   0.425   1.959  0.6685 -0.0260 -1.9217
  243MOL   H13049014   3.458   0.460   2.181 -2.5093  0.7147 -0.3783
  243MOL   H13149015   3.408   0.289   2.188  1.7175 -1.4562 -2.2097
  243MOL   O13249016   3.315   0.396   2.043  0.6007  0.3384 -0.4481
  243MOL   C13349017   3.193   0.391   2.117 -0.0488 -0.0684  0.7977
  243MOL   C13449018   3.149   0.246   2.144  0.7343  0.5651 -0.3989
  243MOL   C13549019   3.014   0.220   2.206 -0.3746 -0.4371  0.1966
  243MOL   H13649020   3.113   0.443   2.064  2.1130 -0.3042 -2.8492
  243MOL   H13749021   3.214   0.451   2.205  0.4699  1.2703 -0.2222
  243MOL   H13849022   3.147   0.184   2.055  0.5115  0.0160 -0.0088
  243MOL   H13949023   3.228   0.200   2.203  2.3078  0.6887 -2.3357
  243MOL   H14049024   2.934   0.251   2.139 -0.5643 -1.3041  0.0199
  243MOL   H14149025   3.007   0.277   2.299  0.8343 -0.7174  0.4666
  243MOL   O14249026   2.996   0.083   2.226 -0.3666 -0.1590  0.5337
  243MOL   C14349027   2.865   0.067   2.283 -0.5428  0.2107 -0.4182
  243MOL   C14449028   2.813   7.719   2.252  0.0208  0.5017 -0.2187
  243MOL   C14549029   2.661   7.711   2.242 -0.3009 -0.2012 -0.6751
  243MOL   H14649030   2.801   0.147   2.247  0.7649  1.0385 -0.9568
  243MOL   H14749031   2.883   0.079   2.390 -2.0011 -1.2682  0.0258
  243MOL   H14849032   2.849   7.681   2.156  0.4367 -0.8395  0.4566
  243MOL   H14949033   2.862   7.651   2.322  0.8662  1.9312  0.6023
  243MOL   H15049034   2.630   7.610   2.217  0.9771 -1.0231  0.9428
  243MOL   H15149035   2.618   7.784   2.173 -2.4504 -1.9556 -1.2421
  243MOL   O15249036   2.613   7.741   2.373 -0.0673  0.3102 -0.4691
  243MOL   C15349037   2.473   7.763   2.377 -0.0093 -0.4498  0.2905
  243MOL   C15449038   2.422   0.040   2.501 -0.0017  0.0904 -0.4859
  243MOL   C15549039   2.278   0.091   2.484  0.7501  0.2964 -0.1823
  243MOL   H15649040   2.421   7.668   2.376  2.2785 -1.8128  2.9089
  243MOL   H15749041   2.452   0.029   2.285  1.2155  0.3188  0.4415
  243MOL   H15849042   2.443   7.759   2.582 -0.0156 -0.7091 -1.1662
  243MOL   H15949043   2.489   0.122   2.525  0.2948 -0.2102 -0.2915
  243MOL   H16049044   2.206   0.018   2.448 -0.5895  1.5927 -0.2136
  243MOL   H16149045   2.280   0.171   2.410  1.6022 -0.3051 -0.8178
  243MOL   O16249046   2.228   0.138   2.611 -0.3227  0.2725  0.3142
  243MOL   C16349047   2.091   0.178   2.609 -0.3018  0.4739 -0.2416
  243MOL   C16449048   2.049   0.221   2.747  0.9118 -0.0659  0.2487
  243MOL   C16549049   1.917   0.301   2.751 -0.1313  0.0276 -0.1569
  243MOL   H16649050   2.021   0.098   2.584 -0.6166  0.6709 -0.0010
  243MOL   H16749051   2.070   0.264   2.546 -2.0014  1.2569  1.3344
  243MOL   H16849052   2.029   0.134   2.810  0.4011 -0.7875 -0.8979
  243MOL   H16949053   2.123   0.287   2.793  0.4795  1.5532 -1.3066
  243MOL   H17049054   1.891   0.325   2.854  1.4509 -1.2113  0.5455
  243MOL   H17149055   1.831   0.254   2.702  0.9336 -1.2462 -0.8526
  243MOL   O17249056   1.939   0.431   2.697  0.3016 -0.0286 -0.3798
  243MOL   C17349057   1.829   0.513   2.723  1.0170 -0.8019  0.6858
  243MOL   C17449058   1.869   0.661   2.679 -0.4336 -0.1949 -0.0829
  243MOL   C17549059   1.755   0.757   2.668  0.2535 -0.1905  0.3293
  243MOL   H17649060   1.809   0.514   2.830  1.3669  1.9047  0.7725
  243MOL   H17749061   1.737   0.480   2.675  0.9324 -1.3507  1.2297
  243MOL   H17849062   1.940   0.692   2.755  1.5959  1.7291 -2.6628
  243MOL   H17949063   1.919   0.654   2.583 -0.7105 -1.4862 -0.1529
  243MOL   H18049064   1.670   0.699   2.631  1.1522 -0.9480 -0.5968
  243MOL   H18149065   1.776   0.826   2.586  2.5909  0.2167  1.2454
  243MOL   O18249066   1.732   0.808   2.799 -0.7736 -0.3352 -0.0899
  243MOL   C18349067   1.601   0.873   2.807  0.2863  0.4848  0.1134
  243MOL   C18449068   1.578   0.893   2.956 -0.4420 -0.1016 -0.4695
  243MOL   C18549069   1.576   0.766   3.035  0.3189 -0.0533  0.3492
  243MOL   H18649070   1.521   0.812   2.766  0.2725  1.5569 -1.4848
  243MOL   H18749071   1.590   0.972   2.763 -2.2388  1.1665  2.1198
  243MOL   H18849072   1.668   0.951   2.976  1.5731 -2.8192 -1.3215
  243MOL   H18949073   1.497   0.962   2.980  0.8707  1.2761  0.0588
  243MOL   H19049074   1.583   0.778   3.143  1.0934 -2.5163  0.5972
  243MOL   H19149075   1.672   0.716   3.023  0.1294 -0.0573 -1.3015
  243MOL   O19249076   1.468   0.678   3.011 -0.1987 -0.1723 -0.6414
  243MOL   C19349077   1.497   0.559   2.940 -0.0378 -0.0037 -0.1053
  243MOL   C19449078   1.589   0.453   3.021 -0.2327 -0.3630 -0.1244
  243MOL   C19549079   1.594   0.311   2.960  0.7382  0.6008  0.3446
  243MOL   H19649080   1.547   0.598   2.851  1.3495 -0.5074  0.4296
  243MOL   H19749081   1.404   0.513   2.907  0.0523  0.9356 -1.7356
  243MOL   H19849082   1.693   0.487   3.018  0.2544 -1.8328 -0.3695
  243MOL   H19949083   1.559   0.444   3.126 -0.0032  0.8478  0.0583
  243MOL   H20049084   1.573   0.310   2.853 -0.5894  2.8543  0.5552
  243MOL   H20149085   1.515   0.242   2.990 -0.1157  0.9768 -1.0037
  243MOL   H20249086   1.682   0.249   2.975 -1.1025 -2.1429  0.1148
  244MOL     O149087   0.924   2.190   6.916  0.5376  0.1527 -0.5978
  244MOL     C249088   0.945   2.051   6.959 -0.2550 -0.1702 -0.1292
  244MOL     C349089   1.088   2.048   7.019  0.4876  0.7057  0.4423
  244MOL     C449090   1.131   1.905   7.065  0.3232  1.0439  0.0970
  244MOL     H549091   0.943   1.987   6.870 -1.3131 -0.1836 -0.1036
  244MOL     H649092   0.869   2.023   7.031 -1.8593  0.7346 -1.4371
  244MOL     H749093   1.157   2.089   6.945  0.3225 -1.0638 -0.7363
  244MOL     H849094   1.091   2.124   7.097  0.1733  1.3152 -0.1406
  244MOL     H949095   1.096   1.829   6.996  1.5284  0.0353  0.5628
  244MOL    H1049096   1.097   1.891   7.168  2.5628 -0.4483  0.6919
  244MOL    H1149097   0.923   2.250   6.989  2.1797  1.6624 -1.8030
  244MOL    O1249098   1.269   1.892   7.072  0.1432  0.1191 -0.4984
  244MOL    C1349099   1.316   1.782   7.149  0.6537  0.6510  0.4769
  244MOL    C1449100   1.280   1.641   7.105  0.1365  0.9309 -0.5157
  244MOL    C1549101   1.360   1.540   7.174  0.0605  0.5149  0.7760
  244MOL    H1649102   1.295   1.792   7.256  0.6930  0.7726  0.4735
  244MOL    H1749103   1.425   1.786   7.149  0.6444  0.9181  0.7337
  244MOL    H1849104   1.174   1.622   7.122  0.1743 -1.9215 -2.9303
  244MOL    H1949105   1.301   1.638   6.998  0.8372 -1.9095 -0.3529
  244MOL    H2049106   1.340   1.547   7.281 -1.2415 -0.2271  0.5930
  244MOL    H2149107   1.463   1.568   7.155  1.0380  0.3582  5.2448
  244MOL    O2249108   1.323   1.407   7.123  0.1496 -0.0084  0.6504
  244MOL    C2349109   1.366   1.315   7.218 -0.1171  0.1989 -0.4610
  244MOL    C2449110   1.266   1.299   7.337 -0.6270 -0.7757  0.3110
  244MOL    C2549111   1.122   1.306   7.293  1.0708  0.6008  0.3290
  244MOL    H2649112   1.468   1.327   7.254  0.0273 -0.6263 -0.5794
  244MOL    H2749113   1.367   1.218   7.168 -0.7190  0.0811 -0.2397
  244MOL    H2849114   1.281   1.201   7.382  1.5714 -0.5321  0.1859
  244MOL    H2949115   1.287   1.374   7.413 -1.2936  1.2213 -1.4251
  244MOL    H3049116   1.104   1.224   7.223  1.0208  1.2794 -0.4594
  244MOL    H3149117   1.103   1.400   7.242 -3.2441 -0.9220 -1.0317
  244MOL    O3249118   1.033   1.298   7.405  0.0863 -0.2815 -0.2617
  244MOL    C3349119   0.902   1.331   7.377  0.1060 -1.2390  0.2671
  244MOL    C3449120   0.819   1.326   7.502 -0.6761 -0.3948  0.3000
  244MOL    C3549121   0.666   1.365   7.492 -0.4707  0.6402 -0.2368
  244MOL    H3649122   0.854   1.258   7.312 -2.0106 -0.4852  0.9208
  244MOL    H3749123   0.899   1.433   7.337 -0.1568 -1.5601 -0.5364
  244MOL    H3849124   0.825   1.225   7.543  2.6966 -0.1414  0.5839
  244MOL    H3949125   0.863   1.386   7.582 -0.1574  0.3005 -0.5040
  244MOL    H4049126   0.612   1.287   7.439 -1.7257  0.8649  0.6844
  244MOL    H4149127   0.665   1.459   7.438 -1.8249  0.4714 -0.5182
  244MOL    O4249128   0.611   1.379   7.619  0.1883  0.6263  0.3518
  244MOL    C4349129   0.465   1.407   7.623  0.0411  0.4588 -0.9385
  244MOL    C4449130   0.433   1.479   7.758 -0.0465 -0.2699 -0.7383
  244MOL    C4549131   0.466   1.389   0.086  0.4548  0.1437  0.5153
  244MOL    H4649132   0.404   1.317   7.616  0.5205  0.1161 -0.7614
  244MOL    H4749133   0.440   1.477   7.543 -2.4268 -0.2581 -0.8141
  244MOL    H4849134   0.485   1.575   7.756 -1.1505  0.3565  0.2760
  244MOL    H4949135   0.327   1.504   7.762 -0.3534 -1.7715  1.7904
  244MOL    H5049136   0.574   1.384   0.098  0.3826  1.2177  1.6311
  244MOL    H5149137   0.447   1.284   0.060 -2.6569  0.7601  0.1491
  244MOL    O5249138   0.405   1.427   0.208 -0.2858 -0.5076  0.5977
  244MOL    C5349139   0.445   1.348   0.316 -0.2914  0.5887 -0.9699
  244MOL    C5449140   0.365   1.362   0.449 -0.0779 -0.0030 -0.7819
  244MOL    C5549141   0.379   1.496   0.513 -0.6905 -0.0972 -0.4512
  244MOL    H5649142   0.550   1.371   0.335 -0.3212 -0.3285  0.4481
  244MOL    H5749143   0.441   1.246   0.277 -2.5377  0.6938 -1.0469
  244MOL    H5849144   0.259   1.341   0.435 -0.2727  0.1482  0.4325
  244MOL    H5949145   0.394   1.283   0.518  0.3273  0.9554  0.1734
  244MOL    H6049146   0.315   1.504   0.600 -0.5679 -2.4270 -0.1057
  244MOL    H6149147   0.353   1.577   0.445 -0.8037  0.8293  0.6772
  244MOL    O6249148   0.524   1.508   0.548 -0.2554  0.4335 -0.2175
  244MOL    C6349149   0.560   1.638   0.586 -0.0348 -0.2276  0.3481
  244MOL    C6449150   0.702   1.632   0.632 -0.3316  0.1727  0.5039
  244MOL    C6549151   0.734   1.512   0.716 -0.6340  0.1040 -0.2352
  244MOL    H6649152   0.496   1.664   0.670 -1.9181  0.2264 -1.1982
  244MOL    H6749153   0.555   1.700   0.497 -0.1415 -2.8733 -1.5643
  244MOL    H6849154   0.767   1.642   0.546 -1.9085  1.1813 -0.5954
  244MOL    H6949155   0.738   1.717   0.690 -1.5407  0.9325  0.1556
  244MOL    H7049156   0.842   1.497   0.718 -0.4121  1.7153  0.8772
  244MOL    H7149157   0.702   1.420   0.667  1.8830  0.7598 -3.3254
  244MOL    O7249158   0.691   1.527   0.855  0.1264  0.4767 -0.1881
  244MOL    C7349159   0.642   1.410   0.914  0.1445  0.7122 -0.2665
  244MOL    C7449160   0.757   1.336   0.989  0.3231  0.2637  0.4892
  244MOL    C7549161   0.706   1.237   1.093 -0.0132  0.1748 -1.2267
  244MOL    H7649162   0.597   1.336   0.848 -2.6439  0.9516  1.2760
  244MOL    H7749163   0.560   1.436   0.981 -0.1985  0.7704 -0.7088
  244MOL    H7849164   0.807   1.281   0.909 -1.9883 -0.9415 -0.1628
  244MOL    H7949165   0.821   1.413   1.033  0.4496 -0.5865  1.7859
  244MOL    H8049166   0.651   1.277   1.178  2.4835  0.0249  0.5230
  244MOL    H8149167   0.791   1.187   1.140 -0.9567  0.1184  0.4786
  244MOL    O8249168   0.628   1.141   1.028 -0.4402 -0.1834 -0.3647
  244MOL    C8349169   0.596   1.035   1.116  0.6599  0.0004 -0.0399
  244MOL    C8449170   0.519   0.933   1.035  0.0550 -0.0944  0.1135
  244MOL    C8549171   0.403   0.863   1.115 -0.0077  0.0802  0.4199
  244MOL    H8649172   0.523   1.073   1.187 -0.0830 -2.0280  0.3074
  244MOL    H8749173   0.678   0.988   1.171  0.6278  0.0208  0.0251
  244MOL    H8849174   0.471   0.993   0.957  0.2818 -0.2719 -0.1650
  244MOL    H8949175   0.575   0.848   0.996 -1.0757 -1.7079  1.9273
  244MOL    H9049176   0.339   0.938   1.162 -1.0785 -1.5009  1.5699
  244MOL    H9149177   0.454   0.811   1.195  1.6676  2.4087  0.9086
  244MOL    O9249178   0.323   0.774   1.039 -0.2156 -0.2875  0.2425
  244MOL    C9349179   0.205   0.730   1.102  0.3832  0.2111  0.2865
  244MOL    C9449180   0.124   0.650   0.999 -0.2610  0.2949  0.0838
  244MOL    C9549181   0.002   0.569   1.059 -0.3703 -0.6469  0.0530
  244MOL    H9649182   0.145   0.817   1.128  2.7128  1.4110  1.8247
  244MOL    H9749183   0.240   0.679   1.192 -0.9418  0.1075  0.7469
  244MOL    H9849184   0.098   0.715   0.916 -0.4668  0.6312  0.4125
  244MOL    H9949185   0.192   0.575   0.956 -0.1265  0.5354 -0.1223
  244MOL   H10049186   0.028   0.516   1.150 -0.2149 -3.1615 -1.3916
  244MOL   H10149187   7.753   0.497   0.986 -0.4559 -0.7472  0.1972
  244MOL   O10249188   7.695   0.672   1.098 -0.1283 -0.5752  0.2231
  244MOL   C10349189   7.586   0.609   1.166  0.1100  1.0551  0.1791
  244MOL   C10449190   7.465   0.702   1.164 -0.3029  0.1363 -0.0055
  244MOL   C10549191   7.481   0.824   1.249 -0.4165 -0.0330  0.1931
  244MOL   H10649192   7.627   0.595   1.266 -1.5885 -0.5655  0.6726
  244MOL   H10749193   7.553   0.509   1.138 -1.5420  1.8300 -0.6855
  244MOL   H10849194   7.433   0.731   1.064 -0.3348 -1.8176 -0.5863
  244MOL   H10949195   7.373   0.652   1.194  0.4716 -1.3141  0.0135
  244MOL   H11049196   7.570   0.882   1.224 -0.4235  0.3900  1.0954
  244MOL   H11149197   7.489   0.790   1.353 -1.3235 -0.0063  0.2787
  244MOL   O11249198   7.361   0.904   1.253  0.1828  0.0266  0.0081
  244MOL   C11349199   7.360   1.013   1.153 -0.6295  0.3894  0.6569
  244MOL   C11449200   7.427   1.137   1.217 -1.3873  0.0892  0.1479
  244MOL   C11549201   7.424   1.263   1.127 -0.2098  0.5686  0.0270
  244MOL   H11649202   7.255   1.032   1.133 -0.5852  3.3068  2.8661
  244MOL   H11749203   7.417   0.994   1.062  0.1870  3.4525  0.4523
  244MOL   H11849204   7.383   1.165   1.313  0.6166  1.4295  0.7189
  244MOL   H11949205   7.527   1.107   1.249  0.1104  0.2103 -4.0752
  244MOL   H12049206   7.324   1.285   1.089 -0.1486  0.4029 -0.2367
  244MOL   H12149207   7.477   1.240   1.035 -0.0122 -1.0002  0.5240
  244MOL   O12249208   7.485   1.368   1.199 -0.3019  0.2053  0.1205
  244MOL   C12349209   7.518   1.480   1.123  0.3527  1.2697 -0.4374
  244MOL   C12449210   7.639   1.544   1.188 -1.2866 -0.2246  0.0750
  244MOL   C12549211   7.687   1.659   1.101  0.0254  0.2652  0.3199
  244MOL   H12649212   7.430   1.544   1.112 -0.0382  0.8797  0.3163
  244MOL   H12749213   7.550   1.453   1.023  0.3261  0.9279 -0.3513
  244MOL   H12849214   7.596   1.578   1.282 -0.7174  0.0818  0.2232
  244MOL   H12949215   7.723   1.476   1.202  0.8774  2.2380 -0.5786
  244MOL   H13049216   7.618   1.739   1.075  1.8162  2.3621  1.9129
  244MOL   H13149217   7.726   1.638   1.001  0.5517 -1.0273  0.7863
  244MOL   O13249218   0.003   1.716   1.175 -1.2286  0.3058 -0.4438
  244MOL   C13349219   0.080   1.813   1.110 -0.0363  0.1179 -0.0788
  244MOL   C13449220   0.171   1.872   1.221  0.1143  0.6680  0.0733
  244MOL   C13549221   0.271   1.966   1.152  0.3125 -0.6061  0.0240
  244MOL   H13649222   0.024   1.895   1.064  0.7079  0.8748  0.3386
  244MOL   H13749223   0.133   1.761   1.030 -1.4231 -3.5519  1.2887
  244MOL   H13849224   0.113   1.914   1.302  1.0089  1.9494  0.0690
  244MOL   H13949225   0.229   1.792   1.268 -0.1010  1.1586  1.1805
  244MOL   H14049226   0.210   2.032   1.090  1.2581 -0.1110 -0.3938
  244MOL   H14149227   0.329   1.915   1.076  1.3183 -2.5884  2.0744
  244MOL   O14249228   0.346   2.043   1.245  0.1826  0.8257 -0.3245
  244MOL   C14349229   0.400   2.165   1.184 -0.4825  0.2288 -0.5655
  244MOL   C14449230   0.513   2.217   1.275  0.8342  0.0962  0.0169
  244MOL   C14549231   0.577   2.344   1.223  1.3638  0.0890  0.7629
  244MOL   H14649232   0.316   2.235   1.187  0.4549  1.3267  0.7995
  244MOL   H14749233   0.434   2.131   1.087 -0.8442 -0.8389 -0.3285
  244MOL   H14849234   0.468   2.245   1.370  0.1489 -3.2093  0.7594
  244MOL   H14949235   0.577   2.134   1.308  1.0099  0.3689  0.3653
  244MOL   H15049236   0.503   2.409   1.176 -1.7065 -2.4695  1.9034
  244MOL   H15149237   0.656   2.312   1.154 -1.0399 -2.3354 -0.9768
  244MOL   O15249238   0.638   2.411   1.329 -0.0290  0.4927 -0.2722
  244MOL   C15349239   0.708   2.536   1.309 -0.0718 -0.1707 -0.5244
  244MOL   C15449240   0.748   2.600   1.444 -0.1753 -0.2844 -0.1658
  244MOL   C15549241   0.827   2.726   1.436 -0.2417 -0.3312 -0.2162
  244MOL   H15649242   0.642   2.595   1.244 -0.5697 -1.0332 -0.8116
  244MOL   H15749243   0.802   2.518   1.258 -1.6465 -0.1630 -3.5495
  244MOL   H15849244   0.662   2.613   1.509 -0.0222 -2.5362  0.5536
  244MOL   H15949245   0.804   2.529   1.505 -0.7195  0.1080  0.8018
  244MOL   H16049246   0.901   2.715   1.357 -0.5351 -0.8240 -0.4278
  244MOL   H16149247   0.868   2.745   1.535  0.3083 -0.5029 -0.4129
  244MOL   O16249248   0.738   2.827   1.405  0.1008 -0.3620  0.5475
  244MOL   C16349249   0.792   2.955   1.369 -0.4960  0.0424 -0.6840
  244MOL   C16449250   0.667   3.053   1.346  0.1649  0.4268  0.4699
  244MOL   C16549251   0.584   3.007   1.228  0.4845  0.6475  0.3695
  244MOL   H16649252   0.852   2.949   1.279  1.4254 -1.6031  0.6408
  244MOL   H16749253   0.855   2.981   1.455 -1.6885 -1.7298  0.7798
  244MOL   H16849254   0.608   3.055   1.437 -0.8353  1.6426 -0.1825
  244MOL   H16949255   0.694   3.159   1.339  0.2099  0.4311  0.7256
  244MOL   H17049256   0.648   2.992   1.141 -0.2588 -0.5961  0.0353
  244MOL   H17149257   0.514   3.084   1.197 -0.9805 -1.8659 -2.8252
  244MOL   O17249258   0.495   2.896   1.255 -0.1840 -0.1890  0.1601
  244MOL   C17349259   0.439   2.849   1.128 -0.0773  0.1569  0.1033
  244MOL   C17449260   0.361   2.721   1.154  0.6237 -0.3769  0.0315
  244MOL   C17549261   0.340   2.642   1.024 -0.5941  0.7243  0.0613
  244MOL   H17649262   0.526   2.821   1.069  0.1334  1.1212 -0.0468
  244MOL   H17749263   0.375   2.920   1.075  0.2941  0.5212  0.1412
  244MOL   H17849264   0.420   2.656   1.218  0.0366  0.4002  1.3838
  244MOL   H17949265   0.262   2.743   1.195  0.5822  0.1181 -0.3212
  244MOL   H18049266   0.438   2.611   0.988 -0.9872 -3.4557  2.2570
  244MOL   H18149267   0.290   2.704   0.949 -0.8892  0.2699 -0.1228
  244MOL   O18249268   0.264   2.522   1.047  0.2126 -0.3726  0.1528
  244MOL   C18349269   0.256   2.436   0.936 -0.9481 -0.6791 -0.2880
  244MOL   C18449270   0.130   2.351   0.962 -0.1206  0.2198 -0.2104
  244MOL   C18549271   0.093   2.265   0.840  0.0164  0.0321 -0.2040
  244MOL   H18649272   0.347   2.377   0.924  1.3616  2.4822  0.8375
  244MOL   H18749273   0.249   2.501   0.849 -0.4479 -0.4358 -0.1542
  244MOL   H18849274   0.161   2.292   1.048  1.0338  1.6415  0.3629
  244MOL   H18949275   0.046   2.416   0.987 -1.3791 -0.8057 -1.7324
  244MOL   H19049276   0.079   2.318   0.745  0.8244 -1.0263 -0.9279
  244MOL   H19149277   7.784   2.220   0.862  0.4355 -1.2613 -0.9459
  244MOL   O19249278   0.180   2.157   0.825 -0.0489 -0.2170 -0.0946
  244MOL   C19349279   0.147   2.038   0.753 -0.6340 -0.5004  0.2258
  244MOL   C19449280   0.280   1.981   0.713 -0.3371  0.0526 -0.7553
  244MOL   C19549281   0.263   1.844   0.646 -0.0198 -0.1167 -1.0592
  244MOL   H19649282   0.095   2.052   0.658  1.6676  1.0565 -0.8668
  244MOL   H19749283   0.093   1.966   0.815 -0.4376 -1.0753 -0.2622
  244MOL   H19849284   0.325   2.059   0.652 -1.0755  0.8027 -0.3438
  244MOL   H19949285   0.350   1.979   0.797 -2.0442 -2.4843  0.6546
  244MOL   H20049286   0.236   1.761   0.712 -0.9068  0.6031 -0.5107
  244MOL   H20149287   0.364   1.813   0.620 -0.0007 -0.1868 -0.9034
  244MOL   H20249288   0.196   1.840   0.560  0.2487 -0.9503 -1.2305
  245MOL     O149289   5.849   6.952   4.847 -0.1632 -0.2031 -0.1140
  245MOL     C249290   5.775   6.919   4.730 -0.3163  0.1376 -0.1283
  245MOL     C349291   5.857   6.826   4.638  0.2789 -0.6633 -0.3566
  245MOL     C449292   5.792   6.785   4.506  0.4417 -0.7126  0.0823
  245MOL     H549293   5.747   7.006   4.672  0.1840 -0.3952 -1.1796
  245MOL     H649294   5.683   6.892   4.782  0.7993 -1.4774  1.0691
  245MOL     H749295   5.954   6.870   4.614 -1.0284  1.1583 -2.4924
  245MOL     H849296   5.867   6.735   4.698 -0.2077  0.2479  1.1464
  245MOL     H949297   5.754   6.863   4.440  0.9977  1.0195  1.7578
  245MOL    H1049298   5.697   6.741   4.537 -0.6361  0.4724 -1.4562
  245MOL    H1149299   5.803   7.018   4.896  0.0196  1.3307 -1.9246
  245MOL    O1249300   5.872   6.708   4.420 -0.1068  0.2178  0.0867
  245MOL    C1349301   5.947   6.792   4.325  0.4360  0.3426 -0.3492
  245MOL    C1449302   6.036   6.708   4.233  0.0565 -0.7982 -0.6672
  245MOL    C1549303   6.106   6.799   4.128 -0.5598  0.3590  0.5320
  245MOL    H1649304   6.003   6.868   4.380 -0.0090 -1.4430  2.6621
  245MOL    H1749305   5.872   6.845   4.267  2.6620  2.2786 -1.5540
  245MOL    H1849306   6.112   6.650   4.284 -0.1367  0.9005  1.6241
  245MOL    H1949307   5.981   6.626   4.186  0.8242 -1.6474 -0.0913
  245MOL    H2049308   6.159   6.875   4.185  0.6059 -0.1201  0.1064
  245MOL    H2149309   6.030   6.841   4.061 -0.5372  0.1440  0.3698
  245MOL    O2249310   6.198   6.711   4.061  0.2591  0.4755  0.1557
  245MOL    C2349311   6.290   6.774   3.973 -0.0068 -0.0631 -0.7116
  245MOL    C2449312   6.353   6.687   3.869 -0.3401  0.2115 -0.1472
  245MOL    C2549313   6.422   6.570   3.943  0.2230  0.6054 -0.4374
  245MOL    H2649314   6.371   6.821   4.029 -0.6700 -0.4378  0.5853
  245MOL    H2749315   6.242   6.861   3.927 -1.9721  0.7818  2.7784
  245MOL    H2849316   6.276   6.643   3.806 -0.5689 -1.0910  0.9877
  245MOL    H2949317   6.413   6.750   3.804  0.6148 -1.6222 -1.0793
  245MOL    H3049318   6.464   6.503   3.868  1.1658  0.9778 -0.2583
  245MOL    H3149319   6.346   6.518   4.000  1.8135 -0.9335  0.3480
  245MOL    O3249320   6.534   6.635   4.005 -0.1749 -0.0007 -0.1435
  245MOL    C3349321   6.614   6.547   4.088  0.2223 -0.4704 -0.3271
  245MOL    C3449322   6.719   6.625   4.165 -0.4504  0.1812  1.0347
  245MOL    C3549323   6.646   6.701   4.278 -0.6655  0.0178  0.4896
  245MOL    H3649324   6.657   6.468   4.028  2.3716  1.5351 -1.5074
  245MOL    H3749325   6.539   6.505   4.156  2.8318 -1.9079  1.7315
  245MOL    H3849326   6.785   6.550   4.208  1.2340  1.5602  0.9166
  245MOL    H3949327   6.783   6.685   4.100  1.4546 -1.6191  1.2090
  245MOL    H4049328   6.584   6.645   4.348 -1.8931 -0.7981 -1.2132
  245MOL    H4149329   6.575   6.776   4.240  0.4188  0.2002 -1.2252
  245MOL    O4249330   6.749   6.761   4.354 -0.0438 -0.1019 -0.6524
  245MOL    C4349331   6.685   6.861   4.434 -0.1507 -0.0522  0.4243
  245MOL    C4449332   6.784   6.918   4.528  0.0895 -0.4180 -0.7471
  245MOL    C4549333   6.883   7.022   4.458 -0.0624 -0.0273  0.3210
  245MOL    H4649334   6.607   6.822   4.499 -1.9497  1.0687 -1.0182
  245MOL    H4749335   6.649   6.945   4.375  0.5204  0.2530  0.4449
  245MOL    H4849336   6.728   6.978   4.600 -0.8519 -0.5209 -1.3790
  245MOL    H4949337   6.844   6.841   4.576 -1.0745 -1.3087 -0.7049
  245MOL    H5049338   6.827   7.115   4.443  0.8375  0.7869  1.8689
  245MOL    H5149339   6.921   6.990   4.361 -0.4473  0.3077  0.0574
  245MOL    O5249340   6.986   7.044   4.556  0.3854  0.2535 -0.5377
  245MOL    C5349341   7.103   7.123   4.517  0.7843  0.4612 -0.4816
  245MOL    C5449342   7.211   7.120   4.630  0.3067  0.3048 -0.2988
  245MOL    C5549343   7.340   7.199   4.599 -0.1104  0.2326  1.0578
  245MOL    H5649344   7.075   7.222   4.481 -2.4482 -0.2818 -0.1303
  245MOL    H5749345   7.149   7.069   4.434  2.0495  0.9298 -0.1090
  245MOL    H5849346   7.166   7.154   4.723 -0.2485  2.6657 -1.4218
  245MOL    H5949347   7.257   7.024   4.657  0.1859  0.1272 -0.7267
  245MOL    H6049348   7.326   7.307   4.586 -0.2584  0.0701 -0.1978
  245MOL    H6149349   7.385   7.166   4.506 -1.0965 -1.6978  1.2340
  245MOL    O6249350   7.428   7.174   4.705 -0.1391  0.1259 -0.0202
  245MOL    C6349351   7.562   7.211   4.668  0.0417 -0.0187  0.8840
  245MOL    C6449352   7.645   7.231   4.799 -0.0088  0.1892  0.0452
  245MOL    C6549353   7.788   7.264   4.771  0.3479  0.1697  0.3388
  245MOL    H6649354   7.559   7.303   4.609  1.3228 -0.2540  0.4281
  245MOL    H6749355   7.610   7.129   4.615  0.5802  0.8974 -0.0892
  245MOL    H6849356   7.603   7.301   4.871  0.8499 -0.0723  0.8080
  245MOL    H6949357   7.639   7.137   4.855  3.4571 -0.3779 -0.4616
  245MOL    H7049358   0.037   7.205   4.687 -0.6626  1.1317 -0.7890
  245MOL    H7149359   0.058   7.243   4.861 -1.7722  0.2069  1.7533
  245MOL    O7249360   0.006   7.409   4.746 -0.1419  0.0956 -0.1756
  245MOL    C7349361   0.139   7.440   4.694 -0.0463 -0.2249 -0.0585
  245MOL    C7449362   0.158   7.594   4.692  0.7710  0.2625 -0.2183
  245MOL    C7549363   0.126   7.672   4.560 -0.5945  0.5139  0.0965
  245MOL    H7649364   0.161   7.398   4.595  1.7743  1.1940 -0.2812
  245MOL    H7749365   0.212   7.386   4.754  0.8593  0.0742 -0.8821
  245MOL    H7849366   0.112   7.636   4.781  1.3986  1.2180 -0.3358
  245MOL    H7949367   0.264   7.614   4.710  0.8076  0.0818 -0.2300
  245MOL    H8049368   0.017   7.679   4.560 -0.6919 -0.8873  0.6081
  245MOL    H8149369   0.148   7.617   4.469 -0.7941  2.2731 -1.0523
  245MOL    O8249370   0.197   0.008   4.552  0.9496 -0.1499 -0.3443
  245MOL    C8349371   0.116   0.117   4.605 -0.3363 -0.0651  0.0471
  245MOL    C8449372   0.194   0.249   4.629 -0.5574 -0.1797 -0.2617
  245MOL    C8549373   0.110   0.363   4.691  0.1733 -0.5603 -0.3699
  245MOL    H8649374   0.089   0.092   4.707 -0.2799 -0.9100 -0.1458
  245MOL    H8749375   0.020   0.124   4.554  1.0423  1.3627 -2.4562
  245MOL    H8849376   0.289   0.228   4.678  0.6767  1.8908 -1.6546
  245MOL    H8949377   0.227   0.280   4.529  0.3496 -0.1541  0.0372
  245MOL    H9049378   0.099   0.350   4.799 -1.8907 -2.6300 -0.7683
  245MOL    H9149379   0.012   0.363   4.642 -0.7565 -2.1853  1.3806
  245MOL    O9249380   0.170   0.492   4.684 -0.3578 -0.2476 -0.2395
  245MOL    C9349381   0.078   0.586   4.743  0.4520 -0.5946 -0.1406
  245MOL    C9449382   0.151   0.722   4.743 -0.6867 -0.6686 -0.6550
  245MOL    C9549383   0.058   0.834   4.799 -1.0385 -0.2181 -0.3304
  245MOL    H9649384   0.059   0.559   4.847  0.5608  0.8497  0.2641
  245MOL    H9749385   7.773   0.593   4.687  0.0322  0.1112  0.6335
  245MOL    H9849386   0.229   0.730   4.820 -0.1880 -0.1338 -1.2148
  245MOL    H9949387   0.183   0.750   4.643 -1.8514  2.3336 -0.2283
  245MOL   H10049388   0.121   0.922   4.804  1.7901 -2.1255 -0.7059
  245MOL   H10149389   0.029   0.825   4.903  0.4845 -1.4854  0.0029
  245MOL   O10249390   7.743   0.854   4.704  0.0631 -0.1227 -0.4972
  245MOL   C10349391   7.682   0.978   4.713 -0.0539 -0.4671  0.2227
  245MOL   C10449392   7.590   0.992   4.592  0.3018  0.4435  0.0836
  245MOL   C10549393   7.520   1.128   4.590 -0.0665  0.1395  0.1301
  245MOL   H10649394   7.756   1.056   4.725 -0.7924  0.4919 -1.2860
  245MOL   H10749395   7.626   0.975   4.806  2.0280  0.7431  1.5393
  245MOL   H10849396   7.651   0.970   4.504 -0.3702 -3.2756  0.4745
  245MOL   H10949397   7.515   0.914   4.599  1.1718 -0.4897 -0.8316
  245MOL   H11049398   7.591   1.211   4.581  0.9590 -0.9613 -2.2486
  245MOL   H11149399   7.452   1.133   4.676  0.0322  0.9921  0.1629
  245MOL   O11249400   7.445   1.135   4.478  0.2911  0.7308  0.5965
  245MOL   C11349401   7.354   1.242   4.484  0.6213  0.0688 -0.3363
  245MOL   C11449402   7.295   1.265   4.342 -0.3467 -0.2627 -0.4546
  245MOL   C11549403   7.189   1.370   4.335  0.5758  0.4000 -0.4918
  245MOL   H11649404   7.403   1.334   4.516 -2.2189  2.5787 -2.8778
  245MOL   H11749405   7.277   1.231   4.560  1.5027  0.1392  0.5763
  245MOL   H11849406   7.373   1.286   4.269  0.1798  1.1381  0.4811
  245MOL   H11949407   7.252   1.168   4.318 -0.1090 -0.7432  1.0439
  245MOL   H12049408   7.182   1.414   4.235  2.1549  0.9684 -0.3610
  245MOL   H12149409   7.226   1.459   4.387 -2.4215  1.2864  0.2809
  245MOL   O12249410   7.070   1.321   4.398 -0.4331 -0.1465 -0.0206
  245MOL   C12349411   6.959   1.410   4.373  0.3190  0.5899 -0.0478
  245MOL   C12449412   6.831   1.338   4.414  1.1208  0.0272 -0.3543
  245MOL   C12549413   6.699   1.411   4.371 -0.3563  0.0114  0.4859
  245MOL   H12649414   6.948   1.443   4.269 -0.9862  1.4495  0.3612
  245MOL   H12749415   6.957   1.500   4.434 -3.0872 -0.1712  1.0697
  245MOL   H12849416   6.834   1.242   4.363 -1.0204  0.9198 -2.2447
  245MOL   H12949417   6.827   1.318   4.521  1.2893  0.2005 -0.3165
  245MOL   H13049418   6.616   1.340   4.379 -1.8874  1.6124 -0.8275
  245MOL   H13149419   6.703   1.438   4.266 -2.0523  0.8201  0.6021
  245MOL   O13249420   6.689   1.528   4.448 -0.0461  0.1136  0.1330
  245MOL   C13349421   6.556   1.581   4.458  0.5097 -0.0045  0.2833
  245MOL   C13449422   6.557   1.705   4.545  0.0236  0.6075 -0.7655
  245MOL   C13549423   6.609   1.686   4.678 -0.0429 -0.5692 -0.1380
  245MOL   H13649424   6.498   1.501   4.504  0.0968 -0.7721 -1.5188
  245MOL   H13749425   6.520   1.603   4.357  1.0012 -1.9469 -0.3327
  245MOL   H13849426   6.619   1.779   4.495  1.2614 -0.4766 -0.8744
  245MOL   H13949427   6.451   1.730   4.540  0.1334  0.9053 -1.8425
  245MOL   H14049428   6.717   1.700   4.691 -0.2850  0.8586  0.4425
  245MOL   H14149429   6.595   1.584   4.713  1.3367 -0.6607  0.1829
  245MOL   O14249430   6.538   1.777   4.765  0.2646  0.6681  0.1292
  245MOL   C14349431   6.543   1.743   4.904 -0.5136 -0.0847 -0.0483
  245MOL   C14449432   6.454   1.839   4.988  0.1465  0.4580 -0.5739
  245MOL   C14549433   6.447   1.821   5.138  0.2763 -1.0059  0.1269
  245MOL   H14649434   6.647   1.736   4.934 -0.3664 -0.7114 -0.7076
  245MOL   H14749435   6.508   1.640   4.901 -0.7619  0.0397 -2.0076
  245MOL   H14849436   6.466   1.943   4.957  5.1342  0.1057 -0.1025
  245MOL   H14949437   6.348   1.820   4.969 -0.7028  1.7910  2.5431
  245MOL   H15049438   6.550   1.821   5.173  1.0099  0.3729 -1.9619
  245MOL   H15149439   6.405   1.728   5.176  0.5753  0.0254  3.0735
  245MOL   O15249440   6.394   1.937   5.190  0.0606  0.3762 -0.3668
  245MOL   C15349441   6.373   1.920   5.326  0.3970  0.7682 -0.2502
  245MOL   C15449442   6.362   2.064   5.380  0.1621 -0.5650 -0.0423
  245MOL   C15549443   6.394   2.080   5.529  0.3997  0.4881 -0.0747
  245MOL   H15649444   6.449   1.869   5.385  1.7357 -0.4394 -2.9840
  245MOL   H15749445   6.277   1.873   5.349  0.3139  1.5681  1.1379
  245MOL   H15849446   6.431   2.131   5.329 -2.9580  2.3774 -0.6279
  245MOL   H15949447   6.265   2.103   5.349  1.3913  1.9170 -0.8643
  245MOL   H16049448   6.485   2.032   5.565  0.0496  1.0217  1.5788
  245MOL   H16149449   6.315   2.033   5.587 -0.6868  1.3924 -0.8096
  245MOL   O16249450   6.402   2.222   5.553  0.0959  0.1200  0.1102
  245MOL   C16349451   6.431   2.253   5.691  0.2798 -0.6429 -0.5020
  245MOL   C16449452   6.406   2.402   5.710 -0.0695  0.3311  0.2518
  245MOL   C16549453   6.432   2.444   5.853 -0.4109 -0.0275 -0.0123
  245MOL   H16649454   6.528   2.211   5.719 -0.5377 -0.9809  1.9289
  245MOL   H16749455   6.378   2.194   5.766  1.4393 -0.8873  0.1378
  245MOL   H16849456   6.471   2.462   5.646 -1.9315 -0.8354 -2.8220
  245MOL   H16949457   6.304   2.432   5.686 -0.7251  0.1732  2.6633
  245MOL   H17049458   6.444   2.553   5.855  0.9718 -0.1693 -0.4400
  245MOL   H17149459   6.535   2.411   5.864  0.2626  1.9056 -0.3614
  245MOL   O17249460   6.332   2.388   5.935  0.0227 -0.1122  0.3903
  245MOL   C17349461   6.335   2.435   6.068 -0.6601 -0.0307 -0.0855
  245MOL   C17449462   6.221   2.364   6.140  0.2626  0.4194 -0.4887
  245MOL   C17549463   6.214   2.397   6.287 -0.0020  0.4745  0.7058
  245MOL   H17649464   6.324   2.543   6.076 -1.6323 -0.1038 -0.3208
  245MOL   H17749465   6.429   2.394   6.104 -0.6799 -0.0395 -0.0458
  245MOL   H17849466   6.127   2.385   6.089  0.3859 -1.7797 -1.7114
  245MOL   H17949467   6.233   2.256   6.129 -0.6473  0.4800 -2.2094
  245MOL   H18049468   6.198   2.504   6.300  1.1561  0.5145  1.8757
  245MOL   H18149469   6.302   2.364   6.341  2.4144  1.9434 -2.1786
  245MOL   O18249470   6.107   2.319   6.337 -0.2703  0.1389 -0.2697
  245MOL   C18349471   6.074   2.342   6.471  0.7513  0.5905 -0.1013
  245MOL   C18449472   6.017   2.208   6.526 -0.1286 -0.1485 -0.1580
  245MOL   C18549473   6.022   2.190   6.682 -0.0177  0.5499  0.2443
  245MOL   H18649474   5.991   2.412   6.480  0.5764  0.3711 -0.0236
  245MOL   H18749475   6.156   2.390   6.524 -0.8745  5.6241 -1.7712
  245MOL   H18849476   5.922   2.189   6.476  0.3316  0.6774 -1.3646
  245MOL   H18949477   6.084   2.130   6.491  1.2874  0.4145  1.2338
  245MOL   H19049478   5.927   2.225   6.723  0.8053  0.6118  2.1394
  245MOL   H19149479   6.106   2.250   6.716  0.0331  0.0666  0.9738
  245MOL   O19249480   6.038   2.048   6.724 -0.2248 -0.0019 -0.4600
  245MOL   C19349481   6.067   2.025   6.865 -0.3369  0.0116  0.5858
  245MOL   C19449482   6.095   1.873   6.882 -0.1862 -0.3546  0.8478
  245MOL   C19549483   6.198   1.820   6.784  0.2780 -0.4152 -0.3544
  245MOL   H19649484   5.986   2.063   6.928  0.2710 -0.3602  1.6087
  245MOL   H19749485   6.158   2.080   6.889 -0.8496  0.5926  1.2112
  245MOL   H19849486   6.120   1.846   6.985  1.8678 -1.8183 -0.0042
  245MOL   H19949487   6.004   1.817   6.862  1.4988 -2.8903  0.0363
  245MOL   H20049488   6.209   1.712   6.789  0.8694 -0.3767 -0.7587
  245MOL   H20149489   6.291   1.869   6.813  1.7193 -2.2987 -1.7001
  245MOL   H20249490   6.185   1.846   6.678  1.3445  1.0796 -0.1363
  246MOL     O149491   2.829   0.926   3.247  0.0703  0.1071  0.3301
  246MOL     C249492   2.733   1.032   3.247 -0.2927 -0.4575  0.4036
  246MOL     C349493   2.791   1.154   3.317 -0.8094 -0.2660 -0.0255
  246MOL     C449494   2.694   1.276   3.321 -0.1174 -0.2259  0.2989
  246MOL     H549495   2.646   0.995   3.302  0.4960 -4.6416 -1.0226
  246MOL     H649496   2.703   1.069   3.149 -0.7839  2.0697  1.4752
  246MOL     H749497   2.837   1.133   3.413 -1.5593 -2.3068 -0.0815
  246MOL     H849498   2.876   1.193   3.262 -0.0668  1.3444  2.2211
  246MOL     H949499   2.594   1.242   3.346 -0.6854 -0.3371 -1.9857
  246MOL    H1049500   2.689   1.323   3.222  0.3887 -0.0004  0.3778
  246MOL    H1149501   2.793   0.850   3.202 -2.9161  1.3362  0.5082
  246MOL    O1249502   2.740   1.365   3.426 -0.3395  0.6842  0.2506
  246MOL    C1349503   2.643   1.463   3.452 -0.5549  0.0535  0.1480
  246MOL    C1449504   2.704   1.570   3.540  0.4103  0.1100  0.9849
  246MOL    C1549505   2.615   1.698   3.534  0.1473  0.2560  0.0075
  246MOL    H1649506   2.555   1.426   3.504 -0.6702 -0.2375 -0.2564
  246MOL    H1749507   2.604   1.520   3.368 -1.8546 -0.8861  0.1098
  246MOL    H1849508   2.719   1.526   3.639  0.9793 -1.0330  0.3951
  246MOL    H1949509   2.796   1.603   3.491 -0.6271  1.1830 -0.2594
  246MOL    H2049510   2.513   1.681   3.570  1.4787 -2.8449  2.6108
  246MOL    H2149511   2.601   1.729   3.431  2.7405 -0.5105 -0.6250
  246MOL    O2249512   2.680   1.804   3.599  0.6048  0.3787 -0.1262
  246MOL    C2349513   2.610   1.921   3.581  0.2002 -0.4354 -0.2421
  246MOL    C2449514   2.693   2.033   3.628  0.3737 -0.1578  0.0469
  246MOL    C2549515   2.657   2.071   3.775 -0.6519 -0.6170 -0.2947
  246MOL    H2649516   2.514   1.919   3.632 -2.4490 -0.0144 -4.8843
  246MOL    H2749517   2.598   1.939   3.474 -0.9694  1.3473  0.1632
  246MOL    H2849518   2.799   2.006   3.626 -0.2154 -2.7071  1.0382
  246MOL    H2949519   2.685   2.121   3.565  1.2785  0.6335  1.0339
  246MOL    H3049520   2.635   1.989   3.843  1.7374 -1.5374 -0.5569
  246MOL    H3149521   2.576   2.143   3.767  0.7441  1.2088  1.3454
  246MOL    O3249522   2.759   2.153   3.837  0.0108 -0.7291  0.3601
  246MOL    C3349523   2.713   2.211   3.957  0.0903  0.5086 -0.1027
  246MOL    C3449524   2.821   2.279   4.036 -0.5255  0.3627  0.0362
  246MOL    C3549525   2.789   2.323   4.179  0.3423 -0.0979  0.3440
  246MOL    H3649526   2.677   2.124   4.013  2.4820 -0.1663  0.4197
  246MOL    H3749527   2.629   2.280   3.946 -1.5477 -1.4956 -0.4539
  246MOL    H3849528   2.913   2.221   4.042  0.0317  1.2806  0.5112
  246MOL    H3949529   2.855   2.372   3.990 -1.9755  1.2714  0.7828
  246MOL    H4049530   2.755   2.238   4.239 -1.8494  0.0831 -0.5971
  246MOL    H4149531   2.702   2.388   4.177 -0.2262 -0.7513  2.1948
  246MOL    O4249532   2.903   2.372   4.244 -0.4022 -0.6460  0.2081
  246MOL    C4349533   2.866   2.471   4.339  0.0321 -0.5307  0.6230
  246MOL    C4449534   2.998   2.531   4.405  0.1169 -0.0325  0.7296
  246MOL    C4549535   2.988   2.672   4.462  0.3037  0.5792  0.2328
  246MOL    H4649536   2.794   2.433   4.412  0.3347 -2.1210  0.1066
  246MOL    H4749537   2.831   2.565   4.297  2.5389 -0.0793 -0.5220
  246MOL    H4849538   3.038   2.454   4.471  0.5056 -0.9642 -0.5686
  246MOL    H4949539   3.075   2.534   4.328  2.7564 -2.0447  3.1495
  246MOL    H5049540   2.942   2.669   4.561 -1.9281 -0.8538 -0.8094
  246MOL    H5149541   2.919   2.727   4.398  1.8509 -0.0871 -2.0171
  246MOL    O5249542   3.108   2.737   4.473 -0.4608 -0.0494 -0.0747
  246MOL    C5349543   3.101   2.869   4.528  0.2189  0.0060  0.2364
  246MOL    C5449544   3.240   2.904   4.583 -0.2087 -0.0744  0.1968
  246MOL    C5549545   3.262   3.033   4.659 -0.1772  0.6438 -1.1786
  246MOL    H5649546   3.022   2.883   4.602 -0.5548  1.2261 -0.8027
  246MOL    H5749547   3.072   2.944   4.454  0.7165 -1.6891 -1.6896
  246MOL    H5849548   3.278   2.814   4.630  0.4045 -0.8284 -1.7180
  246MOL    H5949549   3.301   2.908   4.492  0.8224 -1.2923  0.8219
  246MOL    H6049550   3.221   3.004   4.756 -2.6558 -1.0295 -2.6789
  246MOL    H6149551   3.198   3.112   4.618 -0.8720  0.6090 -0.1924
  246MOL    O6249552   3.397   3.068   4.655 -0.1269 -0.1049 -0.6621
  246MOL    C6349553   3.419   3.208   4.681 -0.3379 -0.0730  0.2607
  246MOL    C6449554   3.567   3.233   4.660 -0.3726  0.2333  0.3355
  246MOL    C6549555   3.590   3.385   4.652 -0.3953  0.2369  0.3345
  246MOL    H6649556   3.389   3.239   4.781  0.4403  0.3001  0.3878
  246MOL    H6749557   3.357   3.266   4.613 -0.9523 -0.8445  0.1569
  246MOL    H6849558   3.633   3.190   4.735  0.1243  1.7996  0.7966
  246MOL    H6949559   3.595   3.187   4.565  0.3712  2.9963 -0.8269
  246MOL    H7049560   3.562   3.437   4.744  0.4052 -0.2305  0.8497
  246MOL    H7149561   3.532   3.435   4.575 -2.1985  0.0132  1.4898
  246MOL    O7249562   3.725   3.399   4.620  0.0285  0.3506 -0.0041
  246MOL    C7349563   3.808   3.416   4.733 -0.6016 -0.4756  0.5597
  246MOL    C7449564   3.940   3.471   4.691  0.7522  0.4520 -0.3477
  246MOL    C7549565   4.023   3.510   4.809  0.0305  0.1618  0.1586
  246MOL    H7649566   3.832   3.320   4.780  1.0223 -0.8942 -1.0727
  246MOL    H7749567   3.767   3.487   4.805 -1.8910  0.3942 -1.0022
  246MOL    H7849568   3.983   3.398   4.623  1.3846  0.1734  0.3349
  246MOL    H7949569   3.923   3.554   4.622 -0.8357  0.0191 -0.4872
  246MOL    H8049570   4.026   3.419   4.870 -1.3959 -0.8749 -1.2476
  246MOL    H8149571   3.976   3.581   4.876 -0.4590 -0.2772  0.2896
  246MOL    O8249572   4.155   3.544   4.768 -0.5302  0.3758  0.2453
  246MOL    C8349573   4.244   3.548   4.870 -0.4327 -0.6166  0.1558
  246MOL    C8449574   4.384   3.593   4.818  0.1840  1.1671  1.0930
  246MOL    C8549575   4.394   3.741   4.793 -0.0895  0.1158  0.2219
  246MOL    H8649576   4.260   3.456   4.926  1.1990 -0.4016  0.0860
  246MOL    H8749577   4.201   3.620   4.939  0.4457  1.4448 -1.3657
  246MOL    H8849578   4.458   3.558   4.891  0.7015 -2.3005 -0.9907
  246MOL    H8949579   4.411   3.530   4.733 -0.2640 -0.6951  2.3030
  246MOL    H9049580   4.303   3.769   4.739 -1.0896  0.3204  1.9670
  246MOL    H9149581   4.482   3.755   4.730  1.1232 -0.1232  1.8167
  246MOL    O9249582   4.410   3.815   4.908 -0.0134 -0.0376  0.8239
  246MOL    C9349583   4.373   3.953   4.888 -0.7410 -0.1531  0.1077
  246MOL    C9449584   4.425   4.044   5.011  0.3556 -0.2512 -0.4962
  246MOL    C9549585   4.407   4.190   4.985  0.9236  0.9055 -0.9896
  246MOL    H9649586   4.264   3.953   4.891 -0.6809 -0.0781  3.1080
  246MOL    H9749587   4.405   3.998   4.794 -0.5545  0.4144  0.4402
  246MOL    H9849588   4.364   4.020   5.098 -0.2099 -0.0475 -0.8289
  246MOL    H9949589   4.525   4.028   5.050 -1.2075  0.5075  4.1401
  246MOL   H10049590   4.470   4.229   4.904  1.0918  2.0370 -0.3240
  246MOL   H10149591   4.442   4.223   5.083 -1.4874 -1.2991  0.6886
  246MOL   O10249592   4.271   4.213   4.965 -0.2885 -0.4685  0.0858
  246MOL   C10349593   4.230   4.342   5.009  0.1593  0.2492 -0.4999
  246MOL   C10449594   4.079   4.346   5.007  0.6552 -0.2568 -0.1584
  246MOL   C10549595   4.022   4.310   4.865  0.1184 -0.6274 -0.1648
  246MOL   H10649596   4.274   4.428   4.959 -0.7739  0.5527 -0.8228
  246MOL   H10749597   4.246   4.353   5.116 -2.7507  1.1844 -0.1166
  246MOL   H10849598   4.038   4.276   5.079  2.4536 -0.8170  0.3462
  246MOL   H10949599   4.038   4.440   5.046 -0.9195 -2.3503  3.4823
  246MOL   H11049600   4.046   4.206   4.841 -2.4193 -0.9446 -1.4767
  246MOL   H11149601   4.057   4.373   4.783  1.1703 -1.5440 -0.4311
  246MOL   O11249602   3.882   4.332   4.858 -0.3481  0.3865  0.0635
  246MOL   C11349603   3.825   4.310   4.723 -0.5902 -0.4624 -0.1325
  246MOL   C11449604   3.682   4.356   4.723 -0.3804  0.4076  0.1501
  246MOL   C11549605   3.623   4.347   4.577  0.1180  0.3209 -0.2730
  246MOL   H11649606   3.850   4.210   4.687  0.3385  0.4399 -2.0673
  246MOL   H11749607   3.882   4.380   4.662  1.1338  0.0104  1.9820
  246MOL   H11849608   3.617   4.294   4.784 -0.1113  0.6089  0.6465
  246MOL   H11949609   3.675   4.459   4.758 -2.0167  0.5980 -0.7054
  246MOL   H12049610   3.514   4.348   4.577  0.0969  2.8121 -1.7659
  246MOL   H12149611   3.647   4.249   4.536  0.0141  0.1875 -0.0112
  246MOL   O12249612   3.677   4.447   4.501 -0.4565 -0.3747 -0.4363
  246MOL   C12349613   3.627   4.439   4.368 -0.1196 -0.4589  0.2168
  246MOL   C12449614   3.680   4.557   4.281  0.0730  0.7354  0.5493
  246MOL   C12549615   3.630   4.544   4.141 -0.1264 -0.2502  0.0054
  246MOL   H12649616   3.519   4.453   4.377 -0.1457 -0.7532  0.3885
  246MOL   H12749617   3.652   4.342   4.324 -0.8030 -0.8885  0.7685
  246MOL   H12849618   3.650   4.648   4.332 -0.3934  0.5090  0.6767
  246MOL   H12949619   3.788   4.562   4.298 -0.0435  1.9848  0.9396
  246MOL   H13049620   3.632   4.640   4.090  0.3019 -1.0038 -1.4368
  246MOL   H13149621   3.524   4.521   4.149 -0.7789  2.2421 -0.8652
  246MOL   O13249622   3.714   4.447   4.078  0.1349  0.3967  0.5151
  246MOL   C13349623   3.679   4.425   3.943 -0.4960 -0.0528 -0.6666
  246MOL   C13449624   3.749   4.307   3.873 -0.9448  0.2644 -0.0763
  246MOL   C13549625   3.905   4.321   3.865  0.2973  0.2714 -0.2698
  246MOL   H13649626   3.692   4.519   3.888 -1.4966  0.1184 -0.6227
  246MOL   H13749627   3.571   4.413   3.944 -0.4070 -0.8664 -0.9405
  246MOL   H13849628   3.722   4.206   3.906 -1.5031  1.3346  2.8674
  246MOL   H13949629   3.700   4.306   3.776  0.2712  1.7843 -0.7296
  246MOL   H14049630   3.944   4.235   3.810 -0.4092 -0.3898  0.2396
  246MOL   H14149631   3.933   4.321   3.970 -1.1556 -0.4936  0.1395
  246MOL   O14249632   3.942   4.441   3.795 -0.3345  0.8231 -0.0348
  246MOL   C14349633   4.081   4.453   3.796 -0.0620  0.6824 -0.0465
  246MOL   C14449634   4.119   4.592   3.747  0.9543  0.2200 -0.4789
  246MOL   C14549635   4.270   4.617   3.733 -0.6991 -0.3162 -0.7463
  246MOL   H14649636   4.118   4.375   3.730 -0.4047  0.4183  0.0749
  246MOL   H14749637   4.124   4.430   3.893 -1.0026 -1.9836 -0.2431
  246MOL   H14849638   4.073   4.605   3.648  3.0144 -0.1870 -1.5197
  246MOL   H14949639   4.069   4.665   3.810 -0.2775 -1.9803  1.1625
  246MOL   H15049640   4.322   4.535   3.683  0.1124  0.4186 -1.1070
  246MOL   H15149641   4.312   4.622   3.834 -2.2404  2.2931 -0.1695
  246MOL   O15249642   4.294   4.742   3.675 -0.2399  0.6404 -0.4737
  246MOL   C15349643   4.414   4.816   3.705  0.1647  1.0291 -0.1981
  246MOL   C15449644   4.423   4.957   3.641 -0.0139 -0.0402 -0.7979
  246MOL   C15549645   4.342   5.068   3.706  0.5684 -0.0066  0.4926
  246MOL   H15649646   4.504   4.762   3.677  1.5339  1.5823  3.0169
  246MOL   H15749647   4.440   4.805   3.810 -0.2860  2.9105  0.1374
  246MOL   H15849648   4.528   4.978   3.620  0.8312 -0.5356  2.6281
  246MOL   H15949649   4.376   4.949   3.543 -0.3165 -1.1140 -0.5722
  246MOL   H16049650   4.358   5.070   3.814  0.6712 -0.7115  0.4937
  246MOL   H16149651   4.236   5.053   3.687  0.1102  1.2886  1.9616
  246MOL   O16249652   4.373   5.201   3.660 -0.2148  0.1596  0.1939
  246MOL   C16349653   4.484   5.269   3.718 -0.6464 -0.2195  0.3695
  246MOL   C16449654   4.542   5.388   3.634  0.2818 -0.4059 -0.4028
  246MOL   C16549655   4.560   5.356   3.485  0.2906  0.6500  0.8902
  246MOL   H16649656   4.564   5.199   3.740 -0.1517  0.7411  1.6542
  246MOL   H16749657   4.449   5.296   3.818  0.1797 -2.5412  1.3230
  246MOL   H16849658   4.472   5.469   3.650 -0.5950 -1.6318  2.1154
  246MOL   H16949659   4.643   5.402   3.673  0.2838  0.9074 -0.8459
  246MOL   H17049660   4.461   5.330   3.448  0.9531 -1.0523  0.2547
  246MOL   H17149661   4.628   5.271   3.487 -0.1280  0.3315  1.9813
  246MOL   O17249662   4.620   5.458   3.415 -0.1890 -0.6439 -0.1667
  246MOL   C17349663   4.581   5.458   3.276  0.1354  0.2205 -0.6951
  246MOL   C17449664   4.711   5.508   3.200  0.5783  0.2344 -1.2444
  246MOL   C17549665   4.685   5.519   3.054  0.1201 -0.8126  0.6749
  246MOL   H17649666   4.495   5.522   3.255  0.1298 -0.3834 -2.5976
  246MOL   H17749667   4.562   5.353   3.257 -1.3932  0.5329 -0.9322
  246MOL   H17849668   4.742   5.605   3.239 -2.5042  0.6501  0.2981
  246MOL   H17949669   4.803   5.453   3.219 -0.6564 -1.9613 -1.4645
  246MOL   H18049670   4.766   5.571   3.004  0.4264 -0.8990  1.0745
  246MOL   H18149671   4.598   5.581   3.033  1.7403  1.4115  0.3684
  246MOL   O18249672   4.669   5.388   2.999 -0.0310  0.7833 -0.3357
  246MOL   C18349673   4.665   5.385   2.859 -0.2383 -0.7147  0.9882
  246MOL   C18449674   4.611   5.243   2.826 -0.1249 -0.6639  0.8043
  246MOL   C18549675   4.702   5.135   2.880 -0.0250 -0.1030  0.2484
  246MOL   H18649676   4.766   5.398   2.821 -0.0471 -1.9370  1.0613
  246MOL   H18749677   4.593   5.461   2.827  0.6792  0.1154  0.8880
  246MOL   H18849678   4.505   5.234   2.851 -0.1581 -1.4385  0.3865
  246MOL   H18949679   4.617   5.230   2.718 -1.0159  0.3597  0.6195
  246MOL   H19049680   4.709   5.152   2.987 -0.2665  0.6600  0.1461
  246MOL   H19149681   4.806   5.140   2.848 -0.3028 -0.2962 -0.7281
  246MOL   O19249682   4.644   5.009   2.850 -0.8061 -0.4332  0.2615
  246MOL   C19349683   4.703   4.887   2.898  0.7152  0.5129 -0.5121
  246MOL   C19449684   4.626   4.760   2.852 -0.9591 -0.6812 -0.5969
  246MOL   C19549685   4.677   4.639   2.932 -0.3218  0.4509  0.1138
  246MOL   H19649686   4.710   4.892   3.007  0.9041  1.7606 -0.5658
  246MOL   H19749687   4.805   4.886   2.860  0.1051 -1.1430 -2.1534
  246MOL   H19849688   4.522   4.785   2.875 -0.7336  0.4532 -0.8003
  246MOL   H19949689   4.641   4.735   2.747  2.0642 -2.6958  0.2574
  246MOL   H20049690   4.669   4.657   3.039  2.0127  1.7356  0.1000
  246MOL   H20149691   4.785   4.629   2.922 -0.3834  0.2754 -0.3541
  246MOL   H20249692   4.613   4.552   2.919  0.3174 -0.1301  0.7660
  247MOL     O149693   0.815   6.429   1.409  1.2698  0.3583  0.0364
  247MOL     C249694   0.855   6.348   1.512 -0.7873  0.2970  0.4155
  247MOL     C349695   1.009   6.331   1.500 -0.0330 -0.2988  0.1094
  247MOL     C449696   1.084   6.461   1.543  0.5158  0.3090  0.1124
  247MOL     H549697   0.808   6.249   1.505  1.0566 -0.4519 -1.9641
  247MOL     H649698   0.824   6.394   1.605  0.0866  2.7644 -0.4746
  247MOL     H749699   1.029   6.253   1.574  1.1092  1.3190  1.5625
  247MOL     H849700   1.045   6.285   1.408  0.0025  0.6772 -0.3693
  247MOL     H949701   1.051   6.486   1.643 -2.3865  0.5368 -0.8583
  247MOL    H1049702   1.068   6.552   1.484 -0.3448  0.4897  0.6145
  247MOL    H1149703   0.832   6.382   1.329 -1.2211  0.1068 -0.3877
  247MOL    O1249704   1.225   6.445   1.544  0.0875  0.2970  0.1837
  247MOL    C1349705   1.302   6.559   1.589 -0.0817 -0.1380 -0.3280
  247MOL    C1449706   1.445   6.538   1.539  0.2501  0.1822  0.1894
  247MOL    C1549707   1.545   6.639   1.581  0.5630 -0.3460 -0.1064
  247MOL    H1649708   1.308   6.577   1.696  1.1112 -1.9298 -0.0832
  247MOL    H1749709   1.276   6.657   1.549  1.1116  0.7046  0.9286
  247MOL    H1849710   1.473   6.437   1.569  1.9042  0.0387 -1.7763
  247MOL    H1949711   1.441   6.534   1.430 -0.5969  1.0055  0.1904
  247MOL    H2049712   1.562   6.634   1.689  2.5838  1.1729 -0.3247
  247MOL    H2149713   1.529   6.742   1.548  0.7658 -1.0014 -2.3255
  247MOL    O2249714   1.664   6.591   1.526  0.7167 -0.1725 -0.1955
  247MOL    C2349715   1.780   6.642   1.583 -0.4971  0.6900 -0.3781
  247MOL    C2449716   1.902   6.612   1.491 -0.3388 -0.3926  0.4877
  247MOL    C2549717   2.023   6.695   1.544  0.3650  0.5581  0.9517
  247MOL    H2649718   1.783   6.591   1.679  0.9135  1.2361 -0.1085
  247MOL    H2749719   1.767   6.749   1.598  2.4357  0.8945  1.1509
  247MOL    H2849720   1.922   6.506   1.481  0.8879 -0.0680 -0.5730
  247MOL    H2949721   1.885   6.637   1.387 -0.3882 -0.8714  0.3784
  247MOL    H3049722   1.990   6.798   1.557  1.2467  1.1527 -1.3384
  247MOL    H3149723   2.097   6.697   1.465 -1.0672  0.7401 -0.4010
  247MOL    O3249724   2.074   6.652   1.667  0.3735 -1.0065  0.1204
  247MOL    C3349725   2.176   6.745   1.721 -0.1078 -0.2204 -0.0702
  247MOL    C3449726   2.268   6.663   1.816 -0.3085  0.4888 -0.1506
  247MOL    C3549727   2.399   6.746   1.859 -0.0071  0.5480  0.3048
  247MOL    H3649728   2.127   6.822   1.780  1.2909 -0.6010  1.6297
  247MOL    H3749729   2.228   6.788   1.636 -0.4948 -1.7375 -1.1061
  247MOL    H3849730   2.219   6.632   1.908  2.9185  1.3549  1.9314
  247MOL    H3949731   2.289   6.563   1.778 -2.0620  0.4861 -1.1796
  247MOL    H4049732   2.361   6.847   1.878  1.3824  1.0547  0.3882
  247MOL    H4149733   2.470   6.754   1.777  0.7733 -2.0493  0.6841
  247MOL    O4249734   2.459   6.711   1.981 -0.4251 -0.0884  0.1923
  247MOL    C4349735   2.567   6.807   2.004  0.2713 -0.2126  0.5338
  247MOL    C4449736   2.634   6.771   2.129  0.1299  0.5194 -0.3969
  247MOL    C4549737   2.752   6.856   2.168 -0.6852 -0.0624  0.7112
  247MOL    H4649738   2.522   6.905   2.017 -0.8829 -0.5900 -0.5474
  247MOL    H4749739   2.640   6.815   1.924 -0.3801 -0.5010 -0.0860
  247MOL    H4849740   2.564   6.779   2.212  0.2053  1.4011 -0.4180
  247MOL    H4949741   2.670   6.669   2.120 -2.3542 -0.4177 -0.0626
  247MOL    H5049742   2.727   6.962   2.169 -1.3490 -0.2224  1.1125
  247MOL    H5149743   2.831   6.848   2.093 -1.5008  1.0266 -0.2708
  247MOL    O5249744   2.806   6.819   2.294 -0.6971  0.5418  0.2638
  247MOL    C5349745   2.730   6.851   2.411 -0.1650  0.1946  0.1217
  247MOL    C5449746   2.810   6.873   2.538  0.2190 -0.1016  0.0357
  247MOL    C5549747   2.863   6.744   2.601 -0.5317 -0.0398  0.3154
  247MOL    H5649748   2.647   6.783   2.428 -0.0626 -0.6752 -2.6542
  247MOL    H5749749   2.687   6.949   2.387  1.8921  1.2627  0.6312
  247MOL    H5849750   2.895   6.941   2.525  1.0271 -0.9069  1.0331
  247MOL    H5949751   2.751   6.934   2.605  1.3299 -0.9852  1.8474
  247MOL    H6049752   2.909   6.670   2.534 -0.6336  0.1354  0.0518
  247MOL    H6149753   2.781   6.688   2.647 -1.1781 -0.3113 -1.1449
  247MOL    O6249754   2.964   6.771   2.697  0.0541  0.1933  0.2401
  247MOL    C6349755   3.001   6.659   2.777  0.7573  1.0952 -0.2123
  247MOL    C6449756   3.143   6.699   2.831 -0.2217  0.5576 -0.2043
  247MOL    C6549757   3.177   6.619   2.957  0.1103  0.5467 -0.2955
  247MOL    H6649758   2.995   6.567   2.720 -2.3189 -0.0381  1.8311
  247MOL    H6749759   2.939   6.646   2.865  3.8496  1.7854  2.1699
  247MOL    H6849760   3.226   6.679   2.764  0.5433  1.4012  0.4692
  247MOL    H6949761   3.140   6.805   2.858 -0.1664  0.1790  1.3498
  247MOL    H7049762   3.150   6.523   2.913  0.5405  0.0838  0.4428
  247MOL    H7149763   3.106   6.635   3.038 -1.4874 -0.8636 -1.3607
  247MOL    O7249764   3.306   6.642   3.009  0.2636 -0.0192 -0.5640
  247MOL    C7349765   3.364   6.544   3.092  0.2497  0.4073  0.6783
  247MOL    C7449766   3.416   6.418   3.009 -0.2371 -0.0356  0.3346
  247MOL    C7549767   3.502   6.447   2.879  0.2077  0.4123 -0.1611
  247MOL    H7649768   3.292   6.510   3.166 -0.6612  1.2786  0.2141
  247MOL    H7749769   3.444   6.584   3.154  0.4515  0.8229  0.1545
  247MOL    H7849770   3.462   6.353   3.082 -1.5209  2.2533  3.2776
  247MOL    H7949771   3.332   6.355   2.979 -0.2811  0.5293 -0.7599
  247MOL    H8049772   3.580   6.521   2.898  1.2673 -1.3861  2.8156
  247MOL    H8149773   3.433   6.501   2.815  0.1056 -2.0189 -2.1539
  247MOL    O8249774   3.540   6.328   2.815 -0.4435  0.3275  0.2045
  247MOL    C8349775   3.587   6.359   2.689 -0.4041  0.2334  0.6072
  247MOL    C8449776   3.621   6.236   2.605 -0.5213  0.2231  0.7470
  247MOL    C8549777   3.683   6.263   2.466 -0.5825  0.2930  0.0812
  247MOL    H8649778   3.677   6.421   2.691  0.0070 -0.3413  0.2412
  247MOL    H8749779   3.505   6.413   2.642 -0.8171 -1.7086 -0.9304
  247MOL    H8849780   3.696   6.183   2.664  1.9102  1.3004 -1.2505
  247MOL    H8949781   3.535   6.170   2.597 -0.2475 -0.3082  2.0528
  247MOL    H9049782   3.771   6.326   2.481 -1.6464  2.2288 -1.4910
  247MOL    H9149783   3.611   6.322   2.409  0.9985  2.4906  0.2711
  247MOL    O9249784   3.728   6.148   2.396  0.1971  0.0932  0.4566
  247MOL    C9349785   3.778   6.171   2.268  0.1028 -0.4877  0.1999
  247MOL    C9449786   3.804   6.044   2.191  0.0072  0.5608  0.6518
  247MOL    C9549787   3.679   5.994   2.114 -0.8047 -0.2896 -0.2234
  247MOL    H9649788   3.877   6.216   2.283 -0.0334 -0.0848 -0.1103
  247MOL    H9749789   3.712   6.238   2.214 -0.0727 -1.0011 -0.2187
  247MOL    H9849790   3.895   6.054   2.131 -1.5841  0.3071 -1.8900
  247MOL    H9949791   3.831   5.969   2.265 -1.2723 -0.8614 -0.2897
  247MOL   H10049792   3.618   6.067   2.061  1.6944  2.5213  0.6895
  247MOL   H10149793   3.604   5.964   2.188 -0.3291  0.9855  0.7731
  247MOL   O10249794   3.703   5.881   2.037  0.0989 -0.0508  0.6319
  247MOL   C10349795   3.608   5.860   1.944  0.5447 -0.1789  0.3596
  247MOL   C10449796   3.662   5.773   1.828 -0.1837 -0.1822 -0.6216
  247MOL   C10549797   3.575   5.744   1.704  0.7962  0.3786 -1.0659
  247MOL   H10649798   3.578   5.953   1.896  0.0908 -1.4447 -1.8482
  247MOL   H10749799   3.510   5.823   1.972  0.3822 -0.1653 -0.1898
  247MOL   H10849800   3.753   5.815   1.785  0.8240 -1.9012 -0.2271
  247MOL   H10949801   3.698   5.686   1.883 -1.8582 -0.3957  0.1615
  247MOL   H11049802   3.557   5.830   1.639  1.6531  0.1321 -1.6382
  247MOL   H11149803   3.478   5.716   1.745  1.6108 -0.8412  0.0629
  247MOL   O11249804   3.642   5.650   1.617  0.5040 -0.8450 -0.0455
  247MOL   C11349805   3.618   5.649   1.479 -0.0588  0.2479  0.2134
  247MOL   C11449806   3.694   5.531   1.421  0.6283 -0.6463  0.3929
  247MOL   C11549807   3.841   5.550   1.433  0.0901  0.0971  0.0401
  247MOL   H11649808   3.644   5.740   1.425 -2.8640 -0.1937 -2.0197
  247MOL   H11749809   3.512   5.629   1.469  0.3541 -1.4493 -1.0216
  247MOL   H11849810   3.661   5.445   1.479  2.9260 -0.8660  1.3948
  247MOL   H11949811   3.674   5.518   1.314 -1.1571  0.0273  0.6208
  247MOL   H12049812   3.869   5.569   1.537 -0.5169 -0.8074  0.3746
  247MOL   H12149813   3.867   5.644   1.385  2.2416 -0.9087 -0.8322
  247MOL   O12249814   3.911   5.441   1.367 -0.8663 -0.0469 -0.3241
  247MOL   C12349815   4.019   5.415   1.461  0.3216 -0.9945 -0.2387
  247MOL   C12449816   4.108   5.300   1.400 -0.5186 -0.0362 -0.4432
  247MOL   C12549817   4.203   5.340   1.288 -0.0224  0.1480 -0.3176
  247MOL   H12649818   3.971   5.386   1.554  0.9525 -0.9342  0.1076
  247MOL   H12749819   4.082   5.498   1.493 -0.0109 -1.7119  2.3654
  247MOL   H12849820   4.160   5.253   1.484 -0.4733  0.3824 -0.2355
  247MOL   H12949821   4.034   5.222   1.379  0.3340 -1.3229  1.1173
  247MOL   H13049822   4.234   5.444   1.302  0.0693  0.1013 -0.1726
  247MOL   H13149823   4.150   5.336   1.193 -1.1252 -0.5007  0.3208
  247MOL   O13249824   4.322   5.261   1.284 -0.4954  0.1892 -0.3635
  247MOL   C13349825   4.432   5.308   1.205 -0.1002  0.0991  0.3299
  247MOL   C13449826   4.560   5.218   1.232  0.2800  0.0351  0.2379
  247MOL   C13549827   4.628   5.177   1.102  0.4562 -0.0646  0.6978
  247MOL   H13649828   4.453   5.412   1.229  1.3233 -0.2243  0.5457
  247MOL   H13749829   4.414   5.297   1.098  0.8690  0.0564  0.1611
  247MOL   H13849830   4.626   5.270   1.302 -2.2947  1.2039  1.8940
  247MOL   H13949831   4.535   5.127   1.286 -0.2177 -1.0982 -1.8461
  247MOL   H14049832   4.644   5.259   1.031 -0.2788 -2.3085 -2.1427
  247MOL   H14149833   4.565   5.099   1.059 -1.6375 -1.2822  5.6631
  247MOL   O14249834   4.755   5.130   1.134 -0.0470  0.5663 -0.1895
  247MOL   C14349835   4.824   5.071   1.024 -1.0005  0.1090  0.5344
  247MOL   C14449836   4.975   5.046   1.040  0.6054 -0.5338 -0.4593
  247MOL   C14549837   5.045   4.966   0.926  0.0122 -0.0081  0.3034
  247MOL   H14649838   4.824   5.140   0.940  0.9882 -0.6846 -0.1697
  247MOL   H14749839   4.781   4.976   0.994  1.6612 -0.3717 -2.0556
  247MOL   H14849840   5.029   5.137   1.069  0.3028 -1.1113  2.0312
  247MOL   H14949841   4.988   4.992   1.134 -1.0416 -0.3398 -0.1002
  247MOL   H15049842   5.004   4.865   0.930 -1.7406  0.7625  2.7854
  247MOL   H15149843   5.153   4.952   0.936  0.4905 -0.9752 -4.8370
  247MOL   O15249844   5.021   5.029   0.800  0.0235  0.4582  0.0325
  247MOL   C15349845   5.052   4.950   0.690  0.1396 -0.4210 -0.4539
  247MOL   C15449846   5.072   5.047   0.576 -1.2009  0.6593 -0.4262
  247MOL   C15549847   5.214   5.120   0.571 -0.0076 -0.2992 -1.0975
  247MOL   H15649848   4.963   4.889   0.676  0.7279 -1.5115  0.4731
  247MOL   H15749849   5.139   4.886   0.702  0.1120 -0.3759 -0.0239
  247MOL   H15849850   5.065   4.973   0.497  2.8030 -1.3876  0.9916
  247MOL   H15949851   4.989   5.118   0.566 -1.1334  0.6359 -1.1548
  247MOL   H16049852   5.297   5.049   0.579  2.0178  2.0985 -0.0180
  247MOL   H16149853   5.221   5.191   0.653 -0.4151  1.1012 -2.2710
  247MOL   O16249854   5.235   5.203   0.459 -0.4675 -0.1646 -0.3562
  247MOL   C16349855   5.131   5.294   0.434  0.1652 -0.0122 -0.1064
  247MOL   C16449856   5.182   5.403   0.335  0.1266 -0.0228  0.5356
  247MOL   C16549857   5.084   5.518   0.310 -0.1546 -0.0925 -0.1000
  247MOL   H16649858   5.108   5.351   0.523  0.8167  0.3836 -0.1906
  247MOL   H16749859   5.041   5.245   0.395  0.0039 -0.7785  1.2250
  247MOL   H16849860   5.282   5.438   0.361 -0.2066  0.4502  1.2035
  247MOL   H16949861   5.204   5.367   0.235 -0.1257  2.8412 -0.6130
  247MOL   H17049862   5.061   5.579   0.397 -1.7061 -0.2099 -0.4269
  247MOL   H17149863   4.984   5.490   0.278 -0.5488  2.4799 -1.2708
  247MOL   O17249864   5.152   5.589   0.209 -0.0748 -0.2945 -0.1903
  247MOL   C17349865   5.097   5.705   0.156  0.3542  0.2985  0.1909
  247MOL   C17449866   5.180   5.737   0.030 -0.1644 -0.6894 -0.5871
  247MOL   C17549867   5.099   5.846   7.744  0.9964  0.0735 -0.1918
  247MOL   H17649868   5.090   5.789   0.226  1.7433 -0.1713  0.9006
  247MOL   H17749869   4.994   5.689   0.123  1.3638 -0.0573 -2.8564
  247MOL   H17849870   5.275   5.782   0.057 -0.2020  0.7366 -2.7111
  247MOL   H17949871   5.184   5.658   7.742  1.0859 -0.2252 -1.0076
  247MOL   H18049872   4.997   5.809   7.735  0.4916  1.6221 -1.0419
  247MOL   H18149873   5.128   5.848   7.639  0.7332 -0.8113 -0.2869
  247MOL   O18249874   5.095   5.976   0.019  0.4669  0.2843  0.2612
  247MOL   C18349875   5.013   6.066   7.737 -0.1305  0.4800 -0.3552
  247MOL   C18449876   5.058   6.207   7.776 -0.9161 -0.0360 -0.9860
  247MOL   C18549877   4.956   6.312   7.743  0.5272  0.2797 -0.1212
  247MOL   H18649878   4.911   6.049   7.771 -0.4964 -0.0908 -1.7249
  247MOL   H18749879   5.009   6.054   7.629  0.5415 -1.0129 -0.2280
  247MOL   H18849880   5.073   6.221   0.095  0.2989 -1.0508 -1.0081
  247MOL   H18949881   5.152   6.236   7.728 -0.3883 -1.4540 -0.8518
  247MOL   H19049882   4.865   6.297   0.012  0.0104  0.0613 -0.9748
  247MOL   H19149883   4.925   6.295   7.639 -1.8887 -1.1901  0.7987
  247MOL   O19249884   5.017   6.438   7.755  0.2025 -0.2390  0.0974
  247MOL   C19349885   4.936   6.544   7.774  0.1467  0.9459  0.8833
  247MOL   C19449886   5.016   6.675   7.750  0.5768  0.5173 -0.2182
  247MOL   C19549887   4.949   6.808   0.005 -0.0309  0.1009 -0.3559
  247MOL   H19649888   4.900   6.540   0.089 -0.2312 -2.3504  0.6773
  247MOL   H19749889   4.847   6.528   7.713  0.0184 -2.0457  1.7599
  247MOL   H19849890   5.103   6.657   0.025  0.3221  0.5672  0.1520
  247MOL   H19949891   5.048   6.687   7.646  2.3015  1.3547  0.3841
  247MOL   H20049892   5.016   6.884   7.752 -0.4250  0.7698  0.2384
  247MOL   H20149893   4.929   6.825   0.110 -1.2245 -0.2703 -0.5162
  247MOL   H20249894   4.852   6.828   7.748  0.7197  1.0236 -1.6279
   7.78823   7.78823   7.78823
