;
; Gromacs include topology (itp) file.
; For Molecular Group XYZ
; Force field scheme: opls2005
; Produced from DL_FIELD v4.11
;


[ moleculetype ]
; name    nrexcl
XYZ    3

[ atoms ]
; nr   type   resnr   residu    atom    cgnr    charge    mass
    1        CT    1  MOL      C1     1  -0.1800000   12.0115
    2        CT    1  MOL      C2     2  -0.0600000   12.0115
    3         C    1  MOL      C3     3   0.5200000   12.0115
    4         O    1  MOL      O4     4  -0.4400000   15.9994
    5        OH    1  MOL      O5     5  -0.5300000   15.9994
    6        HC    1  MOL      H6     6   0.0600000    1.0080
    7        HC    1  MOL      H7     7   0.0600000    1.0080
    8        HC    1  MOL      H8     8   0.0600000    1.0080
    9        HO    1  MOL      H9     9   0.4500000    1.0080
   10        HC    1  MOL     H10    10   0.0600000    1.0080
   11        CT    1  MOL     C11    11  -0.1200000   12.0115
   12        CT    1  MOL     C12    12  -0.0600000   12.0115
   13         C    1  MOL     C13    13   0.5200000   12.0115
   14         O    1  MOL     O14    14  -0.4400000   15.9994
   15        OH    1  MOL     O15    15  -0.5300000   15.9994
   16        HC    1  MOL     H16    16   0.0600000    1.0080
   17        HC    1  MOL     H17    17   0.0600000    1.0080
   18        HC    1  MOL     H18    18   0.0600000    1.0080
   19        HO    1  MOL     H19    19   0.4500000    1.0080
   20        CT    1  MOL     C20    20  -0.1200000   12.0115
   21        CT    1  MOL     C21    21  -0.0600000   12.0115
   22         C    1  MOL     C22    22   0.5200000   12.0115
   23         O    1  MOL     O23    23  -0.4400000   15.9994
   24        OH    1  MOL     O24    24  -0.5300000   15.9994
   25        HC    1  MOL     H25    25   0.0600000    1.0080
   26        HC    1  MOL     H26    26   0.0600000    1.0080
   27        HC    1  MOL     H27    27   0.0600000    1.0080
   28        HO    1  MOL     H28    28   0.4500000    1.0080
   29        CT    1  MOL     C29    29  -0.1200000   12.0115
   30        CT    1  MOL     C30    30  -0.0600000   12.0115
   31         C    1  MOL     C31    31   0.5200000   12.0115
   32         O    1  MOL     O32    32  -0.4400000   15.9994
   33        OH    1  MOL     O33    33  -0.5300000   15.9994
   34        HC    1  MOL     H34    34   0.0600000    1.0080
   35        HC    1  MOL     H35    35   0.0600000    1.0080
   36        HC    1  MOL     H36    36   0.0600000    1.0080
   37        HO    1  MOL     H37    37   0.4500000    1.0080
   38        CT    1  MOL     C38    38  -0.1200000   12.0115
   39        CT    1  MOL     C39    39  -0.0600000   12.0115
   40         C    1  MOL     C40    40   0.5200000   12.0115
   41         O    1  MOL     O41    41  -0.4400000   15.9994
   42        OH    1  MOL     O42    42  -0.5300000   15.9994
   43        HC    1  MOL     H43    43   0.0600000    1.0080
   44        HC    1  MOL     H44    44   0.0600000    1.0080
   45        HC    1  MOL     H45    45   0.0600000    1.0080
   46        HO    1  MOL     H46    46   0.4500000    1.0080
   47        CT    1  MOL     C47    47  -0.1200000   12.0115
   48        CT    1  MOL     C48    48  -0.0600000   12.0115
   49         C    1  MOL     C49    49   0.5200000   12.0115
   50         O    1  MOL     O50    50  -0.4400000   15.9994
   51        OH    1  MOL     O51    51  -0.5300000   15.9994
   52        HC    1  MOL     H52    52   0.0600000    1.0080
   53        HC    1  MOL     H53    53   0.0600000    1.0080
   54        HC    1  MOL     H54    54   0.0600000    1.0080
   55        HO    1  MOL     H55    55   0.4500000    1.0080
   56        CT    1  MOL     C56    56  -0.1200000   12.0115
   57        CT    1  MOL     C57    57  -0.0600000   12.0115
   58         C    1  MOL     C58    58   0.5200000   12.0115
   59         O    1  MOL     O59    59  -0.4400000   15.9994
   60        OH    1  MOL     O60    60  -0.5300000   15.9994
   61        HC    1  MOL     H61    61   0.0600000    1.0080
   62        HC    1  MOL     H62    62   0.0600000    1.0080
   63        HC    1  MOL     H63    63   0.0600000    1.0080
   64        HO    1  MOL     H64    64   0.4500000    1.0080
   65        CT    1  MOL     C65    65  -0.1200000   12.0115
   66        CT    1  MOL     C66    66  -0.0600000   12.0115
   67         C    1  MOL     C67    67   0.5200000   12.0115
   68         O    1  MOL     O68    68  -0.4400000   15.9994
   69        OH    1  MOL     O69    69  -0.5300000   15.9994
   70        HC    1  MOL     H70    70   0.0600000    1.0080
   71        HC    1  MOL     H71    71   0.0600000    1.0080
   72        HC    1  MOL     H72    72   0.0600000    1.0080
   73        HO    1  MOL     H73    73   0.4500000    1.0080
   74        CT    1  MOL     C74    74  -0.1200000   12.0115
   75        CT    1  MOL     C75    75  -0.0600000   12.0115
   76         C    1  MOL     C76    76   0.5200000   12.0115
   77         O    1  MOL     O77    77  -0.4400000   15.9994
   78        OH    1  MOL     O78    78  -0.5300000   15.9994
   79        HC    1  MOL     H79    79   0.0600000    1.0080
   80        HC    1  MOL     H80    80   0.0600000    1.0080
   81        HC    1  MOL     H81    81   0.0600000    1.0080
   82        HO    1  MOL     H82    82   0.4500000    1.0080
   83        CT    1  MOL     C83    83  -0.1200000   12.0115
   84        CT    1  MOL     C84    84  -0.0600000   12.0115
   85         C    1  MOL     C85    85   0.5200000   12.0115
   86         O    1  MOL     O86    86  -0.4400000   15.9994
   87        OH    1  MOL     O87    87  -0.5300000   15.9994
   88        HC    1  MOL     H88    88   0.0600000    1.0080
   89        HC    1  MOL     H89    89   0.0600000    1.0080
   90        HC    1  MOL     H90    90   0.0600000    1.0080
   91        HO    1  MOL     H91    91   0.4500000    1.0080
   92        CT    1  MOL     C92    92  -0.1200000   12.0115
   93        CT    1  MOL     C93    93  -0.0600000   12.0115
   94         C    1  MOL     C94    94   0.5200000   12.0115
   95         O    1  MOL     O95    95  -0.4400000   15.9994
   96        OH    1  MOL     O96    96  -0.5300000   15.9994
   97        HC    1  MOL     H97    97   0.0600000    1.0080
   98        HC    1  MOL     H98    98   0.0600000    1.0080
   99        HC    1  MOL     H99    99   0.0600000    1.0080
  100        HO    1  MOL    H100   100   0.4500000    1.0080
  101        CT    1  MOL    C101   101  -0.1200000   12.0115
  102        CT    1  MOL    C102   102  -0.0600000   12.0115
  103         C    1  MOL    C103   103   0.5200000   12.0115
  104         O    1  MOL    O104   104  -0.4400000   15.9994
  105        OH    1  MOL    O105   105  -0.5300000   15.9994
  106        HC    1  MOL    H106   106   0.0600000    1.0080
  107        HC    1  MOL    H107   107   0.0600000    1.0080
  108        HC    1  MOL    H108   108   0.0600000    1.0080
  109        HO    1  MOL    H109   109   0.4500000    1.0080
  110        CT    1  MOL    C110   110  -0.1200000   12.0115
  111        CT    1  MOL    C111   111  -0.0600000   12.0115
  112         C    1  MOL    C112   112   0.5200000   12.0115
  113         O    1  MOL    O113   113  -0.4400000   15.9994
  114        OH    1  MOL    O114   114  -0.5300000   15.9994
  115        HC    1  MOL    H115   115   0.0600000    1.0080
  116        HC    1  MOL    H116   116   0.0600000    1.0080
  117        HC    1  MOL    H117   117   0.0600000    1.0080
  118        HO    1  MOL    H118   118   0.4500000    1.0080
  119        CT    1  MOL    C119   119  -0.1200000   12.0115
  120        CT    1  MOL    C120   120  -0.0600000   12.0115
  121         C    1  MOL    C121   121   0.5200000   12.0115
  122         O    1  MOL    O122   122  -0.4400000   15.9994
  123        OH    1  MOL    O123   123  -0.5300000   15.9994
  124        HC    1  MOL    H124   124   0.0600000    1.0080
  125        HC    1  MOL    H125   125   0.0600000    1.0080
  126        HC    1  MOL    H126   126   0.0600000    1.0080
  127        HO    1  MOL    H127   127   0.4500000    1.0080
  128        CT    1  MOL    C128   128  -0.1200000   12.0115
  129        CT    1  MOL    C129   129  -0.0600000   12.0115
  130         C    1  MOL    C130   130   0.5200000   12.0115
  131         O    1  MOL    O131   131  -0.4400000   15.9994
  132        OH    1  MOL    O132   132  -0.5300000   15.9994
  133        HC    1  MOL    H133   133   0.0600000    1.0080
  134        HC    1  MOL    H134   134   0.0600000    1.0080
  135        HC    1  MOL    H135   135   0.0600000    1.0080
  136        HO    1  MOL    H136   136   0.4500000    1.0080
  137        CT    1  MOL    C137   137  -0.1200000   12.0115
  138        CT    1  MOL    C138   138  -0.0600000   12.0115
  139         C    1  MOL    C139   139   0.5200000   12.0115
  140         O    1  MOL    O140   140  -0.4400000   15.9994
  141        OH    1  MOL    O141   141  -0.5300000   15.9994
  142        HC    1  MOL    H142   142   0.0600000    1.0080
  143        HC    1  MOL    H143   143   0.0600000    1.0080
  144        HC    1  MOL    H144   144   0.0600000    1.0080
  145        HO    1  MOL    H145   145   0.4500000    1.0080
  146        CT    1  MOL    C146   146  -0.1200000   12.0115
  147        CT    1  MOL    C147   147  -0.0600000   12.0115
  148         C    1  MOL    C148   148   0.5200000   12.0115
  149         O    1  MOL    O149   149  -0.4400000   15.9994
  150        OH    1  MOL    O150   150  -0.5300000   15.9994
  151        HC    1  MOL    H151   151   0.0600000    1.0080
  152        HC    1  MOL    H152   152   0.0600000    1.0080
  153        HC    1  MOL    H153   153   0.0600000    1.0080
  154        HO    1  MOL    H154   154   0.4500000    1.0080
  155        CT    1  MOL    C155   155  -0.1200000   12.0115
  156        CT    1  MOL    C156   156  -0.0600000   12.0115
  157         C    1  MOL    C157   157   0.5200000   12.0115
  158         O    1  MOL    O158   158  -0.4400000   15.9994
  159        OH    1  MOL    O159   159  -0.5300000   15.9994
  160        HC    1  MOL    H160   160   0.0600000    1.0080
  161        HC    1  MOL    H161   161   0.0600000    1.0080
  162        HC    1  MOL    H162   162   0.0600000    1.0080
  163        HO    1  MOL    H163   163   0.4500000    1.0080
  164        CT    1  MOL    C164   164  -0.1200000   12.0115
  165        CT    1  MOL    C165   165  -0.0600000   12.0115
  166         C    1  MOL    C166   166   0.5200000   12.0115
  167         O    1  MOL    O167   167  -0.4400000   15.9994
  168        OH    1  MOL    O168   168  -0.5300000   15.9994
  169        HC    1  MOL    H169   169   0.0600000    1.0080
  170        HC    1  MOL    H170   170   0.0600000    1.0080
  171        HC    1  MOL    H171   171   0.0600000    1.0080
  172        HO    1  MOL    H172   172   0.4500000    1.0080
  173        CT    1  MOL    C173   173  -0.1200000   12.0115
  174        CT    1  MOL    C174   174  -0.1200000   12.0115
  175         C    1  MOL    C175   175   0.5200000   12.0115
  176         O    1  MOL    O176   176  -0.4400000   15.9994
  177        OH    1  MOL    O177   177  -0.5300000   15.9994
  178        HC    1  MOL    H178   178   0.0600000    1.0080
  179        HC    1  MOL    H179   179   0.0600000    1.0080
  180        HC    1  MOL    H180   180   0.0600000    1.0080
  181        HO    1  MOL    H181   181   0.4500000    1.0080
  182        HC    1  MOL    H182   182   0.0600000    1.0080

[ bonds ]
      1      2   1      0.1529 224262.4000
      1      6   1      0.1090 284512.0000
      1      7   1      0.1090 284512.0000
      1     10   1      0.1090 284512.0000
      2      3   1      0.1522 265265.6000
      2      8   1      0.1090 284512.0000
      2     11   1      0.1529 224262.4000
      3      4   1      0.1229 476976.0000
      3      5   1      0.1364 376560.0000
      5      9   1      0.0945 462750.4000
     11     12   1      0.1529 224262.4000
     11     16   1      0.1090 284512.0000
     11     17   1      0.1090 284512.0000
     12     13   1      0.1522 265265.6000
     12     18   1      0.1090 284512.0000
     12     20   1      0.1529 224262.4000
     13     14   1      0.1229 476976.0000
     13     15   1      0.1364 376560.0000
     15     19   1      0.0945 462750.4000
     20     21   1      0.1529 224262.4000
     20     25   1      0.1090 284512.0000
     20     26   1      0.1090 284512.0000
     21     22   1      0.1522 265265.6000
     21     27   1      0.1090 284512.0000
     21     29   1      0.1529 224262.4000
     22     23   1      0.1229 476976.0000
     22     24   1      0.1364 376560.0000
     24     28   1      0.0945 462750.4000
     29     30   1      0.1529 224262.4000
     29     34   1      0.1090 284512.0000
     29     35   1      0.1090 284512.0000
     30     31   1      0.1522 265265.6000
     30     36   1      0.1090 284512.0000
     30     38   1      0.1529 224262.4000
     31     32   1      0.1229 476976.0000
     31     33   1      0.1364 376560.0000
     33     37   1      0.0945 462750.4000
     38     39   1      0.1529 224262.4000
     38     43   1      0.1090 284512.0000
     38     44   1      0.1090 284512.0000
     39     40   1      0.1522 265265.6000
     39     45   1      0.1090 284512.0000
     39     47   1      0.1529 224262.4000
     40     41   1      0.1229 476976.0000
     40     42   1      0.1364 376560.0000
     42     46   1      0.0945 462750.4000
     47     48   1      0.1529 224262.4000
     47     52   1      0.1090 284512.0000
     47     53   1      0.1090 284512.0000
     48     49   1      0.1522 265265.6000
     48     54   1      0.1090 284512.0000
     48     56   1      0.1529 224262.4000
     49     50   1      0.1229 476976.0000
     49     51   1      0.1364 376560.0000
     51     55   1      0.0945 462750.4000
     56     57   1      0.1529 224262.4000
     56     61   1      0.1090 284512.0000
     56     62   1      0.1090 284512.0000
     57     58   1      0.1522 265265.6000
     57     63   1      0.1090 284512.0000
     57     65   1      0.1529 224262.4000
     58     59   1      0.1229 476976.0000
     58     60   1      0.1364 376560.0000
     60     64   1      0.0945 462750.4000
     65     66   1      0.1529 224262.4000
     65     70   1      0.1090 284512.0000
     65     71   1      0.1090 284512.0000
     66     67   1      0.1522 265265.6000
     66     72   1      0.1090 284512.0000
     66     74   1      0.1529 224262.4000
     67     68   1      0.1229 476976.0000
     67     69   1      0.1364 376560.0000
     69     73   1      0.0945 462750.4000
     74     75   1      0.1529 224262.4000
     74     79   1      0.1090 284512.0000
     74     80   1      0.1090 284512.0000
     75     76   1      0.1522 265265.6000
     75     81   1      0.1090 284512.0000
     75     83   1      0.1529 224262.4000
     76     77   1      0.1229 476976.0000
     76     78   1      0.1364 376560.0000
     78     82   1      0.0945 462750.4000
     83     84   1      0.1529 224262.4000
     83     88   1      0.1090 284512.0000
     83     89   1      0.1090 284512.0000
     84     85   1      0.1522 265265.6000
     84     90   1      0.1090 284512.0000
     84     92   1      0.1529 224262.4000
     85     86   1      0.1229 476976.0000
     85     87   1      0.1364 376560.0000
     87     91   1      0.0945 462750.4000
     92     93   1      0.1529 224262.4000
     92     97   1      0.1090 284512.0000
     92     98   1      0.1090 284512.0000
     93     94   1      0.1522 265265.6000
     93     99   1      0.1090 284512.0000
     93    101   1      0.1529 224262.4000
     94     95   1      0.1229 476976.0000
     94     96   1      0.1364 376560.0000
     96    100   1      0.0945 462750.4000
    101    102   1      0.1529 224262.4000
    101    106   1      0.1090 284512.0000
    101    107   1      0.1090 284512.0000
    102    103   1      0.1522 265265.6000
    102    108   1      0.1090 284512.0000
    102    110   1      0.1529 224262.4000
    103    104   1      0.1229 476976.0000
    103    105   1      0.1364 376560.0000
    105    109   1      0.0945 462750.4000
    110    111   1      0.1529 224262.4000
    110    115   1      0.1090 284512.0000
    110    116   1      0.1090 284512.0000
    111    112   1      0.1522 265265.6000
    111    117   1      0.1090 284512.0000
    111    119   1      0.1529 224262.4000
    112    113   1      0.1229 476976.0000
    112    114   1      0.1364 376560.0000
    114    118   1      0.0945 462750.4000
    119    120   1      0.1529 224262.4000
    119    124   1      0.1090 284512.0000
    119    125   1      0.1090 284512.0000
    120    121   1      0.1522 265265.6000
    120    126   1      0.1090 284512.0000
    120    128   1      0.1529 224262.4000
    121    122   1      0.1229 476976.0000
    121    123   1      0.1364 376560.0000
    123    127   1      0.0945 462750.4000
    128    129   1      0.1529 224262.4000
    128    133   1      0.1090 284512.0000
    128    134   1      0.1090 284512.0000
    129    130   1      0.1522 265265.6000
    129    135   1      0.1090 284512.0000
    129    137   1      0.1529 224262.4000
    130    131   1      0.1229 476976.0000
    130    132   1      0.1364 376560.0000
    132    136   1      0.0945 462750.4000
    137    138   1      0.1529 224262.4000
    137    142   1      0.1090 284512.0000
    137    143   1      0.1090 284512.0000
    138    139   1      0.1522 265265.6000
    138    144   1      0.1090 284512.0000
    138    146   1      0.1529 224262.4000
    139    140   1      0.1229 476976.0000
    139    141   1      0.1364 376560.0000
    141    145   1      0.0945 462750.4000
    146    147   1      0.1529 224262.4000
    146    151   1      0.1090 284512.0000
    146    152   1      0.1090 284512.0000
    147    148   1      0.1522 265265.6000
    147    153   1      0.1090 284512.0000
    147    155   1      0.1529 224262.4000
    148    149   1      0.1229 476976.0000
    148    150   1      0.1364 376560.0000
    150    154   1      0.0945 462750.4000
    155    156   1      0.1529 224262.4000
    155    160   1      0.1090 284512.0000
    155    161   1      0.1090 284512.0000
    156    157   1      0.1522 265265.6000
    156    162   1      0.1090 284512.0000
    156    164   1      0.1529 224262.4000
    157    158   1      0.1229 476976.0000
    157    159   1      0.1364 376560.0000
    159    163   1      0.0945 462750.4000
    164    165   1      0.1529 224262.4000
    164    169   1      0.1090 284512.0000
    164    170   1      0.1090 284512.0000
    165    166   1      0.1522 265265.6000
    165    171   1      0.1090 284512.0000
    165    173   1      0.1529 224262.4000
    166    167   1      0.1229 476976.0000
    166    168   1      0.1364 376560.0000
    168    172   1      0.0945 462750.4000
    173    174   1      0.1529 224262.4000
    173    178   1      0.1090 284512.0000
    173    179   1      0.1090 284512.0000
    174    175   1      0.1522 265265.6000
    174    180   1      0.1090 284512.0000
    174    182   1      0.1090 284512.0000
    175    176   1      0.1229 476976.0000
    175    177   1      0.1364 376560.0000
    177    181   1      0.0945 462750.4000

[ pairs ]
; ai   aj   funct   fudge_QQ  charge_i   charge_j   c6    c12
      6      3   2   0.50000     0.0600000    0.5200000   3.869820e-04  3.188634e-07
      6      8   2   0.50000     0.0600000    0.0600000   6.128906e-05  1.496315e-08
      6     11   2   0.50000     0.0600000   -0.1200000   2.494471e-04  1.671101e-07
      7      3   2   0.50000     0.0600000    0.5200000   3.869820e-04  3.188634e-07
      7      8   2   0.50000     0.0600000    0.0600000   6.128906e-05  1.496315e-08
      7     11   2   0.50000     0.0600000   -0.1200000   2.494471e-04  1.671101e-07
     10      3   2   0.50000     0.0600000    0.5200000   3.869820e-04  3.188634e-07
     10      8   2   0.50000     0.0600000    0.0600000   6.128906e-05  1.496315e-08
     10     11   2   0.50000     0.0600000   -0.1200000   2.494471e-04  1.671101e-07
      1      4   2   0.50000    -0.1800000   -0.4400000   1.095425e-03  1.218041e-06
      1      5   2   0.50000    -0.1800000   -0.5300000   1.026091e-03  1.187829e-06
      8      4   2   0.50000     0.0600000   -0.4400000   2.691455e-04  1.090642e-07
      8      5   2   0.50000     0.0600000   -0.5300000   2.521103e-04  1.063590e-07
     11      4   2   0.50000    -0.1200000   -0.4400000   1.095425e-03  1.218041e-06
     11      5   2   0.50000    -0.1200000   -0.5300000   1.026091e-03  1.187829e-06
      1     12   2   0.50000    -0.1800000   -0.0600000   1.015252e-03  1.866303e-06
      1     16   2   0.50000    -0.1800000    0.0600000   2.494471e-04  1.671101e-07
      1     17   2   0.50000    -0.1800000    0.0600000   2.494471e-04  1.671101e-07
      3     12   2   0.50000     0.5200000   -0.0600000   1.575021e-03  3.561100e-06
      3     16   2   0.50000     0.5200000    0.0600000   3.869820e-04  3.188634e-07
      3     17   2   0.50000     0.5200000    0.0600000   3.869820e-04  3.188634e-07
      8     12   2   0.50000     0.0600000   -0.0600000   2.494471e-04  1.671101e-07
      8     16   2   0.50000     0.0600000    0.0600000   6.128906e-05  1.496315e-08
      8     17   2   0.50000     0.0600000    0.0600000   6.128906e-05  1.496315e-08
      2      9   2   0.50000    -0.0600000    0.4500000   1.995577e-06  1.069504e-11
      4      9   2   0.50000    -0.4400000    0.4500000   2.153164e-06  6.980110e-12
      2     13   2   0.50000    -0.0600000    0.5200000   1.575021e-03  3.561100e-06
      2     18   2   0.50000    -0.0600000    0.0600000   2.494471e-04  1.671101e-07
      2     20   2   0.50000    -0.0600000   -0.1200000   1.015252e-03  1.866303e-06
     16     13   2   0.50000     0.0600000    0.5200000   3.869820e-04  3.188634e-07
     16     18   2   0.50000     0.0600000    0.0600000   6.128906e-05  1.496315e-08
     16     20   2   0.50000     0.0600000   -0.1200000   2.494471e-04  1.671101e-07
     17     13   2   0.50000     0.0600000    0.5200000   3.869820e-04  3.188634e-07
     17     18   2   0.50000     0.0600000    0.0600000   6.128906e-05  1.496315e-08
     17     20   2   0.50000     0.0600000   -0.1200000   2.494471e-04  1.671101e-07
     11     14   2   0.50000    -0.1200000   -0.4400000   1.095425e-03  1.218041e-06
     11     15   2   0.50000    -0.1200000   -0.5300000   1.026091e-03  1.187829e-06
     18     14   2   0.50000     0.0600000   -0.4400000   2.691455e-04  1.090642e-07
     18     15   2   0.50000     0.0600000   -0.5300000   2.521103e-04  1.063590e-07
     20     14   2   0.50000    -0.1200000   -0.4400000   1.095425e-03  1.218041e-06
     20     15   2   0.50000    -0.1200000   -0.5300000   1.026091e-03  1.187829e-06
     11     21   2   0.50000    -0.1200000   -0.0600000   1.015252e-03  1.866303e-06
     11     25   2   0.50000    -0.1200000    0.0600000   2.494471e-04  1.671101e-07
     11     26   2   0.50000    -0.1200000    0.0600000   2.494471e-04  1.671101e-07
     13     21   2   0.50000     0.5200000   -0.0600000   1.575021e-03  3.561100e-06
     13     25   2   0.50000     0.5200000    0.0600000   3.869820e-04  3.188634e-07
     13     26   2   0.50000     0.5200000    0.0600000   3.869820e-04  3.188634e-07
     18     21   2   0.50000     0.0600000   -0.0600000   2.494471e-04  1.671101e-07
     18     25   2   0.50000     0.0600000    0.0600000   6.128906e-05  1.496315e-08
     18     26   2   0.50000     0.0600000    0.0600000   6.128906e-05  1.496315e-08
     12     19   2   0.50000    -0.0600000    0.4500000   1.995577e-06  1.069504e-11
     14     19   2   0.50000    -0.4400000    0.4500000   2.153164e-06  6.980110e-12
     12     22   2   0.50000    -0.0600000    0.5200000   1.575021e-03  3.561100e-06
     12     27   2   0.50000    -0.0600000    0.0600000   2.494471e-04  1.671101e-07
     12     29   2   0.50000    -0.0600000   -0.1200000   1.015252e-03  1.866303e-06
     25     22   2   0.50000     0.0600000    0.5200000   3.869820e-04  3.188634e-07
     25     27   2   0.50000     0.0600000    0.0600000   6.128906e-05  1.496315e-08
     25     29   2   0.50000     0.0600000   -0.1200000   2.494471e-04  1.671101e-07
     26     22   2   0.50000     0.0600000    0.5200000   3.869820e-04  3.188634e-07
     26     27   2   0.50000     0.0600000    0.0600000   6.128906e-05  1.496315e-08
     26     29   2   0.50000     0.0600000   -0.1200000   2.494471e-04  1.671101e-07
     20     23   2   0.50000    -0.1200000   -0.4400000   1.095425e-03  1.218041e-06
     20     24   2   0.50000    -0.1200000   -0.5300000   1.026091e-03  1.187829e-06
     27     23   2   0.50000     0.0600000   -0.4400000   2.691455e-04  1.090642e-07
     27     24   2   0.50000     0.0600000   -0.5300000   2.521103e-04  1.063590e-07
     29     23   2   0.50000    -0.1200000   -0.4400000   1.095425e-03  1.218041e-06
     29     24   2   0.50000    -0.1200000   -0.5300000   1.026091e-03  1.187829e-06
     20     30   2   0.50000    -0.1200000   -0.0600000   1.015252e-03  1.866303e-06
     20     34   2   0.50000    -0.1200000    0.0600000   2.494471e-04  1.671101e-07
     20     35   2   0.50000    -0.1200000    0.0600000   2.494471e-04  1.671101e-07
     22     30   2   0.50000     0.5200000   -0.0600000   1.575021e-03  3.561100e-06
     22     34   2   0.50000     0.5200000    0.0600000   3.869820e-04  3.188634e-07
     22     35   2   0.50000     0.5200000    0.0600000   3.869820e-04  3.188634e-07
     27     30   2   0.50000     0.0600000   -0.0600000   2.494471e-04  1.671101e-07
     27     34   2   0.50000     0.0600000    0.0600000   6.128906e-05  1.496315e-08
     27     35   2   0.50000     0.0600000    0.0600000   6.128906e-05  1.496315e-08
     21     28   2   0.50000    -0.0600000    0.4500000   1.995577e-06  1.069504e-11
     23     28   2   0.50000    -0.4400000    0.4500000   2.153164e-06  6.980110e-12
     21     31   2   0.50000    -0.0600000    0.5200000   1.575021e-03  3.561100e-06
     21     36   2   0.50000    -0.0600000    0.0600000   2.494471e-04  1.671101e-07
     21     38   2   0.50000    -0.0600000   -0.1200000   1.015252e-03  1.866303e-06
     34     31   2   0.50000     0.0600000    0.5200000   3.869820e-04  3.188634e-07
     34     36   2   0.50000     0.0600000    0.0600000   6.128906e-05  1.496315e-08
     34     38   2   0.50000     0.0600000   -0.1200000   2.494471e-04  1.671101e-07
     35     31   2   0.50000     0.0600000    0.5200000   3.869820e-04  3.188634e-07
     35     36   2   0.50000     0.0600000    0.0600000   6.128906e-05  1.496315e-08
     35     38   2   0.50000     0.0600000   -0.1200000   2.494471e-04  1.671101e-07
     29     32   2   0.50000    -0.1200000   -0.4400000   1.095425e-03  1.218041e-06
     29     33   2   0.50000    -0.1200000   -0.5300000   1.026091e-03  1.187829e-06
     36     32   2   0.50000     0.0600000   -0.4400000   2.691455e-04  1.090642e-07
     36     33   2   0.50000     0.0600000   -0.5300000   2.521103e-04  1.063590e-07
     38     32   2   0.50000    -0.1200000   -0.4400000   1.095425e-03  1.218041e-06
     38     33   2   0.50000    -0.1200000   -0.5300000   1.026091e-03  1.187829e-06
     29     39   2   0.50000    -0.1200000   -0.0600000   1.015252e-03  1.866303e-06
     29     43   2   0.50000    -0.1200000    0.0600000   2.494471e-04  1.671101e-07
     29     44   2   0.50000    -0.1200000    0.0600000   2.494471e-04  1.671101e-07
     31     39   2   0.50000     0.5200000   -0.0600000   1.575021e-03  3.561100e-06
     31     43   2   0.50000     0.5200000    0.0600000   3.869820e-04  3.188634e-07
     31     44   2   0.50000     0.5200000    0.0600000   3.869820e-04  3.188634e-07
     36     39   2   0.50000     0.0600000   -0.0600000   2.494471e-04  1.671101e-07
     36     43   2   0.50000     0.0600000    0.0600000   6.128906e-05  1.496315e-08
     36     44   2   0.50000     0.0600000    0.0600000   6.128906e-05  1.496315e-08
     30     37   2   0.50000    -0.0600000    0.4500000   1.995577e-06  1.069504e-11
     32     37   2   0.50000    -0.4400000    0.4500000   2.153164e-06  6.980110e-12
     30     40   2   0.50000    -0.0600000    0.5200000   1.575021e-03  3.561100e-06
     30     45   2   0.50000    -0.0600000    0.0600000   2.494471e-04  1.671101e-07
     30     47   2   0.50000    -0.0600000   -0.1200000   1.015252e-03  1.866303e-06
     43     40   2   0.50000     0.0600000    0.5200000   3.869820e-04  3.188634e-07
     43     45   2   0.50000     0.0600000    0.0600000   6.128906e-05  1.496315e-08
     43     47   2   0.50000     0.0600000   -0.1200000   2.494471e-04  1.671101e-07
     44     40   2   0.50000     0.0600000    0.5200000   3.869820e-04  3.188634e-07
     44     45   2   0.50000     0.0600000    0.0600000   6.128906e-05  1.496315e-08
     44     47   2   0.50000     0.0600000   -0.1200000   2.494471e-04  1.671101e-07
     38     41   2   0.50000    -0.1200000   -0.4400000   1.095425e-03  1.218041e-06
     38     42   2   0.50000    -0.1200000   -0.5300000   1.026091e-03  1.187829e-06
     45     41   2   0.50000     0.0600000   -0.4400000   2.691455e-04  1.090642e-07
     45     42   2   0.50000     0.0600000   -0.5300000   2.521103e-04  1.063590e-07
     47     41   2   0.50000    -0.1200000   -0.4400000   1.095425e-03  1.218041e-06
     47     42   2   0.50000    -0.1200000   -0.5300000   1.026091e-03  1.187829e-06
     38     48   2   0.50000    -0.1200000   -0.0600000   1.015252e-03  1.866303e-06
     38     52   2   0.50000    -0.1200000    0.0600000   2.494471e-04  1.671101e-07
     38     53   2   0.50000    -0.1200000    0.0600000   2.494471e-04  1.671101e-07
     40     48   2   0.50000     0.5200000   -0.0600000   1.575021e-03  3.561100e-06
     40     52   2   0.50000     0.5200000    0.0600000   3.869820e-04  3.188634e-07
     40     53   2   0.50000     0.5200000    0.0600000   3.869820e-04  3.188634e-07
     45     48   2   0.50000     0.0600000   -0.0600000   2.494471e-04  1.671101e-07
     45     52   2   0.50000     0.0600000    0.0600000   6.128906e-05  1.496315e-08
     45     53   2   0.50000     0.0600000    0.0600000   6.128906e-05  1.496315e-08
     39     46   2   0.50000    -0.0600000    0.4500000   1.995577e-06  1.069504e-11
     41     46   2   0.50000    -0.4400000    0.4500000   2.153164e-06  6.980110e-12
     39     49   2   0.50000    -0.0600000    0.5200000   1.575021e-03  3.561100e-06
     39     54   2   0.50000    -0.0600000    0.0600000   2.494471e-04  1.671101e-07
     39     56   2   0.50000    -0.0600000   -0.1200000   1.015252e-03  1.866303e-06
     52     49   2   0.50000     0.0600000    0.5200000   3.869820e-04  3.188634e-07
     52     54   2   0.50000     0.0600000    0.0600000   6.128906e-05  1.496315e-08
     52     56   2   0.50000     0.0600000   -0.1200000   2.494471e-04  1.671101e-07
     53     49   2   0.50000     0.0600000    0.5200000   3.869820e-04  3.188634e-07
     53     54   2   0.50000     0.0600000    0.0600000   6.128906e-05  1.496315e-08
     53     56   2   0.50000     0.0600000   -0.1200000   2.494471e-04  1.671101e-07
     47     50   2   0.50000    -0.1200000   -0.4400000   1.095425e-03  1.218041e-06
     47     51   2   0.50000    -0.1200000   -0.5300000   1.026091e-03  1.187829e-06
     54     50   2   0.50000     0.0600000   -0.4400000   2.691455e-04  1.090642e-07
     54     51   2   0.50000     0.0600000   -0.5300000   2.521103e-04  1.063590e-07
     56     50   2   0.50000    -0.1200000   -0.4400000   1.095425e-03  1.218041e-06
     56     51   2   0.50000    -0.1200000   -0.5300000   1.026091e-03  1.187829e-06
     47     57   2   0.50000    -0.1200000   -0.0600000   1.015252e-03  1.866303e-06
     47     61   2   0.50000    -0.1200000    0.0600000   2.494471e-04  1.671101e-07
     47     62   2   0.50000    -0.1200000    0.0600000   2.494471e-04  1.671101e-07
     49     57   2   0.50000     0.5200000   -0.0600000   1.575021e-03  3.561100e-06
     49     61   2   0.50000     0.5200000    0.0600000   3.869820e-04  3.188634e-07
     49     62   2   0.50000     0.5200000    0.0600000   3.869820e-04  3.188634e-07
     54     57   2   0.50000     0.0600000   -0.0600000   2.494471e-04  1.671101e-07
     54     61   2   0.50000     0.0600000    0.0600000   6.128906e-05  1.496315e-08
     54     62   2   0.50000     0.0600000    0.0600000   6.128906e-05  1.496315e-08
     48     55   2   0.50000    -0.0600000    0.4500000   1.995577e-06  1.069504e-11
     50     55   2   0.50000    -0.4400000    0.4500000   2.153164e-06  6.980110e-12
     48     58   2   0.50000    -0.0600000    0.5200000   1.575021e-03  3.561100e-06
     48     63   2   0.50000    -0.0600000    0.0600000   2.494471e-04  1.671101e-07
     48     65   2   0.50000    -0.0600000   -0.1200000   1.015252e-03  1.866303e-06
     61     58   2   0.50000     0.0600000    0.5200000   3.869820e-04  3.188634e-07
     61     63   2   0.50000     0.0600000    0.0600000   6.128906e-05  1.496315e-08
     61     65   2   0.50000     0.0600000   -0.1200000   2.494471e-04  1.671101e-07
     62     58   2   0.50000     0.0600000    0.5200000   3.869820e-04  3.188634e-07
     62     63   2   0.50000     0.0600000    0.0600000   6.128906e-05  1.496315e-08
     62     65   2   0.50000     0.0600000   -0.1200000   2.494471e-04  1.671101e-07
     56     59   2   0.50000    -0.1200000   -0.4400000   1.095425e-03  1.218041e-06
     56     60   2   0.50000    -0.1200000   -0.5300000   1.026091e-03  1.187829e-06
     63     59   2   0.50000     0.0600000   -0.4400000   2.691455e-04  1.090642e-07
     63     60   2   0.50000     0.0600000   -0.5300000   2.521103e-04  1.063590e-07
     65     59   2   0.50000    -0.1200000   -0.4400000   1.095425e-03  1.218041e-06
     65     60   2   0.50000    -0.1200000   -0.5300000   1.026091e-03  1.187829e-06
     56     66   2   0.50000    -0.1200000   -0.0600000   1.015252e-03  1.866303e-06
     56     70   2   0.50000    -0.1200000    0.0600000   2.494471e-04  1.671101e-07
     56     71   2   0.50000    -0.1200000    0.0600000   2.494471e-04  1.671101e-07
     58     66   2   0.50000     0.5200000   -0.0600000   1.575021e-03  3.561100e-06
     58     70   2   0.50000     0.5200000    0.0600000   3.869820e-04  3.188634e-07
     58     71   2   0.50000     0.5200000    0.0600000   3.869820e-04  3.188634e-07
     63     66   2   0.50000     0.0600000   -0.0600000   2.494471e-04  1.671101e-07
     63     70   2   0.50000     0.0600000    0.0600000   6.128906e-05  1.496315e-08
     63     71   2   0.50000     0.0600000    0.0600000   6.128906e-05  1.496315e-08
     57     64   2   0.50000    -0.0600000    0.4500000   1.995577e-06  1.069504e-11
     59     64   2   0.50000    -0.4400000    0.4500000   2.153164e-06  6.980110e-12
     57     67   2   0.50000    -0.0600000    0.5200000   1.575021e-03  3.561100e-06
     57     72   2   0.50000    -0.0600000    0.0600000   2.494471e-04  1.671101e-07
     57     74   2   0.50000    -0.0600000   -0.1200000   1.015252e-03  1.866303e-06
     70     67   2   0.50000     0.0600000    0.5200000   3.869820e-04  3.188634e-07
     70     72   2   0.50000     0.0600000    0.0600000   6.128906e-05  1.496315e-08
     70     74   2   0.50000     0.0600000   -0.1200000   2.494471e-04  1.671101e-07
     71     67   2   0.50000     0.0600000    0.5200000   3.869820e-04  3.188634e-07
     71     72   2   0.50000     0.0600000    0.0600000   6.128906e-05  1.496315e-08
     71     74   2   0.50000     0.0600000   -0.1200000   2.494471e-04  1.671101e-07
     65     68   2   0.50000    -0.1200000   -0.4400000   1.095425e-03  1.218041e-06
     65     69   2   0.50000    -0.1200000   -0.5300000   1.026091e-03  1.187829e-06
     72     68   2   0.50000     0.0600000   -0.4400000   2.691455e-04  1.090642e-07
     72     69   2   0.50000     0.0600000   -0.5300000   2.521103e-04  1.063590e-07
     74     68   2   0.50000    -0.1200000   -0.4400000   1.095425e-03  1.218041e-06
     74     69   2   0.50000    -0.1200000   -0.5300000   1.026091e-03  1.187829e-06
     65     75   2   0.50000    -0.1200000   -0.0600000   1.015252e-03  1.866303e-06
     65     79   2   0.50000    -0.1200000    0.0600000   2.494471e-04  1.671101e-07
     65     80   2   0.50000    -0.1200000    0.0600000   2.494471e-04  1.671101e-07
     67     75   2   0.50000     0.5200000   -0.0600000   1.575021e-03  3.561100e-06
     67     79   2   0.50000     0.5200000    0.0600000   3.869820e-04  3.188634e-07
     67     80   2   0.50000     0.5200000    0.0600000   3.869820e-04  3.188634e-07
     72     75   2   0.50000     0.0600000   -0.0600000   2.494471e-04  1.671101e-07
     72     79   2   0.50000     0.0600000    0.0600000   6.128906e-05  1.496315e-08
     72     80   2   0.50000     0.0600000    0.0600000   6.128906e-05  1.496315e-08
     66     73   2   0.50000    -0.0600000    0.4500000   1.995577e-06  1.069504e-11
     68     73   2   0.50000    -0.4400000    0.4500000   2.153164e-06  6.980110e-12
     66     76   2   0.50000    -0.0600000    0.5200000   1.575021e-03  3.561100e-06
     66     81   2   0.50000    -0.0600000    0.0600000   2.494471e-04  1.671101e-07
     66     83   2   0.50000    -0.0600000   -0.1200000   1.015252e-03  1.866303e-06
     79     76   2   0.50000     0.0600000    0.5200000   3.869820e-04  3.188634e-07
     79     81   2   0.50000     0.0600000    0.0600000   6.128906e-05  1.496315e-08
     79     83   2   0.50000     0.0600000   -0.1200000   2.494471e-04  1.671101e-07
     80     76   2   0.50000     0.0600000    0.5200000   3.869820e-04  3.188634e-07
     80     81   2   0.50000     0.0600000    0.0600000   6.128906e-05  1.496315e-08
     80     83   2   0.50000     0.0600000   -0.1200000   2.494471e-04  1.671101e-07
     74     77   2   0.50000    -0.1200000   -0.4400000   1.095425e-03  1.218041e-06
     74     78   2   0.50000    -0.1200000   -0.5300000   1.026091e-03  1.187829e-06
     81     77   2   0.50000     0.0600000   -0.4400000   2.691455e-04  1.090642e-07
     81     78   2   0.50000     0.0600000   -0.5300000   2.521103e-04  1.063590e-07
     83     77   2   0.50000    -0.1200000   -0.4400000   1.095425e-03  1.218041e-06
     83     78   2   0.50000    -0.1200000   -0.5300000   1.026091e-03  1.187829e-06
     74     84   2   0.50000    -0.1200000   -0.0600000   1.015252e-03  1.866303e-06
     74     88   2   0.50000    -0.1200000    0.0600000   2.494471e-04  1.671101e-07
     74     89   2   0.50000    -0.1200000    0.0600000   2.494471e-04  1.671101e-07
     76     84   2   0.50000     0.5200000   -0.0600000   1.575021e-03  3.561100e-06
     76     88   2   0.50000     0.5200000    0.0600000   3.869820e-04  3.188634e-07
     76     89   2   0.50000     0.5200000    0.0600000   3.869820e-04  3.188634e-07
     81     84   2   0.50000     0.0600000   -0.0600000   2.494471e-04  1.671101e-07
     81     88   2   0.50000     0.0600000    0.0600000   6.128906e-05  1.496315e-08
     81     89   2   0.50000     0.0600000    0.0600000   6.128906e-05  1.496315e-08
     75     82   2   0.50000    -0.0600000    0.4500000   1.995577e-06  1.069504e-11
     77     82   2   0.50000    -0.4400000    0.4500000   2.153164e-06  6.980110e-12
     75     85   2   0.50000    -0.0600000    0.5200000   1.575021e-03  3.561100e-06
     75     90   2   0.50000    -0.0600000    0.0600000   2.494471e-04  1.671101e-07
     75     92   2   0.50000    -0.0600000   -0.1200000   1.015252e-03  1.866303e-06
     88     85   2   0.50000     0.0600000    0.5200000   3.869820e-04  3.188634e-07
     88     90   2   0.50000     0.0600000    0.0600000   6.128906e-05  1.496315e-08
     88     92   2   0.50000     0.0600000   -0.1200000   2.494471e-04  1.671101e-07
     89     85   2   0.50000     0.0600000    0.5200000   3.869820e-04  3.188634e-07
     89     90   2   0.50000     0.0600000    0.0600000   6.128906e-05  1.496315e-08
     89     92   2   0.50000     0.0600000   -0.1200000   2.494471e-04  1.671101e-07
     83     86   2   0.50000    -0.1200000   -0.4400000   1.095425e-03  1.218041e-06
     83     87   2   0.50000    -0.1200000   -0.5300000   1.026091e-03  1.187829e-06
     90     86   2   0.50000     0.0600000   -0.4400000   2.691455e-04  1.090642e-07
     90     87   2   0.50000     0.0600000   -0.5300000   2.521103e-04  1.063590e-07
     92     86   2   0.50000    -0.1200000   -0.4400000   1.095425e-03  1.218041e-06
     92     87   2   0.50000    -0.1200000   -0.5300000   1.026091e-03  1.187829e-06
     83     93   2   0.50000    -0.1200000   -0.0600000   1.015252e-03  1.866303e-06
     83     97   2   0.50000    -0.1200000    0.0600000   2.494471e-04  1.671101e-07
     83     98   2   0.50000    -0.1200000    0.0600000   2.494471e-04  1.671101e-07
     85     93   2   0.50000     0.5200000   -0.0600000   1.575021e-03  3.561100e-06
     85     97   2   0.50000     0.5200000    0.0600000   3.869820e-04  3.188634e-07
     85     98   2   0.50000     0.5200000    0.0600000   3.869820e-04  3.188634e-07
     90     93   2   0.50000     0.0600000   -0.0600000   2.494471e-04  1.671101e-07
     90     97   2   0.50000     0.0600000    0.0600000   6.128906e-05  1.496315e-08
     90     98   2   0.50000     0.0600000    0.0600000   6.128906e-05  1.496315e-08
     84     91   2   0.50000    -0.0600000    0.4500000   1.995577e-06  1.069504e-11
     86     91   2   0.50000    -0.4400000    0.4500000   2.153164e-06  6.980110e-12
     84     94   2   0.50000    -0.0600000    0.5200000   1.575021e-03  3.561100e-06
     84     99   2   0.50000    -0.0600000    0.0600000   2.494471e-04  1.671101e-07
     84    101   2   0.50000    -0.0600000   -0.1200000   1.015252e-03  1.866303e-06
     97     94   2   0.50000     0.0600000    0.5200000   3.869820e-04  3.188634e-07
     97     99   2   0.50000     0.0600000    0.0600000   6.128906e-05  1.496315e-08
     97    101   2   0.50000     0.0600000   -0.1200000   2.494471e-04  1.671101e-07
     98     94   2   0.50000     0.0600000    0.5200000   3.869820e-04  3.188634e-07
     98     99   2   0.50000     0.0600000    0.0600000   6.128906e-05  1.496315e-08
     98    101   2   0.50000     0.0600000   -0.1200000   2.494471e-04  1.671101e-07
     92     95   2   0.50000    -0.1200000   -0.4400000   1.095425e-03  1.218041e-06
     92     96   2   0.50000    -0.1200000   -0.5300000   1.026091e-03  1.187829e-06
     99     95   2   0.50000     0.0600000   -0.4400000   2.691455e-04  1.090642e-07
     99     96   2   0.50000     0.0600000   -0.5300000   2.521103e-04  1.063590e-07
    101     95   2   0.50000    -0.1200000   -0.4400000   1.095425e-03  1.218041e-06
    101     96   2   0.50000    -0.1200000   -0.5300000   1.026091e-03  1.187829e-06
     92    102   2   0.50000    -0.1200000   -0.0600000   1.015252e-03  1.866303e-06
     92    106   2   0.50000    -0.1200000    0.0600000   2.494471e-04  1.671101e-07
     92    107   2   0.50000    -0.1200000    0.0600000   2.494471e-04  1.671101e-07
     94    102   2   0.50000     0.5200000   -0.0600000   1.575021e-03  3.561100e-06
     94    106   2   0.50000     0.5200000    0.0600000   3.869820e-04  3.188634e-07
     94    107   2   0.50000     0.5200000    0.0600000   3.869820e-04  3.188634e-07
     99    102   2   0.50000     0.0600000   -0.0600000   2.494471e-04  1.671101e-07
     99    106   2   0.50000     0.0600000    0.0600000   6.128906e-05  1.496315e-08
     99    107   2   0.50000     0.0600000    0.0600000   6.128906e-05  1.496315e-08
     93    100   2   0.50000    -0.0600000    0.4500000   1.995577e-06  1.069504e-11
     95    100   2   0.50000    -0.4400000    0.4500000   2.153164e-06  6.980110e-12
     93    103   2   0.50000    -0.0600000    0.5200000   1.575021e-03  3.561100e-06
     93    108   2   0.50000    -0.0600000    0.0600000   2.494471e-04  1.671101e-07
     93    110   2   0.50000    -0.0600000   -0.1200000   1.015252e-03  1.866303e-06
    106    103   2   0.50000     0.0600000    0.5200000   3.869820e-04  3.188634e-07
    106    108   2   0.50000     0.0600000    0.0600000   6.128906e-05  1.496315e-08
    106    110   2   0.50000     0.0600000   -0.1200000   2.494471e-04  1.671101e-07
    107    103   2   0.50000     0.0600000    0.5200000   3.869820e-04  3.188634e-07
    107    108   2   0.50000     0.0600000    0.0600000   6.128906e-05  1.496315e-08
    107    110   2   0.50000     0.0600000   -0.1200000   2.494471e-04  1.671101e-07
    101    104   2   0.50000    -0.1200000   -0.4400000   1.095425e-03  1.218041e-06
    101    105   2   0.50000    -0.1200000   -0.5300000   1.026091e-03  1.187829e-06
    108    104   2   0.50000     0.0600000   -0.4400000   2.691455e-04  1.090642e-07
    108    105   2   0.50000     0.0600000   -0.5300000   2.521103e-04  1.063590e-07
    110    104   2   0.50000    -0.1200000   -0.4400000   1.095425e-03  1.218041e-06
    110    105   2   0.50000    -0.1200000   -0.5300000   1.026091e-03  1.187829e-06
    101    111   2   0.50000    -0.1200000   -0.0600000   1.015252e-03  1.866303e-06
    101    115   2   0.50000    -0.1200000    0.0600000   2.494471e-04  1.671101e-07
    101    116   2   0.50000    -0.1200000    0.0600000   2.494471e-04  1.671101e-07
    103    111   2   0.50000     0.5200000   -0.0600000   1.575021e-03  3.561100e-06
    103    115   2   0.50000     0.5200000    0.0600000   3.869820e-04  3.188634e-07
    103    116   2   0.50000     0.5200000    0.0600000   3.869820e-04  3.188634e-07
    108    111   2   0.50000     0.0600000   -0.0600000   2.494471e-04  1.671101e-07
    108    115   2   0.50000     0.0600000    0.0600000   6.128906e-05  1.496315e-08
    108    116   2   0.50000     0.0600000    0.0600000   6.128906e-05  1.496315e-08
    102    109   2   0.50000    -0.0600000    0.4500000   1.995577e-06  1.069504e-11
    104    109   2   0.50000    -0.4400000    0.4500000   2.153164e-06  6.980110e-12
    102    112   2   0.50000    -0.0600000    0.5200000   1.575021e-03  3.561100e-06
    102    117   2   0.50000    -0.0600000    0.0600000   2.494471e-04  1.671101e-07
    102    119   2   0.50000    -0.0600000   -0.1200000   1.015252e-03  1.866303e-06
    115    112   2   0.50000     0.0600000    0.5200000   3.869820e-04  3.188634e-07
    115    117   2   0.50000     0.0600000    0.0600000   6.128906e-05  1.496315e-08
    115    119   2   0.50000     0.0600000   -0.1200000   2.494471e-04  1.671101e-07
    116    112   2   0.50000     0.0600000    0.5200000   3.869820e-04  3.188634e-07
    116    117   2   0.50000     0.0600000    0.0600000   6.128906e-05  1.496315e-08
    116    119   2   0.50000     0.0600000   -0.1200000   2.494471e-04  1.671101e-07
    110    113   2   0.50000    -0.1200000   -0.4400000   1.095425e-03  1.218041e-06
    110    114   2   0.50000    -0.1200000   -0.5300000   1.026091e-03  1.187829e-06
    117    113   2   0.50000     0.0600000   -0.4400000   2.691455e-04  1.090642e-07
    117    114   2   0.50000     0.0600000   -0.5300000   2.521103e-04  1.063590e-07
    119    113   2   0.50000    -0.1200000   -0.4400000   1.095425e-03  1.218041e-06
    119    114   2   0.50000    -0.1200000   -0.5300000   1.026091e-03  1.187829e-06
    110    120   2   0.50000    -0.1200000   -0.0600000   1.015252e-03  1.866303e-06
    110    124   2   0.50000    -0.1200000    0.0600000   2.494471e-04  1.671101e-07
    110    125   2   0.50000    -0.1200000    0.0600000   2.494471e-04  1.671101e-07
    112    120   2   0.50000     0.5200000   -0.0600000   1.575021e-03  3.561100e-06
    112    124   2   0.50000     0.5200000    0.0600000   3.869820e-04  3.188634e-07
    112    125   2   0.50000     0.5200000    0.0600000   3.869820e-04  3.188634e-07
    117    120   2   0.50000     0.0600000   -0.0600000   2.494471e-04  1.671101e-07
    117    124   2   0.50000     0.0600000    0.0600000   6.128906e-05  1.496315e-08
    117    125   2   0.50000     0.0600000    0.0600000   6.128906e-05  1.496315e-08
    111    118   2   0.50000    -0.0600000    0.4500000   1.995577e-06  1.069504e-11
    113    118   2   0.50000    -0.4400000    0.4500000   2.153164e-06  6.980110e-12
    111    121   2   0.50000    -0.0600000    0.5200000   1.575021e-03  3.561100e-06
    111    126   2   0.50000    -0.0600000    0.0600000   2.494471e-04  1.671101e-07
    111    128   2   0.50000    -0.0600000   -0.1200000   1.015252e-03  1.866303e-06
    124    121   2   0.50000     0.0600000    0.5200000   3.869820e-04  3.188634e-07
    124    126   2   0.50000     0.0600000    0.0600000   6.128906e-05  1.496315e-08
    124    128   2   0.50000     0.0600000   -0.1200000   2.494471e-04  1.671101e-07
    125    121   2   0.50000     0.0600000    0.5200000   3.869820e-04  3.188634e-07
    125    126   2   0.50000     0.0600000    0.0600000   6.128906e-05  1.496315e-08
    125    128   2   0.50000     0.0600000   -0.1200000   2.494471e-04  1.671101e-07
    119    122   2   0.50000    -0.1200000   -0.4400000   1.095425e-03  1.218041e-06
    119    123   2   0.50000    -0.1200000   -0.5300000   1.026091e-03  1.187829e-06
    126    122   2   0.50000     0.0600000   -0.4400000   2.691455e-04  1.090642e-07
    126    123   2   0.50000     0.0600000   -0.5300000   2.521103e-04  1.063590e-07
    128    122   2   0.50000    -0.1200000   -0.4400000   1.095425e-03  1.218041e-06
    128    123   2   0.50000    -0.1200000   -0.5300000   1.026091e-03  1.187829e-06
    119    129   2   0.50000    -0.1200000   -0.0600000   1.015252e-03  1.866303e-06
    119    133   2   0.50000    -0.1200000    0.0600000   2.494471e-04  1.671101e-07
    119    134   2   0.50000    -0.1200000    0.0600000   2.494471e-04  1.671101e-07
    121    129   2   0.50000     0.5200000   -0.0600000   1.575021e-03  3.561100e-06
    121    133   2   0.50000     0.5200000    0.0600000   3.869820e-04  3.188634e-07
    121    134   2   0.50000     0.5200000    0.0600000   3.869820e-04  3.188634e-07
    126    129   2   0.50000     0.0600000   -0.0600000   2.494471e-04  1.671101e-07
    126    133   2   0.50000     0.0600000    0.0600000   6.128906e-05  1.496315e-08
    126    134   2   0.50000     0.0600000    0.0600000   6.128906e-05  1.496315e-08
    120    127   2   0.50000    -0.0600000    0.4500000   1.995577e-06  1.069504e-11
    122    127   2   0.50000    -0.4400000    0.4500000   2.153164e-06  6.980110e-12
    120    130   2   0.50000    -0.0600000    0.5200000   1.575021e-03  3.561100e-06
    120    135   2   0.50000    -0.0600000    0.0600000   2.494471e-04  1.671101e-07
    120    137   2   0.50000    -0.0600000   -0.1200000   1.015252e-03  1.866303e-06
    133    130   2   0.50000     0.0600000    0.5200000   3.869820e-04  3.188634e-07
    133    135   2   0.50000     0.0600000    0.0600000   6.128906e-05  1.496315e-08
    133    137   2   0.50000     0.0600000   -0.1200000   2.494471e-04  1.671101e-07
    134    130   2   0.50000     0.0600000    0.5200000   3.869820e-04  3.188634e-07
    134    135   2   0.50000     0.0600000    0.0600000   6.128906e-05  1.496315e-08
    134    137   2   0.50000     0.0600000   -0.1200000   2.494471e-04  1.671101e-07
    128    131   2   0.50000    -0.1200000   -0.4400000   1.095425e-03  1.218041e-06
    128    132   2   0.50000    -0.1200000   -0.5300000   1.026091e-03  1.187829e-06
    135    131   2   0.50000     0.0600000   -0.4400000   2.691455e-04  1.090642e-07
    135    132   2   0.50000     0.0600000   -0.5300000   2.521103e-04  1.063590e-07
    137    131   2   0.50000    -0.1200000   -0.4400000   1.095425e-03  1.218041e-06
    137    132   2   0.50000    -0.1200000   -0.5300000   1.026091e-03  1.187829e-06
    128    138   2   0.50000    -0.1200000   -0.0600000   1.015252e-03  1.866303e-06
    128    142   2   0.50000    -0.1200000    0.0600000   2.494471e-04  1.671101e-07
    128    143   2   0.50000    -0.1200000    0.0600000   2.494471e-04  1.671101e-07
    130    138   2   0.50000     0.5200000   -0.0600000   1.575021e-03  3.561100e-06
    130    142   2   0.50000     0.5200000    0.0600000   3.869820e-04  3.188634e-07
    130    143   2   0.50000     0.5200000    0.0600000   3.869820e-04  3.188634e-07
    135    138   2   0.50000     0.0600000   -0.0600000   2.494471e-04  1.671101e-07
    135    142   2   0.50000     0.0600000    0.0600000   6.128906e-05  1.496315e-08
    135    143   2   0.50000     0.0600000    0.0600000   6.128906e-05  1.496315e-08
    129    136   2   0.50000    -0.0600000    0.4500000   1.995577e-06  1.069504e-11
    131    136   2   0.50000    -0.4400000    0.4500000   2.153164e-06  6.980110e-12
    129    139   2   0.50000    -0.0600000    0.5200000   1.575021e-03  3.561100e-06
    129    144   2   0.50000    -0.0600000    0.0600000   2.494471e-04  1.671101e-07
    129    146   2   0.50000    -0.0600000   -0.1200000   1.015252e-03  1.866303e-06
    142    139   2   0.50000     0.0600000    0.5200000   3.869820e-04  3.188634e-07
    142    144   2   0.50000     0.0600000    0.0600000   6.128906e-05  1.496315e-08
    142    146   2   0.50000     0.0600000   -0.1200000   2.494471e-04  1.671101e-07
    143    139   2   0.50000     0.0600000    0.5200000   3.869820e-04  3.188634e-07
    143    144   2   0.50000     0.0600000    0.0600000   6.128906e-05  1.496315e-08
    143    146   2   0.50000     0.0600000   -0.1200000   2.494471e-04  1.671101e-07
    137    140   2   0.50000    -0.1200000   -0.4400000   1.095425e-03  1.218041e-06
    137    141   2   0.50000    -0.1200000   -0.5300000   1.026091e-03  1.187829e-06
    144    140   2   0.50000     0.0600000   -0.4400000   2.691455e-04  1.090642e-07
    144    141   2   0.50000     0.0600000   -0.5300000   2.521103e-04  1.063590e-07
    146    140   2   0.50000    -0.1200000   -0.4400000   1.095425e-03  1.218041e-06
    146    141   2   0.50000    -0.1200000   -0.5300000   1.026091e-03  1.187829e-06
    137    147   2   0.50000    -0.1200000   -0.0600000   1.015252e-03  1.866303e-06
    137    151   2   0.50000    -0.1200000    0.0600000   2.494471e-04  1.671101e-07
    137    152   2   0.50000    -0.1200000    0.0600000   2.494471e-04  1.671101e-07
    139    147   2   0.50000     0.5200000   -0.0600000   1.575021e-03  3.561100e-06
    139    151   2   0.50000     0.5200000    0.0600000   3.869820e-04  3.188634e-07
    139    152   2   0.50000     0.5200000    0.0600000   3.869820e-04  3.188634e-07
    144    147   2   0.50000     0.0600000   -0.0600000   2.494471e-04  1.671101e-07
    144    151   2   0.50000     0.0600000    0.0600000   6.128906e-05  1.496315e-08
    144    152   2   0.50000     0.0600000    0.0600000   6.128906e-05  1.496315e-08
    138    145   2   0.50000    -0.0600000    0.4500000   1.995577e-06  1.069504e-11
    140    145   2   0.50000    -0.4400000    0.4500000   2.153164e-06  6.980110e-12
    138    148   2   0.50000    -0.0600000    0.5200000   1.575021e-03  3.561100e-06
    138    153   2   0.50000    -0.0600000    0.0600000   2.494471e-04  1.671101e-07
    138    155   2   0.50000    -0.0600000   -0.1200000   1.015252e-03  1.866303e-06
    151    148   2   0.50000     0.0600000    0.5200000   3.869820e-04  3.188634e-07
    151    153   2   0.50000     0.0600000    0.0600000   6.128906e-05  1.496315e-08
    151    155   2   0.50000     0.0600000   -0.1200000   2.494471e-04  1.671101e-07
    152    148   2   0.50000     0.0600000    0.5200000   3.869820e-04  3.188634e-07
    152    153   2   0.50000     0.0600000    0.0600000   6.128906e-05  1.496315e-08
    152    155   2   0.50000     0.0600000   -0.1200000   2.494471e-04  1.671101e-07
    146    149   2   0.50000    -0.1200000   -0.4400000   1.095425e-03  1.218041e-06
    146    150   2   0.50000    -0.1200000   -0.5300000   1.026091e-03  1.187829e-06
    153    149   2   0.50000     0.0600000   -0.4400000   2.691455e-04  1.090642e-07
    153    150   2   0.50000     0.0600000   -0.5300000   2.521103e-04  1.063590e-07
    155    149   2   0.50000    -0.1200000   -0.4400000   1.095425e-03  1.218041e-06
    155    150   2   0.50000    -0.1200000   -0.5300000   1.026091e-03  1.187829e-06
    146    156   2   0.50000    -0.1200000   -0.0600000   1.015252e-03  1.866303e-06
    146    160   2   0.50000    -0.1200000    0.0600000   2.494471e-04  1.671101e-07
    146    161   2   0.50000    -0.1200000    0.0600000   2.494471e-04  1.671101e-07
    148    156   2   0.50000     0.5200000   -0.0600000   1.575021e-03  3.561100e-06
    148    160   2   0.50000     0.5200000    0.0600000   3.869820e-04  3.188634e-07
    148    161   2   0.50000     0.5200000    0.0600000   3.869820e-04  3.188634e-07
    153    156   2   0.50000     0.0600000   -0.0600000   2.494471e-04  1.671101e-07
    153    160   2   0.50000     0.0600000    0.0600000   6.128906e-05  1.496315e-08
    153    161   2   0.50000     0.0600000    0.0600000   6.128906e-05  1.496315e-08
    147    154   2   0.50000    -0.0600000    0.4500000   1.995577e-06  1.069504e-11
    149    154   2   0.50000    -0.4400000    0.4500000   2.153164e-06  6.980110e-12
    147    157   2   0.50000    -0.0600000    0.5200000   1.575021e-03  3.561100e-06
    147    162   2   0.50000    -0.0600000    0.0600000   2.494471e-04  1.671101e-07
    147    164   2   0.50000    -0.0600000   -0.1200000   1.015252e-03  1.866303e-06
    160    157   2   0.50000     0.0600000    0.5200000   3.869820e-04  3.188634e-07
    160    162   2   0.50000     0.0600000    0.0600000   6.128906e-05  1.496315e-08
    160    164   2   0.50000     0.0600000   -0.1200000   2.494471e-04  1.671101e-07
    161    157   2   0.50000     0.0600000    0.5200000   3.869820e-04  3.188634e-07
    161    162   2   0.50000     0.0600000    0.0600000   6.128906e-05  1.496315e-08
    161    164   2   0.50000     0.0600000   -0.1200000   2.494471e-04  1.671101e-07
    155    158   2   0.50000    -0.1200000   -0.4400000   1.095425e-03  1.218041e-06
    155    159   2   0.50000    -0.1200000   -0.5300000   1.026091e-03  1.187829e-06
    162    158   2   0.50000     0.0600000   -0.4400000   2.691455e-04  1.090642e-07
    162    159   2   0.50000     0.0600000   -0.5300000   2.521103e-04  1.063590e-07
    164    158   2   0.50000    -0.1200000   -0.4400000   1.095425e-03  1.218041e-06
    164    159   2   0.50000    -0.1200000   -0.5300000   1.026091e-03  1.187829e-06
    155    165   2   0.50000    -0.1200000   -0.0600000   1.015252e-03  1.866303e-06
    155    169   2   0.50000    -0.1200000    0.0600000   2.494471e-04  1.671101e-07
    155    170   2   0.50000    -0.1200000    0.0600000   2.494471e-04  1.671101e-07
    157    165   2   0.50000     0.5200000   -0.0600000   1.575021e-03  3.561100e-06
    157    169   2   0.50000     0.5200000    0.0600000   3.869820e-04  3.188634e-07
    157    170   2   0.50000     0.5200000    0.0600000   3.869820e-04  3.188634e-07
    162    165   2   0.50000     0.0600000   -0.0600000   2.494471e-04  1.671101e-07
    162    169   2   0.50000     0.0600000    0.0600000   6.128906e-05  1.496315e-08
    162    170   2   0.50000     0.0600000    0.0600000   6.128906e-05  1.496315e-08
    156    163   2   0.50000    -0.0600000    0.4500000   1.995577e-06  1.069504e-11
    158    163   2   0.50000    -0.4400000    0.4500000   2.153164e-06  6.980110e-12
    156    166   2   0.50000    -0.0600000    0.5200000   1.575021e-03  3.561100e-06
    156    171   2   0.50000    -0.0600000    0.0600000   2.494471e-04  1.671101e-07
    156    173   2   0.50000    -0.0600000   -0.1200000   1.015252e-03  1.866303e-06
    169    166   2   0.50000     0.0600000    0.5200000   3.869820e-04  3.188634e-07
    169    171   2   0.50000     0.0600000    0.0600000   6.128906e-05  1.496315e-08
    169    173   2   0.50000     0.0600000   -0.1200000   2.494471e-04  1.671101e-07
    170    166   2   0.50000     0.0600000    0.5200000   3.869820e-04  3.188634e-07
    170    171   2   0.50000     0.0600000    0.0600000   6.128906e-05  1.496315e-08
    170    173   2   0.50000     0.0600000   -0.1200000   2.494471e-04  1.671101e-07
    164    167   2   0.50000    -0.1200000   -0.4400000   1.095425e-03  1.218041e-06
    164    168   2   0.50000    -0.1200000   -0.5300000   1.026091e-03  1.187829e-06
    171    167   2   0.50000     0.0600000   -0.4400000   2.691455e-04  1.090642e-07
    171    168   2   0.50000     0.0600000   -0.5300000   2.521103e-04  1.063590e-07
    173    167   2   0.50000    -0.1200000   -0.4400000   1.095425e-03  1.218041e-06
    173    168   2   0.50000    -0.1200000   -0.5300000   1.026091e-03  1.187829e-06
    164    174   2   0.50000    -0.1200000   -0.1200000   1.015252e-03  1.866303e-06
    164    178   2   0.50000    -0.1200000    0.0600000   2.494471e-04  1.671101e-07
    164    179   2   0.50000    -0.1200000    0.0600000   2.494471e-04  1.671101e-07
    166    174   2   0.50000     0.5200000   -0.1200000   1.575021e-03  3.561100e-06
    166    178   2   0.50000     0.5200000    0.0600000   3.869820e-04  3.188634e-07
    166    179   2   0.50000     0.5200000    0.0600000   3.869820e-04  3.188634e-07
    171    174   2   0.50000     0.0600000   -0.1200000   2.494471e-04  1.671101e-07
    171    178   2   0.50000     0.0600000    0.0600000   6.128906e-05  1.496315e-08
    171    179   2   0.50000     0.0600000    0.0600000   6.128906e-05  1.496315e-08
    165    172   2   0.50000    -0.0600000    0.4500000   1.995577e-06  1.069504e-11
    167    172   2   0.50000    -0.4400000    0.4500000   2.153164e-06  6.980110e-12
    165    175   2   0.50000    -0.0600000    0.5200000   1.575021e-03  3.561100e-06
    165    180   2   0.50000    -0.0600000    0.0600000   2.494471e-04  1.671101e-07
    165    182   2   0.50000    -0.0600000    0.0600000   2.494471e-04  1.671101e-07
    178    175   2   0.50000     0.0600000    0.5200000   3.869820e-04  3.188634e-07
    178    180   2   0.50000     0.0600000    0.0600000   6.128906e-05  1.496315e-08
    178    182   2   0.50000     0.0600000    0.0600000   6.128906e-05  1.496315e-08
    179    175   2   0.50000     0.0600000    0.5200000   3.869820e-04  3.188634e-07
    179    180   2   0.50000     0.0600000    0.0600000   6.128906e-05  1.496315e-08
    179    182   2   0.50000     0.0600000    0.0600000   6.128906e-05  1.496315e-08
    173    176   2   0.50000    -0.1200000   -0.4400000   1.095425e-03  1.218041e-06
    173    177   2   0.50000    -0.1200000   -0.5300000   1.026091e-03  1.187829e-06
    180    176   2   0.50000     0.0600000   -0.4400000   2.691455e-04  1.090642e-07
    180    177   2   0.50000     0.0600000   -0.5300000   2.521103e-04  1.063590e-07
    182    176   2   0.50000     0.0600000   -0.4400000   2.691455e-04  1.090642e-07
    182    177   2   0.50000     0.0600000   -0.5300000   2.521103e-04  1.063590e-07
    174    181   2   0.50000    -0.1200000    0.4500000   1.995577e-06  1.069504e-11
    176    181   2   0.50000    -0.4400000    0.4500000   2.153164e-06  6.980110e-12

[ angles ]
; ai  aj  ak
      2      1      6   1    110.7000    313.8000
      2      1      7   1    110.7000    313.8000
      2      1     10   1    110.7000    313.8000
      6      1      7   1    107.8000    276.1440
      6      1     10   1    107.8000    276.1440
      7      1     10   1    107.8000    276.1440
      1      2      3   1    111.1000    527.1840
      1      2      8   1    110.7000    313.8000
      1      2     11   1    112.7000    488.2728
      3      2      8   1    109.5000    292.8800
      3      2     11   1    111.1000    527.1840
      8      2     11   1    110.7000    313.8000
      2      3      4   1    120.4000    669.4400
      2      3      5   1    108.0000    585.7600
      4      3      5   1    123.3200    836.8000
      3      5      9   1    113.0000    292.8800
      2     11     12   1    112.7000    488.2728
      2     11     16   1    110.7000    313.8000
      2     11     17   1    110.7000    313.8000
     12     11     16   1    110.7000    313.8000
     12     11     17   1    110.7000    313.8000
     16     11     17   1    107.8000    276.1440
     11     12     13   1    111.1000    527.1840
     11     12     18   1    110.7000    313.8000
     11     12     20   1    112.7000    488.2728
     13     12     18   1    109.5000    292.8800
     13     12     20   1    111.1000    527.1840
     18     12     20   1    110.7000    313.8000
     12     13     14   1    120.4000    669.4400
     12     13     15   1    108.0000    585.7600
     14     13     15   1    123.3200    836.8000
     13     15     19   1    113.0000    292.8800
     12     20     21   1    112.7000    488.2728
     12     20     25   1    110.7000    313.8000
     12     20     26   1    110.7000    313.8000
     21     20     25   1    110.7000    313.8000
     21     20     26   1    110.7000    313.8000
     25     20     26   1    107.8000    276.1440
     20     21     22   1    111.1000    527.1840
     20     21     27   1    110.7000    313.8000
     20     21     29   1    112.7000    488.2728
     22     21     27   1    109.5000    292.8800
     22     21     29   1    111.1000    527.1840
     27     21     29   1    110.7000    313.8000
     21     22     23   1    120.4000    669.4400
     21     22     24   1    108.0000    585.7600
     23     22     24   1    123.3200    836.8000
     22     24     28   1    113.0000    292.8800
     21     29     30   1    112.7000    488.2728
     21     29     34   1    110.7000    313.8000
     21     29     35   1    110.7000    313.8000
     30     29     34   1    110.7000    313.8000
     30     29     35   1    110.7000    313.8000
     34     29     35   1    107.8000    276.1440
     29     30     31   1    111.1000    527.1840
     29     30     36   1    110.7000    313.8000
     29     30     38   1    112.7000    488.2728
     31     30     36   1    109.5000    292.8800
     31     30     38   1    111.1000    527.1840
     36     30     38   1    110.7000    313.8000
     30     31     32   1    120.4000    669.4400
     30     31     33   1    108.0000    585.7600
     32     31     33   1    123.3200    836.8000
     31     33     37   1    113.0000    292.8800
     30     38     39   1    112.7000    488.2728
     30     38     43   1    110.7000    313.8000
     30     38     44   1    110.7000    313.8000
     39     38     43   1    110.7000    313.8000
     39     38     44   1    110.7000    313.8000
     43     38     44   1    107.8000    276.1440
     38     39     40   1    111.1000    527.1840
     38     39     45   1    110.7000    313.8000
     38     39     47   1    112.7000    488.2728
     40     39     45   1    109.5000    292.8800
     40     39     47   1    111.1000    527.1840
     45     39     47   1    110.7000    313.8000
     39     40     41   1    120.4000    669.4400
     39     40     42   1    108.0000    585.7600
     41     40     42   1    123.3200    836.8000
     40     42     46   1    113.0000    292.8800
     39     47     48   1    112.7000    488.2728
     39     47     52   1    110.7000    313.8000
     39     47     53   1    110.7000    313.8000
     48     47     52   1    110.7000    313.8000
     48     47     53   1    110.7000    313.8000
     52     47     53   1    107.8000    276.1440
     47     48     49   1    111.1000    527.1840
     47     48     54   1    110.7000    313.8000
     47     48     56   1    112.7000    488.2728
     49     48     54   1    109.5000    292.8800
     49     48     56   1    111.1000    527.1840
     54     48     56   1    110.7000    313.8000
     48     49     50   1    120.4000    669.4400
     48     49     51   1    108.0000    585.7600
     50     49     51   1    123.3200    836.8000
     49     51     55   1    113.0000    292.8800
     48     56     57   1    112.7000    488.2728
     48     56     61   1    110.7000    313.8000
     48     56     62   1    110.7000    313.8000
     57     56     61   1    110.7000    313.8000
     57     56     62   1    110.7000    313.8000
     61     56     62   1    107.8000    276.1440
     56     57     58   1    111.1000    527.1840
     56     57     63   1    110.7000    313.8000
     56     57     65   1    112.7000    488.2728
     58     57     63   1    109.5000    292.8800
     58     57     65   1    111.1000    527.1840
     63     57     65   1    110.7000    313.8000
     57     58     59   1    120.4000    669.4400
     57     58     60   1    108.0000    585.7600
     59     58     60   1    123.3200    836.8000
     58     60     64   1    113.0000    292.8800
     57     65     66   1    112.7000    488.2728
     57     65     70   1    110.7000    313.8000
     57     65     71   1    110.7000    313.8000
     66     65     70   1    110.7000    313.8000
     66     65     71   1    110.7000    313.8000
     70     65     71   1    107.8000    276.1440
     65     66     67   1    111.1000    527.1840
     65     66     72   1    110.7000    313.8000
     65     66     74   1    112.7000    488.2728
     67     66     72   1    109.5000    292.8800
     67     66     74   1    111.1000    527.1840
     72     66     74   1    110.7000    313.8000
     66     67     68   1    120.4000    669.4400
     66     67     69   1    108.0000    585.7600
     68     67     69   1    123.3200    836.8000
     67     69     73   1    113.0000    292.8800
     66     74     75   1    112.7000    488.2728
     66     74     79   1    110.7000    313.8000
     66     74     80   1    110.7000    313.8000
     75     74     79   1    110.7000    313.8000
     75     74     80   1    110.7000    313.8000
     79     74     80   1    107.8000    276.1440
     74     75     76   1    111.1000    527.1840
     74     75     81   1    110.7000    313.8000
     74     75     83   1    112.7000    488.2728
     76     75     81   1    109.5000    292.8800
     76     75     83   1    111.1000    527.1840
     81     75     83   1    110.7000    313.8000
     75     76     77   1    120.4000    669.4400
     75     76     78   1    108.0000    585.7600
     77     76     78   1    123.3200    836.8000
     76     78     82   1    113.0000    292.8800
     75     83     84   1    112.7000    488.2728
     75     83     88   1    110.7000    313.8000
     75     83     89   1    110.7000    313.8000
     84     83     88   1    110.7000    313.8000
     84     83     89   1    110.7000    313.8000
     88     83     89   1    107.8000    276.1440
     83     84     85   1    111.1000    527.1840
     83     84     90   1    110.7000    313.8000
     83     84     92   1    112.7000    488.2728
     85     84     90   1    109.5000    292.8800
     85     84     92   1    111.1000    527.1840
     90     84     92   1    110.7000    313.8000
     84     85     86   1    120.4000    669.4400
     84     85     87   1    108.0000    585.7600
     86     85     87   1    123.3200    836.8000
     85     87     91   1    113.0000    292.8800
     84     92     93   1    112.7000    488.2728
     84     92     97   1    110.7000    313.8000
     84     92     98   1    110.7000    313.8000
     93     92     97   1    110.7000    313.8000
     93     92     98   1    110.7000    313.8000
     97     92     98   1    107.8000    276.1440
     92     93     94   1    111.1000    527.1840
     92     93     99   1    110.7000    313.8000
     92     93    101   1    112.7000    488.2728
     94     93     99   1    109.5000    292.8800
     94     93    101   1    111.1000    527.1840
     99     93    101   1    110.7000    313.8000
     93     94     95   1    120.4000    669.4400
     93     94     96   1    108.0000    585.7600
     95     94     96   1    123.3200    836.8000
     94     96    100   1    113.0000    292.8800
     93    101    102   1    112.7000    488.2728
     93    101    106   1    110.7000    313.8000
     93    101    107   1    110.7000    313.8000
    102    101    106   1    110.7000    313.8000
    102    101    107   1    110.7000    313.8000
    106    101    107   1    107.8000    276.1440
    101    102    103   1    111.1000    527.1840
    101    102    108   1    110.7000    313.8000
    101    102    110   1    112.7000    488.2728
    103    102    108   1    109.5000    292.8800
    103    102    110   1    111.1000    527.1840
    108    102    110   1    110.7000    313.8000
    102    103    104   1    120.4000    669.4400
    102    103    105   1    108.0000    585.7600
    104    103    105   1    123.3200    836.8000
    103    105    109   1    113.0000    292.8800
    102    110    111   1    112.7000    488.2728
    102    110    115   1    110.7000    313.8000
    102    110    116   1    110.7000    313.8000
    111    110    115   1    110.7000    313.8000
    111    110    116   1    110.7000    313.8000
    115    110    116   1    107.8000    276.1440
    110    111    112   1    111.1000    527.1840
    110    111    117   1    110.7000    313.8000
    110    111    119   1    112.7000    488.2728
    112    111    117   1    109.5000    292.8800
    112    111    119   1    111.1000    527.1840
    117    111    119   1    110.7000    313.8000
    111    112    113   1    120.4000    669.4400
    111    112    114   1    108.0000    585.7600
    113    112    114   1    123.3200    836.8000
    112    114    118   1    113.0000    292.8800
    111    119    120   1    112.7000    488.2728
    111    119    124   1    110.7000    313.8000
    111    119    125   1    110.7000    313.8000
    120    119    124   1    110.7000    313.8000
    120    119    125   1    110.7000    313.8000
    124    119    125   1    107.8000    276.1440
    119    120    121   1    111.1000    527.1840
    119    120    126   1    110.7000    313.8000
    119    120    128   1    112.7000    488.2728
    121    120    126   1    109.5000    292.8800
    121    120    128   1    111.1000    527.1840
    126    120    128   1    110.7000    313.8000
    120    121    122   1    120.4000    669.4400
    120    121    123   1    108.0000    585.7600
    122    121    123   1    123.3200    836.8000
    121    123    127   1    113.0000    292.8800
    120    128    129   1    112.7000    488.2728
    120    128    133   1    110.7000    313.8000
    120    128    134   1    110.7000    313.8000
    129    128    133   1    110.7000    313.8000
    129    128    134   1    110.7000    313.8000
    133    128    134   1    107.8000    276.1440
    128    129    130   1    111.1000    527.1840
    128    129    135   1    110.7000    313.8000
    128    129    137   1    112.7000    488.2728
    130    129    135   1    109.5000    292.8800
    130    129    137   1    111.1000    527.1840
    135    129    137   1    110.7000    313.8000
    129    130    131   1    120.4000    669.4400
    129    130    132   1    108.0000    585.7600
    131    130    132   1    123.3200    836.8000
    130    132    136   1    113.0000    292.8800
    129    137    138   1    112.7000    488.2728
    129    137    142   1    110.7000    313.8000
    129    137    143   1    110.7000    313.8000
    138    137    142   1    110.7000    313.8000
    138    137    143   1    110.7000    313.8000
    142    137    143   1    107.8000    276.1440
    137    138    139   1    111.1000    527.1840
    137    138    144   1    110.7000    313.8000
    137    138    146   1    112.7000    488.2728
    139    138    144   1    109.5000    292.8800
    139    138    146   1    111.1000    527.1840
    144    138    146   1    110.7000    313.8000
    138    139    140   1    120.4000    669.4400
    138    139    141   1    108.0000    585.7600
    140    139    141   1    123.3200    836.8000
    139    141    145   1    113.0000    292.8800
    138    146    147   1    112.7000    488.2728
    138    146    151   1    110.7000    313.8000
    138    146    152   1    110.7000    313.8000
    147    146    151   1    110.7000    313.8000
    147    146    152   1    110.7000    313.8000
    151    146    152   1    107.8000    276.1440
    146    147    148   1    111.1000    527.1840
    146    147    153   1    110.7000    313.8000
    146    147    155   1    112.7000    488.2728
    148    147    153   1    109.5000    292.8800
    148    147    155   1    111.1000    527.1840
    153    147    155   1    110.7000    313.8000
    147    148    149   1    120.4000    669.4400
    147    148    150   1    108.0000    585.7600
    149    148    150   1    123.3200    836.8000
    148    150    154   1    113.0000    292.8800
    147    155    156   1    112.7000    488.2728
    147    155    160   1    110.7000    313.8000
    147    155    161   1    110.7000    313.8000
    156    155    160   1    110.7000    313.8000
    156    155    161   1    110.7000    313.8000
    160    155    161   1    107.8000    276.1440
    155    156    157   1    111.1000    527.1840
    155    156    162   1    110.7000    313.8000
    155    156    164   1    112.7000    488.2728
    157    156    162   1    109.5000    292.8800
    157    156    164   1    111.1000    527.1840
    162    156    164   1    110.7000    313.8000
    156    157    158   1    120.4000    669.4400
    156    157    159   1    108.0000    585.7600
    158    157    159   1    123.3200    836.8000
    157    159    163   1    113.0000    292.8800
    156    164    165   1    112.7000    488.2728
    156    164    169   1    110.7000    313.8000
    156    164    170   1    110.7000    313.8000
    165    164    169   1    110.7000    313.8000
    165    164    170   1    110.7000    313.8000
    169    164    170   1    107.8000    276.1440
    164    165    166   1    111.1000    527.1840
    164    165    171   1    110.7000    313.8000
    164    165    173   1    112.7000    488.2728
    166    165    171   1    109.5000    292.8800
    166    165    173   1    111.1000    527.1840
    171    165    173   1    110.7000    313.8000
    165    166    167   1    120.4000    669.4400
    165    166    168   1    108.0000    585.7600
    167    166    168   1    123.3200    836.8000
    166    168    172   1    113.0000    292.8800
    165    173    174   1    112.7000    488.2728
    165    173    178   1    110.7000    313.8000
    165    173    179   1    110.7000    313.8000
    174    173    178   1    110.7000    313.8000
    174    173    179   1    110.7000    313.8000
    178    173    179   1    107.8000    276.1440
    173    174    175   1    111.1000    527.1840
    173    174    180   1    110.7000    313.8000
    173    174    182   1    110.7000    313.8000
    175    174    180   1    109.5000    292.8800
    175    174    182   1    109.5000    292.8800
    180    174    182   1    107.8000    276.1440
    174    175    176   1    120.4000    669.4400
    174    175    177   1    108.0000    585.7600
    176    175    177   1    123.3200    836.8000
    175    177    181   1    113.0000    292.8800

[ dihedrals ]
; Proper dihedrals
      6      1      2      3   5     0.00000     0.00000    -0.94140  0.0
      6      1      2      8   5     0.00000     0.00000     1.25520  0.0
      6      1      2     11   5     0.00000     0.00000     1.25520  0.0
      7      1      2      3   5     0.00000     0.00000    -0.94140  0.0
      7      1      2      8   5     0.00000     0.00000     1.25520  0.0
      7      1      2     11   5     0.00000     0.00000     1.25520  0.0
     10      1      2      3   5     0.00000     0.00000    -0.94140  0.0
     10      1      2      8   5     0.00000     0.00000     1.25520  0.0
     10      1      2     11   5     0.00000     0.00000     1.25520  0.0
      1      2      3      4   5     0.00000     2.52295     0.00000  0.0
      1      2      3      5   5     4.18400     2.28446     1.88280  0.0
      8      2      3      4   5     0.00000     0.00000     0.00000  0.0
      8      2      3      5   5     0.00000     0.00000     0.00000  0.0
     11      2      3      4   5     0.00000     2.52295     0.00000  0.0
     11      2      3      5   5     4.18400     2.28446     1.88280  0.0
      1      2     11     12   5     4.74884    -0.63178     1.67360  0.0
      1      2     11     16   5     0.00000     0.00000     1.25520  0.0
      1      2     11     17   5     0.00000     0.00000     1.25520  0.0
      3      2     11     12   5    -8.00818    -1.52298     2.46438  0.0
      3      2     11     16   5     0.00000     0.00000    -0.94140  0.0
      3      2     11     17   5     0.00000     0.00000    -0.94140  0.0
      8      2     11     12   5     0.00000     0.00000     1.25520  0.0
      8      2     11     16   5     0.00000     0.00000     1.25520  0.0
      8      2     11     17   5     0.00000     0.00000     1.25520  0.0
      2      3      5      9   5    12.55200    20.50160     0.00000  0.0
      4      3      5      9   5     7.71530    31.30469     0.00000  0.0
      2     11     12     13   5    -8.00818    -1.52298     2.46438  0.0
      2     11     12     18   5     0.00000     0.00000     1.25520  0.0
      2     11     12     20   5     4.74884    -0.63178     1.67360  0.0
     16     11     12     13   5     0.00000     0.00000    -0.94140  0.0
     16     11     12     18   5     0.00000     0.00000     1.25520  0.0
     16     11     12     20   5     0.00000     0.00000     1.25520  0.0
     17     11     12     13   5     0.00000     0.00000    -0.94140  0.0
     17     11     12     18   5     0.00000     0.00000     1.25520  0.0
     17     11     12     20   5     0.00000     0.00000     1.25520  0.0
     11     12     13     14   5     0.00000     2.52295     0.00000  0.0
     11     12     13     15   5     4.18400     2.28446     1.88280  0.0
     18     12     13     14   5     0.00000     0.00000     0.00000  0.0
     18     12     13     15   5     0.00000     0.00000     0.00000  0.0
     20     12     13     14   5     0.00000     2.52295     0.00000  0.0
     20     12     13     15   5     4.18400     2.28446     1.88280  0.0
     11     12     20     21   5     4.74884    -0.63178     1.67360  0.0
     11     12     20     25   5     0.00000     0.00000     1.25520  0.0
     11     12     20     26   5     0.00000     0.00000     1.25520  0.0
     13     12     20     21   5    -8.00818    -1.52298     2.46438  0.0
     13     12     20     25   5     0.00000     0.00000    -0.94140  0.0
     13     12     20     26   5     0.00000     0.00000    -0.94140  0.0
     18     12     20     21   5     0.00000     0.00000     1.25520  0.0
     18     12     20     25   5     0.00000     0.00000     1.25520  0.0
     18     12     20     26   5     0.00000     0.00000     1.25520  0.0
     12     13     15     19   5    12.55200    20.50160     0.00000  0.0
     14     13     15     19   5     7.71530    31.30469     0.00000  0.0
     12     20     21     22   5    -8.00818    -1.52298     2.46438  0.0
     12     20     21     27   5     0.00000     0.00000     1.25520  0.0
     12     20     21     29   5     4.74884    -0.63178     1.67360  0.0
     25     20     21     22   5     0.00000     0.00000    -0.94140  0.0
     25     20     21     27   5     0.00000     0.00000     1.25520  0.0
     25     20     21     29   5     0.00000     0.00000     1.25520  0.0
     26     20     21     22   5     0.00000     0.00000    -0.94140  0.0
     26     20     21     27   5     0.00000     0.00000     1.25520  0.0
     26     20     21     29   5     0.00000     0.00000     1.25520  0.0
     20     21     22     23   5     0.00000     2.52295     0.00000  0.0
     20     21     22     24   5     4.18400     2.28446     1.88280  0.0
     27     21     22     23   5     0.00000     0.00000     0.00000  0.0
     27     21     22     24   5     0.00000     0.00000     0.00000  0.0
     29     21     22     23   5     0.00000     2.52295     0.00000  0.0
     29     21     22     24   5     4.18400     2.28446     1.88280  0.0
     20     21     29     30   5     4.74884    -0.63178     1.67360  0.0
     20     21     29     34   5     0.00000     0.00000     1.25520  0.0
     20     21     29     35   5     0.00000     0.00000     1.25520  0.0
     22     21     29     30   5    -8.00818    -1.52298     2.46438  0.0
     22     21     29     34   5     0.00000     0.00000    -0.94140  0.0
     22     21     29     35   5     0.00000     0.00000    -0.94140  0.0
     27     21     29     30   5     0.00000     0.00000     1.25520  0.0
     27     21     29     34   5     0.00000     0.00000     1.25520  0.0
     27     21     29     35   5     0.00000     0.00000     1.25520  0.0
     21     22     24     28   5    12.55200    20.50160     0.00000  0.0
     23     22     24     28   5     7.71530    31.30469     0.00000  0.0
     21     29     30     31   5    -8.00818    -1.52298     2.46438  0.0
     21     29     30     36   5     0.00000     0.00000     1.25520  0.0
     21     29     30     38   5     4.74884    -0.63178     1.67360  0.0
     34     29     30     31   5     0.00000     0.00000    -0.94140  0.0
     34     29     30     36   5     0.00000     0.00000     1.25520  0.0
     34     29     30     38   5     0.00000     0.00000     1.25520  0.0
     35     29     30     31   5     0.00000     0.00000    -0.94140  0.0
     35     29     30     36   5     0.00000     0.00000     1.25520  0.0
     35     29     30     38   5     0.00000     0.00000     1.25520  0.0
     29     30     31     32   5     0.00000     2.52295     0.00000  0.0
     29     30     31     33   5     4.18400     2.28446     1.88280  0.0
     36     30     31     32   5     0.00000     0.00000     0.00000  0.0
     36     30     31     33   5     0.00000     0.00000     0.00000  0.0
     38     30     31     32   5     0.00000     2.52295     0.00000  0.0
     38     30     31     33   5     4.18400     2.28446     1.88280  0.0
     29     30     38     39   5     4.74884    -0.63178     1.67360  0.0
     29     30     38     43   5     0.00000     0.00000     1.25520  0.0
     29     30     38     44   5     0.00000     0.00000     1.25520  0.0
     31     30     38     39   5    -8.00818    -1.52298     2.46438  0.0
     31     30     38     43   5     0.00000     0.00000    -0.94140  0.0
     31     30     38     44   5     0.00000     0.00000    -0.94140  0.0
     36     30     38     39   5     0.00000     0.00000     1.25520  0.0
     36     30     38     43   5     0.00000     0.00000     1.25520  0.0
     36     30     38     44   5     0.00000     0.00000     1.25520  0.0
     30     31     33     37   5    12.55200    20.50160     0.00000  0.0
     32     31     33     37   5     7.71530    31.30469     0.00000  0.0
     30     38     39     40   5    -8.00818    -1.52298     2.46438  0.0
     30     38     39     45   5     0.00000     0.00000     1.25520  0.0
     30     38     39     47   5     4.74884    -0.63178     1.67360  0.0
     43     38     39     40   5     0.00000     0.00000    -0.94140  0.0
     43     38     39     45   5     0.00000     0.00000     1.25520  0.0
     43     38     39     47   5     0.00000     0.00000     1.25520  0.0
     44     38     39     40   5     0.00000     0.00000    -0.94140  0.0
     44     38     39     45   5     0.00000     0.00000     1.25520  0.0
     44     38     39     47   5     0.00000     0.00000     1.25520  0.0
     38     39     40     41   5     0.00000     2.52295     0.00000  0.0
     38     39     40     42   5     4.18400     2.28446     1.88280  0.0
     45     39     40     41   5     0.00000     0.00000     0.00000  0.0
     45     39     40     42   5     0.00000     0.00000     0.00000  0.0
     47     39     40     41   5     0.00000     2.52295     0.00000  0.0
     47     39     40     42   5     4.18400     2.28446     1.88280  0.0
     38     39     47     48   5     4.74884    -0.63178     1.67360  0.0
     38     39     47     52   5     0.00000     0.00000     1.25520  0.0
     38     39     47     53   5     0.00000     0.00000     1.25520  0.0
     40     39     47     48   5    -8.00818    -1.52298     2.46438  0.0
     40     39     47     52   5     0.00000     0.00000    -0.94140  0.0
     40     39     47     53   5     0.00000     0.00000    -0.94140  0.0
     45     39     47     48   5     0.00000     0.00000     1.25520  0.0
     45     39     47     52   5     0.00000     0.00000     1.25520  0.0
     45     39     47     53   5     0.00000     0.00000     1.25520  0.0
     39     40     42     46   5    12.55200    20.50160     0.00000  0.0
     41     40     42     46   5     7.71530    31.30469     0.00000  0.0
     39     47     48     49   5    -8.00818    -1.52298     2.46438  0.0
     39     47     48     54   5     0.00000     0.00000     1.25520  0.0
     39     47     48     56   5     4.74884    -0.63178     1.67360  0.0
     52     47     48     49   5     0.00000     0.00000    -0.94140  0.0
     52     47     48     54   5     0.00000     0.00000     1.25520  0.0
     52     47     48     56   5     0.00000     0.00000     1.25520  0.0
     53     47     48     49   5     0.00000     0.00000    -0.94140  0.0
     53     47     48     54   5     0.00000     0.00000     1.25520  0.0
     53     47     48     56   5     0.00000     0.00000     1.25520  0.0
     47     48     49     50   5     0.00000     2.52295     0.00000  0.0
     47     48     49     51   5     4.18400     2.28446     1.88280  0.0
     54     48     49     50   5     0.00000     0.00000     0.00000  0.0
     54     48     49     51   5     0.00000     0.00000     0.00000  0.0
     56     48     49     50   5     0.00000     2.52295     0.00000  0.0
     56     48     49     51   5     4.18400     2.28446     1.88280  0.0
     47     48     56     57   5     4.74884    -0.63178     1.67360  0.0
     47     48     56     61   5     0.00000     0.00000     1.25520  0.0
     47     48     56     62   5     0.00000     0.00000     1.25520  0.0
     49     48     56     57   5    -8.00818    -1.52298     2.46438  0.0
     49     48     56     61   5     0.00000     0.00000    -0.94140  0.0
     49     48     56     62   5     0.00000     0.00000    -0.94140  0.0
     54     48     56     57   5     0.00000     0.00000     1.25520  0.0
     54     48     56     61   5     0.00000     0.00000     1.25520  0.0
     54     48     56     62   5     0.00000     0.00000     1.25520  0.0
     48     49     51     55   5    12.55200    20.50160     0.00000  0.0
     50     49     51     55   5     7.71530    31.30469     0.00000  0.0
     48     56     57     58   5    -8.00818    -1.52298     2.46438  0.0
     48     56     57     63   5     0.00000     0.00000     1.25520  0.0
     48     56     57     65   5     4.74884    -0.63178     1.67360  0.0
     61     56     57     58   5     0.00000     0.00000    -0.94140  0.0
     61     56     57     63   5     0.00000     0.00000     1.25520  0.0
     61     56     57     65   5     0.00000     0.00000     1.25520  0.0
     62     56     57     58   5     0.00000     0.00000    -0.94140  0.0
     62     56     57     63   5     0.00000     0.00000     1.25520  0.0
     62     56     57     65   5     0.00000     0.00000     1.25520  0.0
     56     57     58     59   5     0.00000     2.52295     0.00000  0.0
     56     57     58     60   5     4.18400     2.28446     1.88280  0.0
     63     57     58     59   5     0.00000     0.00000     0.00000  0.0
     63     57     58     60   5     0.00000     0.00000     0.00000  0.0
     65     57     58     59   5     0.00000     2.52295     0.00000  0.0
     65     57     58     60   5     4.18400     2.28446     1.88280  0.0
     56     57     65     66   5     4.74884    -0.63178     1.67360  0.0
     56     57     65     70   5     0.00000     0.00000     1.25520  0.0
     56     57     65     71   5     0.00000     0.00000     1.25520  0.0
     58     57     65     66   5    -8.00818    -1.52298     2.46438  0.0
     58     57     65     70   5     0.00000     0.00000    -0.94140  0.0
     58     57     65     71   5     0.00000     0.00000    -0.94140  0.0
     63     57     65     66   5     0.00000     0.00000     1.25520  0.0
     63     57     65     70   5     0.00000     0.00000     1.25520  0.0
     63     57     65     71   5     0.00000     0.00000     1.25520  0.0
     57     58     60     64   5    12.55200    20.50160     0.00000  0.0
     59     58     60     64   5     7.71530    31.30469     0.00000  0.0
     57     65     66     67   5    -8.00818    -1.52298     2.46438  0.0
     57     65     66     72   5     0.00000     0.00000     1.25520  0.0
     57     65     66     74   5     4.74884    -0.63178     1.67360  0.0
     70     65     66     67   5     0.00000     0.00000    -0.94140  0.0
     70     65     66     72   5     0.00000     0.00000     1.25520  0.0
     70     65     66     74   5     0.00000     0.00000     1.25520  0.0
     71     65     66     67   5     0.00000     0.00000    -0.94140  0.0
     71     65     66     72   5     0.00000     0.00000     1.25520  0.0
     71     65     66     74   5     0.00000     0.00000     1.25520  0.0
     65     66     67     68   5     0.00000     2.52295     0.00000  0.0
     65     66     67     69   5     4.18400     2.28446     1.88280  0.0
     72     66     67     68   5     0.00000     0.00000     0.00000  0.0
     72     66     67     69   5     0.00000     0.00000     0.00000  0.0
     74     66     67     68   5     0.00000     2.52295     0.00000  0.0
     74     66     67     69   5     4.18400     2.28446     1.88280  0.0
     65     66     74     75   5     4.74884    -0.63178     1.67360  0.0
     65     66     74     79   5     0.00000     0.00000     1.25520  0.0
     65     66     74     80   5     0.00000     0.00000     1.25520  0.0
     67     66     74     75   5    -8.00818    -1.52298     2.46438  0.0
     67     66     74     79   5     0.00000     0.00000    -0.94140  0.0
     67     66     74     80   5     0.00000     0.00000    -0.94140  0.0
     72     66     74     75   5     0.00000     0.00000     1.25520  0.0
     72     66     74     79   5     0.00000     0.00000     1.25520  0.0
     72     66     74     80   5     0.00000     0.00000     1.25520  0.0
     66     67     69     73   5    12.55200    20.50160     0.00000  0.0
     68     67     69     73   5     7.71530    31.30469     0.00000  0.0
     66     74     75     76   5    -8.00818    -1.52298     2.46438  0.0
     66     74     75     81   5     0.00000     0.00000     1.25520  0.0
     66     74     75     83   5     4.74884    -0.63178     1.67360  0.0
     79     74     75     76   5     0.00000     0.00000    -0.94140  0.0
     79     74     75     81   5     0.00000     0.00000     1.25520  0.0
     79     74     75     83   5     0.00000     0.00000     1.25520  0.0
     80     74     75     76   5     0.00000     0.00000    -0.94140  0.0
     80     74     75     81   5     0.00000     0.00000     1.25520  0.0
     80     74     75     83   5     0.00000     0.00000     1.25520  0.0
     74     75     76     77   5     0.00000     2.52295     0.00000  0.0
     74     75     76     78   5     4.18400     2.28446     1.88280  0.0
     81     75     76     77   5     0.00000     0.00000     0.00000  0.0
     81     75     76     78   5     0.00000     0.00000     0.00000  0.0
     83     75     76     77   5     0.00000     2.52295     0.00000  0.0
     83     75     76     78   5     4.18400     2.28446     1.88280  0.0
     74     75     83     84   5     4.74884    -0.63178     1.67360  0.0
     74     75     83     88   5     0.00000     0.00000     1.25520  0.0
     74     75     83     89   5     0.00000     0.00000     1.25520  0.0
     76     75     83     84   5    -8.00818    -1.52298     2.46438  0.0
     76     75     83     88   5     0.00000     0.00000    -0.94140  0.0
     76     75     83     89   5     0.00000     0.00000    -0.94140  0.0
     81     75     83     84   5     0.00000     0.00000     1.25520  0.0
     81     75     83     88   5     0.00000     0.00000     1.25520  0.0
     81     75     83     89   5     0.00000     0.00000     1.25520  0.0
     75     76     78     82   5    12.55200    20.50160     0.00000  0.0
     77     76     78     82   5     7.71530    31.30469     0.00000  0.0
     75     83     84     85   5    -8.00818    -1.52298     2.46438  0.0
     75     83     84     90   5     0.00000     0.00000     1.25520  0.0
     75     83     84     92   5     4.74884    -0.63178     1.67360  0.0
     88     83     84     85   5     0.00000     0.00000    -0.94140  0.0
     88     83     84     90   5     0.00000     0.00000     1.25520  0.0
     88     83     84     92   5     0.00000     0.00000     1.25520  0.0
     89     83     84     85   5     0.00000     0.00000    -0.94140  0.0
     89     83     84     90   5     0.00000     0.00000     1.25520  0.0
     89     83     84     92   5     0.00000     0.00000     1.25520  0.0
     83     84     85     86   5     0.00000     2.52295     0.00000  0.0
     83     84     85     87   5     4.18400     2.28446     1.88280  0.0
     90     84     85     86   5     0.00000     0.00000     0.00000  0.0
     90     84     85     87   5     0.00000     0.00000     0.00000  0.0
     92     84     85     86   5     0.00000     2.52295     0.00000  0.0
     92     84     85     87   5     4.18400     2.28446     1.88280  0.0
     83     84     92     93   5     4.74884    -0.63178     1.67360  0.0
     83     84     92     97   5     0.00000     0.00000     1.25520  0.0
     83     84     92     98   5     0.00000     0.00000     1.25520  0.0
     85     84     92     93   5    -8.00818    -1.52298     2.46438  0.0
     85     84     92     97   5     0.00000     0.00000    -0.94140  0.0
     85     84     92     98   5     0.00000     0.00000    -0.94140  0.0
     90     84     92     93   5     0.00000     0.00000     1.25520  0.0
     90     84     92     97   5     0.00000     0.00000     1.25520  0.0
     90     84     92     98   5     0.00000     0.00000     1.25520  0.0
     84     85     87     91   5    12.55200    20.50160     0.00000  0.0
     86     85     87     91   5     7.71530    31.30469     0.00000  0.0
     84     92     93     94   5    -8.00818    -1.52298     2.46438  0.0
     84     92     93     99   5     0.00000     0.00000     1.25520  0.0
     84     92     93    101   5     4.74884    -0.63178     1.67360  0.0
     97     92     93     94   5     0.00000     0.00000    -0.94140  0.0
     97     92     93     99   5     0.00000     0.00000     1.25520  0.0
     97     92     93    101   5     0.00000     0.00000     1.25520  0.0
     98     92     93     94   5     0.00000     0.00000    -0.94140  0.0
     98     92     93     99   5     0.00000     0.00000     1.25520  0.0
     98     92     93    101   5     0.00000     0.00000     1.25520  0.0
     92     93     94     95   5     0.00000     2.52295     0.00000  0.0
     92     93     94     96   5     4.18400     2.28446     1.88280  0.0
     99     93     94     95   5     0.00000     0.00000     0.00000  0.0
     99     93     94     96   5     0.00000     0.00000     0.00000  0.0
    101     93     94     95   5     0.00000     2.52295     0.00000  0.0
    101     93     94     96   5     4.18400     2.28446     1.88280  0.0
     92     93    101    102   5     4.74884    -0.63178     1.67360  0.0
     92     93    101    106   5     0.00000     0.00000     1.25520  0.0
     92     93    101    107   5     0.00000     0.00000     1.25520  0.0
     94     93    101    102   5    -8.00818    -1.52298     2.46438  0.0
     94     93    101    106   5     0.00000     0.00000    -0.94140  0.0
     94     93    101    107   5     0.00000     0.00000    -0.94140  0.0
     99     93    101    102   5     0.00000     0.00000     1.25520  0.0
     99     93    101    106   5     0.00000     0.00000     1.25520  0.0
     99     93    101    107   5     0.00000     0.00000     1.25520  0.0
     93     94     96    100   5    12.55200    20.50160     0.00000  0.0
     95     94     96    100   5     7.71530    31.30469     0.00000  0.0
     93    101    102    103   5    -8.00818    -1.52298     2.46438  0.0
     93    101    102    108   5     0.00000     0.00000     1.25520  0.0
     93    101    102    110   5     4.74884    -0.63178     1.67360  0.0
    106    101    102    103   5     0.00000     0.00000    -0.94140  0.0
    106    101    102    108   5     0.00000     0.00000     1.25520  0.0
    106    101    102    110   5     0.00000     0.00000     1.25520  0.0
    107    101    102    103   5     0.00000     0.00000    -0.94140  0.0
    107    101    102    108   5     0.00000     0.00000     1.25520  0.0
    107    101    102    110   5     0.00000     0.00000     1.25520  0.0
    101    102    103    104   5     0.00000     2.52295     0.00000  0.0
    101    102    103    105   5     4.18400     2.28446     1.88280  0.0
    108    102    103    104   5     0.00000     0.00000     0.00000  0.0
    108    102    103    105   5     0.00000     0.00000     0.00000  0.0
    110    102    103    104   5     0.00000     2.52295     0.00000  0.0
    110    102    103    105   5     4.18400     2.28446     1.88280  0.0
    101    102    110    111   5     4.74884    -0.63178     1.67360  0.0
    101    102    110    115   5     0.00000     0.00000     1.25520  0.0
    101    102    110    116   5     0.00000     0.00000     1.25520  0.0
    103    102    110    111   5    -8.00818    -1.52298     2.46438  0.0
    103    102    110    115   5     0.00000     0.00000    -0.94140  0.0
    103    102    110    116   5     0.00000     0.00000    -0.94140  0.0
    108    102    110    111   5     0.00000     0.00000     1.25520  0.0
    108    102    110    115   5     0.00000     0.00000     1.25520  0.0
    108    102    110    116   5     0.00000     0.00000     1.25520  0.0
    102    103    105    109   5    12.55200    20.50160     0.00000  0.0
    104    103    105    109   5     7.71530    31.30469     0.00000  0.0
    102    110    111    112   5    -8.00818    -1.52298     2.46438  0.0
    102    110    111    117   5     0.00000     0.00000     1.25520  0.0
    102    110    111    119   5     4.74884    -0.63178     1.67360  0.0
    115    110    111    112   5     0.00000     0.00000    -0.94140  0.0
    115    110    111    117   5     0.00000     0.00000     1.25520  0.0
    115    110    111    119   5     0.00000     0.00000     1.25520  0.0
    116    110    111    112   5     0.00000     0.00000    -0.94140  0.0
    116    110    111    117   5     0.00000     0.00000     1.25520  0.0
    116    110    111    119   5     0.00000     0.00000     1.25520  0.0
    110    111    112    113   5     0.00000     2.52295     0.00000  0.0
    110    111    112    114   5     4.18400     2.28446     1.88280  0.0
    117    111    112    113   5     0.00000     0.00000     0.00000  0.0
    117    111    112    114   5     0.00000     0.00000     0.00000  0.0
    119    111    112    113   5     0.00000     2.52295     0.00000  0.0
    119    111    112    114   5     4.18400     2.28446     1.88280  0.0
    110    111    119    120   5     4.74884    -0.63178     1.67360  0.0
    110    111    119    124   5     0.00000     0.00000     1.25520  0.0
    110    111    119    125   5     0.00000     0.00000     1.25520  0.0
    112    111    119    120   5    -8.00818    -1.52298     2.46438  0.0
    112    111    119    124   5     0.00000     0.00000    -0.94140  0.0
    112    111    119    125   5     0.00000     0.00000    -0.94140  0.0
    117    111    119    120   5     0.00000     0.00000     1.25520  0.0
    117    111    119    124   5     0.00000     0.00000     1.25520  0.0
    117    111    119    125   5     0.00000     0.00000     1.25520  0.0
    111    112    114    118   5    12.55200    20.50160     0.00000  0.0
    113    112    114    118   5     7.71530    31.30469     0.00000  0.0
    111    119    120    121   5    -8.00818    -1.52298     2.46438  0.0
    111    119    120    126   5     0.00000     0.00000     1.25520  0.0
    111    119    120    128   5     4.74884    -0.63178     1.67360  0.0
    124    119    120    121   5     0.00000     0.00000    -0.94140  0.0
    124    119    120    126   5     0.00000     0.00000     1.25520  0.0
    124    119    120    128   5     0.00000     0.00000     1.25520  0.0
    125    119    120    121   5     0.00000     0.00000    -0.94140  0.0
    125    119    120    126   5     0.00000     0.00000     1.25520  0.0
    125    119    120    128   5     0.00000     0.00000     1.25520  0.0
    119    120    121    122   5     0.00000     2.52295     0.00000  0.0
    119    120    121    123   5     4.18400     2.28446     1.88280  0.0
    126    120    121    122   5     0.00000     0.00000     0.00000  0.0
    126    120    121    123   5     0.00000     0.00000     0.00000  0.0
    128    120    121    122   5     0.00000     2.52295     0.00000  0.0
    128    120    121    123   5     4.18400     2.28446     1.88280  0.0
    119    120    128    129   5     4.74884    -0.63178     1.67360  0.0
    119    120    128    133   5     0.00000     0.00000     1.25520  0.0
    119    120    128    134   5     0.00000     0.00000     1.25520  0.0
    121    120    128    129   5    -8.00818    -1.52298     2.46438  0.0
    121    120    128    133   5     0.00000     0.00000    -0.94140  0.0
    121    120    128    134   5     0.00000     0.00000    -0.94140  0.0
    126    120    128    129   5     0.00000     0.00000     1.25520  0.0
    126    120    128    133   5     0.00000     0.00000     1.25520  0.0
    126    120    128    134   5     0.00000     0.00000     1.25520  0.0
    120    121    123    127   5    12.55200    20.50160     0.00000  0.0
    122    121    123    127   5     7.71530    31.30469     0.00000  0.0
    120    128    129    130   5    -8.00818    -1.52298     2.46438  0.0
    120    128    129    135   5     0.00000     0.00000     1.25520  0.0
    120    128    129    137   5     4.74884    -0.63178     1.67360  0.0
    133    128    129    130   5     0.00000     0.00000    -0.94140  0.0
    133    128    129    135   5     0.00000     0.00000     1.25520  0.0
    133    128    129    137   5     0.00000     0.00000     1.25520  0.0
    134    128    129    130   5     0.00000     0.00000    -0.94140  0.0
    134    128    129    135   5     0.00000     0.00000     1.25520  0.0
    134    128    129    137   5     0.00000     0.00000     1.25520  0.0
    128    129    130    131   5     0.00000     2.52295     0.00000  0.0
    128    129    130    132   5     4.18400     2.28446     1.88280  0.0
    135    129    130    131   5     0.00000     0.00000     0.00000  0.0
    135    129    130    132   5     0.00000     0.00000     0.00000  0.0
    137    129    130    131   5     0.00000     2.52295     0.00000  0.0
    137    129    130    132   5     4.18400     2.28446     1.88280  0.0
    128    129    137    138   5     4.74884    -0.63178     1.67360  0.0
    128    129    137    142   5     0.00000     0.00000     1.25520  0.0
    128    129    137    143   5     0.00000     0.00000     1.25520  0.0
    130    129    137    138   5    -8.00818    -1.52298     2.46438  0.0
    130    129    137    142   5     0.00000     0.00000    -0.94140  0.0
    130    129    137    143   5     0.00000     0.00000    -0.94140  0.0
    135    129    137    138   5     0.00000     0.00000     1.25520  0.0
    135    129    137    142   5     0.00000     0.00000     1.25520  0.0
    135    129    137    143   5     0.00000     0.00000     1.25520  0.0
    129    130    132    136   5    12.55200    20.50160     0.00000  0.0
    131    130    132    136   5     7.71530    31.30469     0.00000  0.0
    129    137    138    139   5    -8.00818    -1.52298     2.46438  0.0
    129    137    138    144   5     0.00000     0.00000     1.25520  0.0
    129    137    138    146   5     4.74884    -0.63178     1.67360  0.0
    142    137    138    139   5     0.00000     0.00000    -0.94140  0.0
    142    137    138    144   5     0.00000     0.00000     1.25520  0.0
    142    137    138    146   5     0.00000     0.00000     1.25520  0.0
    143    137    138    139   5     0.00000     0.00000    -0.94140  0.0
    143    137    138    144   5     0.00000     0.00000     1.25520  0.0
    143    137    138    146   5     0.00000     0.00000     1.25520  0.0
    137    138    139    140   5     0.00000     2.52295     0.00000  0.0
    137    138    139    141   5     4.18400     2.28446     1.88280  0.0
    144    138    139    140   5     0.00000     0.00000     0.00000  0.0
    144    138    139    141   5     0.00000     0.00000     0.00000  0.0
    146    138    139    140   5     0.00000     2.52295     0.00000  0.0
    146    138    139    141   5     4.18400     2.28446     1.88280  0.0
    137    138    146    147   5     4.74884    -0.63178     1.67360  0.0
    137    138    146    151   5     0.00000     0.00000     1.25520  0.0
    137    138    146    152   5     0.00000     0.00000     1.25520  0.0
    139    138    146    147   5    -8.00818    -1.52298     2.46438  0.0
    139    138    146    151   5     0.00000     0.00000    -0.94140  0.0
    139    138    146    152   5     0.00000     0.00000    -0.94140  0.0
    144    138    146    147   5     0.00000     0.00000     1.25520  0.0
    144    138    146    151   5     0.00000     0.00000     1.25520  0.0
    144    138    146    152   5     0.00000     0.00000     1.25520  0.0
    138    139    141    145   5    12.55200    20.50160     0.00000  0.0
    140    139    141    145   5     7.71530    31.30469     0.00000  0.0
    138    146    147    148   5    -8.00818    -1.52298     2.46438  0.0
    138    146    147    153   5     0.00000     0.00000     1.25520  0.0
    138    146    147    155   5     4.74884    -0.63178     1.67360  0.0
    151    146    147    148   5     0.00000     0.00000    -0.94140  0.0
    151    146    147    153   5     0.00000     0.00000     1.25520  0.0
    151    146    147    155   5     0.00000     0.00000     1.25520  0.0
    152    146    147    148   5     0.00000     0.00000    -0.94140  0.0
    152    146    147    153   5     0.00000     0.00000     1.25520  0.0
    152    146    147    155   5     0.00000     0.00000     1.25520  0.0
    146    147    148    149   5     0.00000     2.52295     0.00000  0.0
    146    147    148    150   5     4.18400     2.28446     1.88280  0.0
    153    147    148    149   5     0.00000     0.00000     0.00000  0.0
    153    147    148    150   5     0.00000     0.00000     0.00000  0.0
    155    147    148    149   5     0.00000     2.52295     0.00000  0.0
    155    147    148    150   5     4.18400     2.28446     1.88280  0.0
    146    147    155    156   5     4.74884    -0.63178     1.67360  0.0
    146    147    155    160   5     0.00000     0.00000     1.25520  0.0
    146    147    155    161   5     0.00000     0.00000     1.25520  0.0
    148    147    155    156   5    -8.00818    -1.52298     2.46438  0.0
    148    147    155    160   5     0.00000     0.00000    -0.94140  0.0
    148    147    155    161   5     0.00000     0.00000    -0.94140  0.0
    153    147    155    156   5     0.00000     0.00000     1.25520  0.0
    153    147    155    160   5     0.00000     0.00000     1.25520  0.0
    153    147    155    161   5     0.00000     0.00000     1.25520  0.0
    147    148    150    154   5    12.55200    20.50160     0.00000  0.0
    149    148    150    154   5     7.71530    31.30469     0.00000  0.0
    147    155    156    157   5    -8.00818    -1.52298     2.46438  0.0
    147    155    156    162   5     0.00000     0.00000     1.25520  0.0
    147    155    156    164   5     4.74884    -0.63178     1.67360  0.0
    160    155    156    157   5     0.00000     0.00000    -0.94140  0.0
    160    155    156    162   5     0.00000     0.00000     1.25520  0.0
    160    155    156    164   5     0.00000     0.00000     1.25520  0.0
    161    155    156    157   5     0.00000     0.00000    -0.94140  0.0
    161    155    156    162   5     0.00000     0.00000     1.25520  0.0
    161    155    156    164   5     0.00000     0.00000     1.25520  0.0
    155    156    157    158   5     0.00000     2.52295     0.00000  0.0
    155    156    157    159   5     4.18400     2.28446     1.88280  0.0
    162    156    157    158   5     0.00000     0.00000     0.00000  0.0
    162    156    157    159   5     0.00000     0.00000     0.00000  0.0
    164    156    157    158   5     0.00000     2.52295     0.00000  0.0
    164    156    157    159   5     4.18400     2.28446     1.88280  0.0
    155    156    164    165   5     4.74884    -0.63178     1.67360  0.0
    155    156    164    169   5     0.00000     0.00000     1.25520  0.0
    155    156    164    170   5     0.00000     0.00000     1.25520  0.0
    157    156    164    165   5    -8.00818    -1.52298     2.46438  0.0
    157    156    164    169   5     0.00000     0.00000    -0.94140  0.0
    157    156    164    170   5     0.00000     0.00000    -0.94140  0.0
    162    156    164    165   5     0.00000     0.00000     1.25520  0.0
    162    156    164    169   5     0.00000     0.00000     1.25520  0.0
    162    156    164    170   5     0.00000     0.00000     1.25520  0.0
    156    157    159    163   5    12.55200    20.50160     0.00000  0.0
    158    157    159    163   5     7.71530    31.30469     0.00000  0.0
    156    164    165    166   5    -8.00818    -1.52298     2.46438  0.0
    156    164    165    171   5     0.00000     0.00000     1.25520  0.0
    156    164    165    173   5     4.74884    -0.63178     1.67360  0.0
    169    164    165    166   5     0.00000     0.00000    -0.94140  0.0
    169    164    165    171   5     0.00000     0.00000     1.25520  0.0
    169    164    165    173   5     0.00000     0.00000     1.25520  0.0
    170    164    165    166   5     0.00000     0.00000    -0.94140  0.0
    170    164    165    171   5     0.00000     0.00000     1.25520  0.0
    170    164    165    173   5     0.00000     0.00000     1.25520  0.0
    164    165    166    167   5     0.00000     2.52295     0.00000  0.0
    164    165    166    168   5     4.18400     2.28446     1.88280  0.0
    171    165    166    167   5     0.00000     0.00000     0.00000  0.0
    171    165    166    168   5     0.00000     0.00000     0.00000  0.0
    173    165    166    167   5     0.00000     2.52295     0.00000  0.0
    173    165    166    168   5     4.18400     2.28446     1.88280  0.0
    164    165    173    174   5     4.74884    -0.63178     1.67360  0.0
    164    165    173    178   5     0.00000     0.00000     1.25520  0.0
    164    165    173    179   5     0.00000     0.00000     1.25520  0.0
    166    165    173    174   5    -8.00818    -1.52298     2.46438  0.0
    166    165    173    178   5     0.00000     0.00000    -0.94140  0.0
    166    165    173    179   5     0.00000     0.00000    -0.94140  0.0
    171    165    173    174   5     0.00000     0.00000     1.25520  0.0
    171    165    173    178   5     0.00000     0.00000     1.25520  0.0
    171    165    173    179   5     0.00000     0.00000     1.25520  0.0
    165    166    168    172   5    12.55200    20.50160     0.00000  0.0
    167    166    168    172   5     7.71530    31.30469     0.00000  0.0
    165    173    174    175   5    -8.00818    -1.52298     2.46438  0.0
    165    173    174    180   5     0.00000     0.00000     1.25520  0.0
    165    173    174    182   5     0.00000     0.00000     1.25520  0.0
    178    173    174    175   5     0.00000     0.00000    -0.94140  0.0
    178    173    174    180   5     0.00000     0.00000     1.25520  0.0
    178    173    174    182   5     0.00000     0.00000     1.25520  0.0
    179    173    174    175   5     0.00000     0.00000    -0.94140  0.0
    179    173    174    180   5     0.00000     0.00000     1.25520  0.0
    179    173    174    182   5     0.00000     0.00000     1.25520  0.0
    173    174    175    176   5     0.00000     2.52295     0.00000  0.0
    173    174    175    177   5     4.18400     2.28446     1.88280  0.0
    180    174    175    176   5     0.00000     0.00000     0.00000  0.0
    180    174    175    177   5     0.00000     0.00000     0.00000  0.0
    182    174    175    176   5     0.00000     0.00000     0.00000  0.0
    182    174    175    177   5     0.00000     0.00000     0.00000  0.0
    174    175    177    181   5    12.55200    20.50160     0.00000  0.0
    176    175    177    181   5     7.71530    31.30469     0.00000  0.0

[ dihedrals ]
; Improper dihedrals
; h   i   j   k   funct
      2      4      3      5   5     0.00000    87.86400     0.00000  0.0
     12     14     13     15   5     0.00000    87.86400     0.00000  0.0
     21     23     22     24   5     0.00000    87.86400     0.00000  0.0
     30     32     31     33   5     0.00000    87.86400     0.00000  0.0
     39     41     40     42   5     0.00000    87.86400     0.00000  0.0
     48     50     49     51   5     0.00000    87.86400     0.00000  0.0
     57     59     58     60   5     0.00000    87.86400     0.00000  0.0
     66     68     67     69   5     0.00000    87.86400     0.00000  0.0
     75     77     76     78   5     0.00000    87.86400     0.00000  0.0
     84     86     85     87   5     0.00000    87.86400     0.00000  0.0
     93     95     94     96   5     0.00000    87.86400     0.00000  0.0
    102    104    103    105   5     0.00000    87.86400     0.00000  0.0
    111    113    112    114   5     0.00000    87.86400     0.00000  0.0
    120    122    121    123   5     0.00000    87.86400     0.00000  0.0
    129    131    130    132   5     0.00000    87.86400     0.00000  0.0
    138    140    139    141   5     0.00000    87.86400     0.00000  0.0
    147    149    148    150   5     0.00000    87.86400     0.00000  0.0
    156    158    157    159   5     0.00000    87.86400     0.00000  0.0
    165    167    166    168   5     0.00000    87.86400     0.00000  0.0
    174    176    175    177   5     0.00000    87.86400     0.00000  0.0
